Y6 molecules
42420
    1BTD     S2    1   3.008   5.299   3.459 -0.0030 -0.0906 -0.0184
    1BTD     N1    2   3.022   5.479   3.452  0.0121 -0.0939 -0.0759
    1BTD     N2    3   2.829   5.298   3.447 -0.0008 -0.0808 -0.0519
    1BTD     N3    4   2.487   5.617   3.409  0.0311 -0.0671 -0.2241
    1BTD     N4    5   2.725   5.840   3.416  0.0469 -0.0831 -0.2537
    1BTD     C5    6   2.864   5.665   3.433  0.0302 -0.0881 -0.1684
    1BTD     C6    7   2.898   5.525   3.442  0.0178 -0.0880 -0.1151
    1BTD     C7    8   2.790   5.424   3.439  0.0105 -0.0806 -0.1017
    1BTD     C8    9   2.653   5.467   3.427  0.0160 -0.0737 -0.1422
    1BTD    C15   10   2.625   5.605   3.419  0.0281 -0.0742 -0.1938
    1BTD    C16   11   2.728   5.702   3.422  0.0351 -0.0814 -0.2067
    1BTD    C43   12   2.610   5.932   3.382 -0.5145 -0.0894  0.2950
    1BTD    C44   13   2.616   5.985   3.234 -0.5977  0.2964 -0.5920
    1BTD    C45   14   2.515   6.094   3.196 -0.0090  0.2626 -0.0861
    1BTD    C46   15   2.535   6.245   3.225  0.1750  0.0296  0.1569
    1BTD    C47   16   2.629   5.869   3.127  0.0117 -0.1932 -0.0922
    1BTD    C48   17   2.629   5.905   2.977  0.1903  0.0566 -0.8860
    1BTD    C49   18   2.750   5.978   2.930  0.2298 -0.6565  0.7207
    1BTD    C50   19   2.743   6.013   2.787  0.2636 -0.0686  0.2979
    1BTD    C75   20   2.411   5.720   3.483  0.1910  0.1117 -0.3032
    1BTD    C76   21   2.260   5.750   3.467 -0.3307  0.0691 -0.4352
    1BTD    C77   22   2.194   5.808   3.591 -0.1345 -0.0872 -0.7953
    1BTD    C78   23   2.219   5.734   3.723 -0.1156 -0.1104 -0.1994
    1BTD    C79   24   2.231   5.815   3.331  0.4495  0.6271  0.2011
    1BTD    C80   25   2.086   5.844   3.295  0.1770 -0.5627 -0.7077
    1BTD    C81   26   2.061   5.862   3.146  0.0754 -0.0387 -0.1222
    1BTD    C82   27   1.927   5.925   3.136 -0.0439  0.0675  0.2683
    2TTP     S1   28   3.114   5.839   3.446 -0.2639  0.0424 -0.1248
    2TTP     S5   29   2.869   6.193   3.458 -0.0890  0.1545  0.1596
    2TTP     C1   30   3.043   6.242   3.475 -0.0592  0.0604  0.1298
    2TTP     C2   31   3.129   6.136   3.473 -0.1115  0.0201  0.0402
    2TTP     C3   32   3.061   6.012   3.457 -0.1770  0.0623 -0.0081
    2TTP     C4   33   2.940   5.790   3.429 -0.2937  0.1365 -0.0949
    2TTP    C17   34   2.854   5.896   3.432 -0.2415  0.1767 -0.0054
    2TTP    C18   35   2.923   6.020   3.448 -0.1760  0.1346  0.0430
    2TTP    C32   36   3.282   6.138   3.482  0.1814 -0.3863 -0.0033
    2TTP    C33   37   3.363   6.135   3.352 -0.1000 -0.2906 -0.2478
    2TTP    C34   38   3.489   6.046   3.364 -0.3062  0.6883  0.3989
    2TTP    C35   39   3.545   6.010   3.226  0.4082  0.2189  1.0940
    2TTP    C36   40   3.666   5.913   3.232 -0.0714  0.0727 -0.0969
    2TTP    C37   41   3.799   5.977   3.275 -0.0978  0.0457 -0.2598
    2TTP    C38   42   3.855   6.081   3.186 -0.0994 -0.2228 -0.0990
    2TTP    C39   43   3.951   6.160   3.278 -0.2838  0.4669 -0.4781
    2TTP    C40   44   4.058   6.242   3.215 -0.4335  0.3673 -0.6562
    2TTP    C41   45   4.115   6.339   3.319  0.4849 -0.1930 -0.3024
    2TTP    C42   46   4.236   6.413   3.273 -0.2571 -0.1285 -0.1730
    3TTP     S1   47   2.478   5.227   3.408 -0.1837  0.2900  0.4239
    3TTP     S5   48   2.132   5.477   3.359 -0.0480  0.3456 -0.2673
    3TTP     C1   49   2.079   5.303   3.350 -0.1139  0.3507  0.0156
    3TTP     C2   50   2.183   5.216   3.365 -0.1597  0.3340  0.2456
    3TTP     C3   51   2.308   5.283   3.383 -0.1444  0.3163  0.2069
    3TTP     C4   52   2.531   5.401   3.416 -0.1179  0.2849  0.1411
    3TTP    C17   53   2.427   5.489   3.402 -0.0721  0.3017 -0.0890
    3TTP    C18   54   2.302   5.421   3.383 -0.0873  0.3192 -0.0502
    3TTP    C32   55   2.178   5.069   3.352  0.1698  1.0363  0.1488
    3TTP    C33   56   2.286   4.972   3.395 -0.0134 -0.0808  0.0886
    3TTP    C34   57   2.233   4.821   3.379 -0.6506 -0.0825 -0.7209
    3TTP    C35   58   2.328   4.728   3.457  0.5834  0.3948  0.4362
    3TTP    C36   59   2.441   4.675   3.375  0.5018 -0.5208 -0.1165
    3TTP    C37   60   2.554   4.610   3.453  0.0355  0.2679 -0.1927
    3TTP    C38   61   2.667   4.550   3.372  0.7521 -0.0337  0.1196
    3TTP    C39   62   2.750   4.470   3.466  0.2053  0.3324 -0.4352
    3TTP    C40   63   2.809   4.358   3.388 -0.0129  0.5625 -0.1298
    3TTP    C41   64   2.886   4.267   3.482  0.3378  0.1255 -0.2548
    3TTP    C42   65   2.966   4.161   3.407 -0.7229 -0.2028  0.7320
    4BIM     F1   66   2.734   6.998   3.571 -0.0777  0.0669  0.2347
    4BIM     F2   67   2.975   7.079   3.668 -0.0148  0.3080 -0.1196
    4BIM     O1   68   2.838   6.477   3.466  0.1997  0.0939  0.3710
    4BIM     N5   69   3.395   6.825   3.733  0.2730  0.6742 -0.5317
    4BIM     N6   70   3.427   6.402   3.632  0.4771  0.6467 -0.3537
    4BIM    C19   71   3.104   6.370   3.522  0.3582  0.3340  0.0811
    4BIM    C20   72   3.069   6.497   3.544  0.2859  0.3178  0.0606
    4BIM    C21   73   2.930   6.545   3.513  0.2069  0.1915  0.2161
    4BIM    C22   74   2.925   6.688   3.549  0.1408  0.2067  0.1478
    4BIM    C23   75   2.817   6.775   3.538  0.0570  0.1155  0.2427
    4BIM    C24   76   2.837   6.906   3.579  0.0059  0.1522  0.1491
    4BIM    C25   77   2.961   6.948   3.629  0.0385  0.2765 -0.0333
    4BIM    C26   78   3.069   6.862   3.640  0.1222  0.3680 -0.1287
    4BIM    C27   79   3.051   6.729   3.599  0.1746  0.3327 -0.0364
    4BIM    C28   80   3.145   6.613   3.598  0.2651  0.4058 -0.0973
    4BIM    C29   81   3.276   6.613   3.640  0.3192  0.5312 -0.2675
    4BIM    C30   82   3.341   6.730   3.691  0.2937  0.6094 -0.4122
    4BIM    C31   83   3.358   6.497   3.635  0.4058  0.5940 -0.3139
    5BIM     F1   84   1.333   5.642   3.307  0.0948  0.0182  0.0213
    5BIM     F2   85   1.225   5.392   3.329  0.0819  0.0112 -0.1192
    5BIM     O1   86   1.862   5.526   3.315  0.0896  0.0050  0.1725
    5BIM     N5   87   1.448   4.952   3.366  0.0597 -0.0081 -0.2134
    5BIM     N6   88   1.883   4.912   3.368  0.0583 -0.0169 -0.0668
    5BIM    C19   89   1.947   5.247   3.339  0.0756 -0.0063  0.0920
    5BIM    C20   90   1.818   5.286   3.336  0.0773 -0.0026  0.0595
    5BIM    C21   91   1.782   5.431   3.324  0.0847  0.0030  0.1045
    5BIM    C22   92   1.635   5.438   3.324  0.0848  0.0058  0.0523
    5BIM    C23   93   1.555   5.552   3.314  0.0905  0.0111  0.0682
    5BIM    C24   94   1.418   5.533   3.316  0.0894  0.0128  0.0094
    5BIM    C25   95   1.362   5.405   3.327  0.0827  0.0093 -0.0628
    5BIM    C26   96   1.441   5.291   3.337  0.0770  0.0039 -0.0792
    5BIM    C27   97   1.581   5.308   3.335  0.0781  0.0021 -0.0204
    5BIM    C28   98   1.691   5.209   3.343  0.0732 -0.0032 -0.0188
    5BIM    C29   99   1.678   5.073   3.355  0.0662 -0.0077 -0.0786
    5BIM    C30  100   1.552   5.007   3.361  0.0626 -0.0081 -0.1525
    5BIM    C31  101   1.791   4.985   3.362  0.0619 -0.0129 -0.0718
    1BTD     S2  102   7.103   9.460   3.916  0.3173 -0.1010  0.2233
    1BTD     N1  103   6.976   9.554   3.829  0.3114 -0.0410  0.2971
    1BTD     N2  104   7.031   9.300   3.874  0.3142 -0.0730  0.1181
    1BTD     N3  105   6.659   9.145   3.635  0.2977  0.0923  0.0369
    1BTD     N4  106   6.591   9.458   3.579  0.2942  0.1314  0.2576
    1BTD     C5  107   6.776   9.501   3.699  0.3023  0.0489  0.2738
    1BTD     C6  108   6.892   9.466   3.777  0.3077 -0.0050  0.2424
    1BTD     C7  109   6.923   9.324   3.802  0.3093 -0.0231  0.1422
    1BTD     C8  110   6.836   9.223   3.749  0.3057  0.0138  0.0783
    1BTD    C15  111   6.723   9.261   3.673  0.3005  0.0661  0.1123
    1BTD    C16  112   6.694   9.398   3.649  0.2987  0.0831  0.2088
    1BTD    C43  113   6.457   9.406   3.571  0.5830  0.3638 -0.1635
    1BTD    C44  114   6.360   9.425   3.448 -0.4065  0.1995 -0.3675
    1BTD    C45  115   6.213   9.367   3.463  0.0797  0.1846  0.3810
    1BTD    C46  116   6.134   9.427   3.574 -0.8298 -0.3013 -0.5579
    1BTD    C47  117   6.427   9.383   3.316 -0.4698  0.5728 -0.2282
    1BTD    C48  118   6.351   9.368   3.184 -0.3635 -0.5922 -0.0704
    1BTD    C49  119   6.300   9.507   3.139 -0.1413 -0.4052  0.5714
    1BTD    C50  120   6.238   9.503   3.002  0.6374  0.2636 -0.4712
    1BTD    C75  121   6.586   9.129   3.500 -0.0698  0.3866  0.1278
    1BTD    C76  122   6.476   9.022   3.468 -0.4297  0.6069 -0.4884
    1BTD    C77  123   6.456   8.992   3.314  0.7200 -0.5409 -0.3097
    1BTD    C78  124   6.532   8.875   3.274 -0.3161 -0.2379  0.3830
    1BTD    C79  125   6.347   9.031   3.554 -0.0353  0.0557  0.4865
    1BTD    C80  126   6.232   8.928   3.542  0.0782 -0.0553  0.4118
    1BTD    C81  127   6.268   8.780   3.565 -0.4601 -0.2029  0.1310
    1BTD    C82  128   6.200   8.673   3.482 -0.3182 -0.5551  0.1253
    2TTP     S1  129   6.759   9.805   3.656  0.0743 -0.0858  0.2048
    2TTP     S5  130   6.405   9.744   3.419  0.2083 -0.2008  0.0342
    2TTP     C1  131   6.443   9.922   3.421  0.1067 -0.1797  0.1146
    2TTP     C2  132   6.555   9.951   3.495  0.0592 -0.1429  0.1721
    2TTP     C3  133   6.614   9.834   3.552  0.1014 -0.1301  0.1546
    2TTP     C4  134   6.720   9.627   3.654  0.1760 -0.1070  0.1243
    2TTP    C17  135   6.609   9.598   3.581  0.2232 -0.1438  0.0668
    2TTP    C18  136   6.550   9.715   3.524  0.1810 -0.1565  0.0843
    2TTP    C32  137   6.626  10.085   3.518 -0.4828  0.5956  0.6397
    2TTP    C33  138   6.644  10.135   3.658 -0.0510  0.0452  0.6275
    2TTP    C34  139   6.694  10.277   3.655 -0.3562 -0.0713 -0.3227
    2TTP    C35  140   6.687  10.359   3.785  0.1551  0.8879  0.8631
    2TTP    C36  141   6.805  10.312   3.879  0.0422  0.1383  0.4939
    2TTP    C37  142   6.800  10.359   4.022 -0.6525  0.4174  1.0318
    2TTP    C38  143   6.923  10.327   4.116  0.8549 -0.3573 -0.4240
    2TTP    C39  144   7.060  10.366   4.055 -0.1041  0.2902  0.4819
    2TTP    C40  145   7.191  10.333   4.134 -0.0354 -0.0875 -1.0541
    2TTP    C41  146   7.198  10.212   4.226  0.1063 -0.2945  0.1740
    2TTP    C42  147   7.336  10.192   4.285 -0.2541 -0.1483  0.0406
    3TTP     S1  148   6.948   8.954   3.817 -0.0001 -0.0290  0.1166
    3TTP     S5  149   6.619   8.765   3.614 -0.2092  0.2539  0.1928
    3TTP     C1  150   6.726   8.636   3.684 -0.0898  0.1535 -0.1709
    3TTP     C2  151   6.834   8.686   3.751 -0.0184  0.0603 -0.2158
    3TTP     C3  152   6.836   8.829   3.749 -0.0551  0.0646  0.0353
    3TTP     C4  153   6.842   9.083   3.747 -0.1194  0.0718  0.4803
    3TTP    C17  154   6.734   9.033   3.680 -0.1910  0.1645  0.5253
    3TTP    C18  155   6.731   8.890   3.682 -0.1543  0.1600  0.2741
    3TTP    C32  156   6.938   8.601   3.823 -0.4233  0.5176  0.7228
    3TTP    C33  157   7.087   8.638   3.800 -0.4576 -0.2144  0.1196
    3TTP    C34  158   7.191   8.553   3.874  0.0842 -0.7150 -0.1509
    3TTP    C35  159   7.335   8.589   3.854 -0.5776 -0.2618 -0.5316
    3TTP    C36  160   7.428   8.510   3.944  0.4832 -0.7320 -0.5123
    3TTP    C37  161   7.577   8.534   3.909  0.6081  0.4539 -0.3265
    3TTP    C38  162   7.661   8.406   3.934  0.1265 -0.2159  0.6049
    3TTP    C39  163   7.804   8.421   3.896  0.2190  0.3713  0.1358
    3TTP    C40  164   7.880   8.287   3.893  0.1097  0.5453 -0.0967
    3TTP    C41  165   7.878   8.193   4.013 -0.1129  0.0846  0.5813
    3TTP    C42  166   7.962   8.238   4.131 -0.3366  0.0166 -0.3215
    4BIM     F1  167   5.939   9.919   2.772 -0.3734 -0.1345  0.2089
    4BIM     F2  168   5.884  10.181   2.821  0.3325  0.1307 -0.3759
    4BIM     O1  169   6.300   9.816   3.161 -0.6609 -0.2462  0.4472
    4BIM     N5  170   6.063  10.484   3.170  1.1421  0.4322 -1.0467
    4BIM     N6  171   6.356  10.350   3.464  0.7752  0.2915 -0.7426
    4BIM    C19  172   6.376  10.029   3.346 -0.0889 -0.0326 -0.0268
    4BIM    C20  173   6.288  10.045   3.247 -0.0440 -0.0148 -0.0640
    4BIM    C21  174   6.254   9.930   3.155 -0.3511 -0.1296  0.1904
    4BIM    C22  175   6.155   9.982   3.059 -0.2111 -0.0760  0.0744
    4BIM    C23  176   6.093   9.912   2.955 -0.3963 -0.1448  0.2279
    4BIM    C24  177   6.003   9.982   2.876 -0.2066 -0.0727  0.0708
    4BIM    C25  178   5.975  10.117   2.902  0.1570  0.0639 -0.2306
    4BIM    C26  179   6.035  10.187   3.006  0.3436  0.1332 -0.3850
    4BIM    C27  180   6.127  10.118   3.086  0.1560  0.0619 -0.2297
    4BIM    C28  181   6.208  10.162   3.202  0.2731  0.1049 -0.3267
    4BIM    C29  182   6.209  10.288   3.259  0.6108  0.2315 -0.6065
    4BIM    C30  183   6.128  10.395   3.209  0.9018  0.3414 -0.8475
    4BIM    C31  184   6.290  10.321   3.371  0.6993  0.2638 -0.6798
    5BIM     F1  185   6.259   8.158   3.209 -0.0564  0.2294  0.0854
    5BIM     F2  186   6.337   7.944   3.358 -0.1872  0.1943  0.1037
    5BIM     O1  187   6.536   8.557   3.449  0.1069  0.0978  0.1168
    5BIM     N5  188   6.646   7.921   3.744 -0.2586  0.0503  0.1526
    5BIM     N6  189   6.847   8.276   3.902 -0.1045 -0.0458  0.1733
    5BIM    C19  190   6.708   8.495   3.677  0.0399  0.0172  0.1454
    5BIM    C20  191   6.636   8.403   3.611  0.0042  0.0520  0.1369
    5BIM    C21  192   6.549   8.442   3.495  0.0421  0.0920  0.1222
    5BIM    C22  193   6.485   8.319   3.446 -0.0123  0.1228  0.1158
    5BIM    C23  194   6.396   8.306   3.340 -0.0025  0.1645  0.1023
    5BIM    C24  195   6.348   8.179   3.313 -0.0623  0.1882  0.0986
    5BIM    C25  196   6.388   8.069   3.390 -0.1296  0.1697  0.1080
    5BIM    C26  197   6.477   8.081   3.496 -0.1397  0.1280  0.1215
    5BIM    C27  198   6.526   8.209   3.525 -0.0799  0.1042  0.1255
    5BIM    C28  199   6.621   8.256   3.629 -0.0724  0.0598  0.1389
    5BIM    C29  200   6.683   8.179   3.725 -0.1261  0.0315  0.1506
    5BIM    C30  201   6.662   8.037   3.735 -0.1986  0.0420  0.1516
    5BIM    C31  202   6.772   8.233   3.822 -0.1141 -0.0110  0.1631
    1BTD     S2  203   9.060   7.720   4.083 -0.2766 -0.0641 -0.1228
    1BTD     N1  204   8.949   7.848   4.024 -0.1397 -0.0327 -0.3130
    1BTD     N2  205   9.210   7.805   4.034 -0.1643 -0.0927  0.1606
    1BTD     N3  206   9.316   8.212   3.825  0.3109 -0.0951  0.3948
    1BTD     N4  207   8.994   8.265   3.813  0.3417 -0.0210 -0.1889
    1BTD     C5  208   8.977   8.065   3.914  0.1111 -0.0277 -0.2412
    1BTD     C6  209   9.026   7.944   3.973 -0.0234 -0.0447 -0.1633
    1BTD     C7  210   9.172   7.920   3.978 -0.0377 -0.0784  0.1019
    1BTD     C8  211   9.261   8.019   3.924  0.0844 -0.0930  0.2759
    1BTD    C15  212   9.209   8.136   3.868  0.2137 -0.0754  0.1911
    1BTD    C16  213   9.068   8.159   3.863  0.2272 -0.0430 -0.0643
    1BTD    C43  214   9.042   8.370   3.721  0.0836 -0.1699 -0.5407
    1BTD    C44  215   8.988   8.514   3.716  0.1133  0.3586  0.1160
    1BTD    C45  216   8.970   8.589   3.850  0.2774 -0.1565 -0.1345
    1BTD    C46  217   9.088   8.608   3.944  0.4716  1.2734  0.0995
    1BTD    C47  218   9.050   8.604   3.606 -0.5340 -0.5495 -0.5952
    1BTD    C48  219   9.042   8.577   3.458  0.1857 -0.1605 -0.8140
    1BTD    C49  220   8.908   8.522   3.403  0.1187  0.2243  0.0349
    1BTD    C50  221   8.892   8.528   3.253 -0.3168  0.0939  0.0158
    1BTD    C75  222   9.332   8.359   3.855 -0.0106  0.6639  0.2940
    1BTD    C76  223   9.433   8.457   3.795 -0.1766 -0.1611 -0.2547
    1BTD    C77  224   9.410   8.482   3.643  0.0359  0.3554  0.3338
    1BTD    C78  225   9.519   8.525   3.548 -0.2685  0.4640  0.9622
    1BTD    C79  226   9.441   8.589   3.867  0.0907 -0.1115 -0.5101
    1BTD    C80  227   9.481   8.587   4.018  0.4757 -0.2770  0.3764
    1BTD    C81  228   9.607   8.518   4.063 -0.0344  0.5322 -0.2018
    1BTD    C82  229   9.640   8.547   4.208  0.0277 -0.0381 -0.1586
    2TTP     S1  230   8.671   8.055   3.899 -0.1088  0.3541  0.0365
    2TTP     S5  231   8.673   8.434   3.697  0.1919  0.2942 -0.0744
    2TTP     C1  232   8.502   8.372   3.701  0.1321  0.4610  0.0018
    2TTP     C2  233   8.492   8.251   3.764  0.0355  0.4897  0.0406
    2TTP     C3  234   8.618   8.203   3.811  0.0057  0.3803  0.0114
    2TTP     C4  235   8.842   8.118   3.895 -0.0489  0.1867 -0.0397
    2TTP    C17  236   8.853   8.239   3.832  0.0477  0.1582 -0.0785
    2TTP    C18  237   8.726   8.286   3.785  0.0777  0.2675 -0.0493
    2TTP    C32  238   8.361   8.170   3.792 -0.1384 -1.2343  0.8194
    2TTP    C33  239   8.359   8.032   3.735 -0.4216 -0.3461  0.1442
    2TTP    C34  240   8.232   7.954   3.771  0.3275  0.2120  0.5795
    2TTP    C35  241   8.184   7.843   3.675  0.0333 -0.0701 -0.2438
    2TTP    C36  242   8.065   7.755   3.715  0.0135 -0.0236 -0.2431
    2TTP    C37  243   7.935   7.809   3.773 -0.0558  0.0932  0.4630
    2TTP    C38  244   7.836   7.697   3.792 -0.0207  0.0041 -0.0549
    2TTP    C39  245   7.694   7.752   3.831 -0.0726 -0.5419  0.4406
    2TTP    C40  246   7.623   7.821   3.713  0.4271 -0.3034  0.1572
    2TTP    C41  247   7.555   7.717   3.616  0.1278 -0.4739 -0.6902
    2TTP    C42  248   7.463   7.782   3.518  0.1490  0.0552  0.4461
    3TTP     S1  249   9.543   7.915   3.944  0.0016 -0.0621  0.0185
    3TTP     S5  250   9.686   8.283   3.774 -0.2879  0.1111  0.1484
    3TTP     C1  251   9.830   8.178   3.815 -0.2104  0.1538 -0.0128
    3TTP     C2  252   9.794   8.058   3.869 -0.1165  0.1030 -0.0625
    3TTP     C3  253   9.652   8.045   3.881 -0.1022  0.0281  0.0251
    3TTP     C4  254   9.400   8.019   3.903 -0.0758 -0.1049  0.1797
    3TTP    C17  255   9.436   8.139   3.848 -0.1697 -0.0539  0.2293
    3TTP    C18  256   9.578   8.153   3.837 -0.1840  0.0207  0.1417
    3TTP    C32  257   9.886   7.941   3.912 -0.5895 -0.5875  0.8635
    3TTP    C33  258   9.868   7.910   4.055 -0.0626  0.4778 -0.3333
    3TTP    C34  259   9.923   8.012   4.156  0.5530 -0.2534 -0.2812
    3TTP    C35  260  10.072   8.031   4.158  0.8383  0.6355  0.3363
    3TTP    C36  261  10.154   7.906   4.205  0.5488 -0.1547  0.0730
    3TTP    C37  262  10.302   7.910   4.181 -0.1532 -0.2210  0.1867
    3TTP    C38  263  10.377   7.778   4.200 -0.2778  0.3464 -0.3323
    3TTP    C39  264  10.381   7.724   4.344 -0.0724 -0.0431  0.3274
    3TTP    C40  265  10.415   7.579   4.340  0.0810  0.2588 -0.6569
    3TTP    C41  266  10.410   7.514   4.481 -0.2783  0.0039  0.5288
    3TTP    C42  267  10.443   7.366   4.474  0.5542 -1.3957 -0.2450
    4BIM     F1  268   8.333   9.127   3.425 -0.1538 -0.0226 -0.0100
    4BIM     F2  269   8.099   9.031   3.326 -0.0966 -0.1056 -0.0637
    4BIM     O1  270   8.536   8.684   3.660  0.0319  0.0072 -0.1148
    4BIM     N5  271   7.907   8.575   3.350  0.1179 -0.2043 -0.2156
    4BIM     N6  272   8.113   8.248   3.553  0.2515 -0.1645 -0.2868
    4BIM    C19  273   8.385   8.434   3.648  0.1523 -0.0620 -0.2034
    4BIM    C20  274   8.343   8.549   3.593  0.1037 -0.0663 -0.1748
    4BIM    C21  275   8.426   8.673   3.603  0.0432 -0.0291 -0.1300
    4BIM    C22  276   8.352   8.780   3.533  0.0002 -0.0446 -0.1077
    4BIM    C23  277   8.389   8.913   3.516 -0.0610 -0.0217 -0.0654
    4BIM    C24  278   8.302   8.995   3.446 -0.0926 -0.0431 -0.0515
    4BIM    C25  279   8.182   8.945   3.394 -0.0631 -0.0859 -0.0792
    4BIM    C26  280   8.144   8.812   3.411 -0.0014 -0.1092 -0.1214
    4BIM    C27  281   8.231   8.727   3.482  0.0308 -0.0880 -0.1361
    4BIM    C28  282   8.220   8.584   3.517  0.0956 -0.1028 -0.1785
    4BIM    C29  283   8.117   8.499   3.484  0.1395 -0.1431 -0.2143
    4BIM    C30  284   8.002   8.541   3.410  0.1273 -0.1769 -0.2150
    4BIM    C31  285   8.115   8.361   3.522  0.2005 -0.1547 -0.2539
    5BIM     F1  286  10.262   8.880   3.775 -0.1962  0.1643  0.1792
    5BIM     F2  287  10.491   8.735   3.801 -0.1283  0.2060 -0.1827
    5BIM     O1  288   9.890   8.486   3.779 -0.0937  0.0696  0.3940
    5BIM     N5  289  10.555   8.246   3.841  0.0425  0.1988 -0.5499
    5BIM     N6  290  10.218   7.967   3.839  0.1089  0.1160 -0.3091
    5BIM    C19  291   9.977   8.208   3.806  0.0077  0.0757  0.1245
    5BIM    C20  292  10.062   8.312   3.804 -0.0208  0.0982  0.0846
    5BIM    C21  293  10.009   8.453   3.790 -0.0725  0.0930  0.2306
    5BIM    C22  294  10.127   8.541   3.791 -0.0929  0.1218  0.1413
    5BIM    C23  295  10.129   8.680   3.781 -0.1397  0.1280  0.2214
    5BIM    C24  296  10.253   8.743   3.784 -0.1506  0.1567  0.1091
    5BIM    C25  297  10.371   8.668   3.798 -0.1155  0.1780 -0.0774
    5BIM    C26  298  10.370   8.529   3.808 -0.0688  0.1721 -0.1581
    5BIM    C27  299  10.245   8.464   3.804 -0.0570  0.1433 -0.0466
    5BIM    C28  300  10.209   8.321   3.813 -0.0113  0.1295 -0.0888
    5BIM    C29  301  10.297   8.215   3.826  0.0315  0.1433 -0.2567
    5BIM    C30  302  10.438   8.232   3.834  0.0374  0.1736 -0.4173
    5BIM    C31  303  10.253   8.079   3.833  0.0739  0.1280 -0.2846
    1BTD     S2  304   4.730   7.346   3.075  0.0176 -0.2124 -0.2477
    1BTD     N1  305   4.887   7.394   3.147  0.1557 -0.1414 -0.5917
    1BTD     N2  306   4.756   7.170   3.099 -0.1543 -0.1633  0.3214
    1BTD     N3  307   5.094   6.898   3.279 -0.2556  0.0648  0.8597
    1BTD     N4  308   5.255   7.174   3.339  0.1262  0.0919 -0.2654
    1BTD     C5  309   5.077   7.276   3.246  0.1357 -0.0200 -0.4078
    1BTD     C6  310   4.948   7.282   3.184  0.0707 -0.0875 -0.2807
    1BTD     C7  311   4.875   7.157   3.157 -0.1026 -0.0998  0.2303
    1BTD     C8  312   4.934   7.031   3.194 -0.2025 -0.0439  0.5889
    1BTD    C15  313   5.061   7.030   3.255 -0.1338  0.0216  0.4478
    1BTD    C16  314   5.132   7.151   3.281  0.0334  0.0333 -0.0445
    1BTD    C43  315   5.303   7.104   3.461 -0.2025  0.4743  1.3237
    1BTD    C44  316   5.452   7.088   3.502  0.4541 -0.1423 -0.5653
    1BTD    C45  317   5.470   7.047   3.652  0.2783  0.0078 -0.2269
    1BTD    C46  318   5.399   6.924   3.709  0.8360 -0.1630  0.2121
    1BTD    C47  319   5.538   7.006   3.405 -0.5167 -0.1152 -0.4173
    1BTD    C48  320   5.691   7.010   3.420  0.2602 -0.3300 -0.1693
    1BTD    C49  321   5.772   6.915   3.342 -0.4409  0.6525 -1.0517
    1BTD    C50  322   5.738   6.767   3.367 -0.3273  0.0233 -0.5142
    1BTD    C75  323   5.231   6.850   3.272  0.1027 -0.2897  0.1193
    1BTD    C76  324   5.276   6.709   3.303 -0.0752 -0.0951 -0.4058
    1BTD    C77  325   5.399   6.669   3.214 -0.1550 -0.0105 -0.1218
    1BTD    C78  326   5.391   6.667   3.068  0.3331 -0.6150  0.4159
    1BTD    C79  327   5.280   6.684   3.458 -0.0453 -0.3096  0.7491
    1BTD    C80  328   5.306   6.537   3.485 -0.3092  0.0129  0.4958
    1BTD    C81  329   5.335   6.491   3.627  0.1278  0.2050 -0.4564
    1BTD    C82  330   5.335   6.340   3.648  0.4094 -0.2030 -0.0083
    2TTP     S1  331   5.199   7.555   3.254  0.0382 -0.0355 -0.1352
    2TTP     S5  332   5.571   7.383   3.386 -0.0473  0.0725  0.2496
    2TTP     C1  333   5.596   7.561   3.359 -0.0359  0.0547  0.1418
    2TTP     C2  334   5.483   7.624   3.317 -0.0087  0.0201  0.0167
    2TTP     C3  335   5.372   7.535   3.304  0.0039  0.0067  0.0013
    2TTP     C4  336   5.175   7.376   3.282  0.0268 -0.0176 -0.0274
    2TTP    C17  337   5.288   7.313   3.324 -0.0003  0.0167  0.0978
    2TTP    C18  338   5.398   7.403   3.336 -0.0131  0.0303  0.1130
    2TTP    C32  339   5.463   7.776   3.290  0.1715 -0.4839  0.0707
    2TTP    C33  340   5.480   7.822   3.146 -0.0140 -0.6446 -0.0076
    2TTP    C34  341   5.453   7.973   3.127  0.0420  0.3798 -0.5159
    2TTP    C35  342   5.406   8.020   2.983  0.4703  0.0024 -0.2876
    2TTP    C36  343   5.352   8.165   2.974  0.0905  0.1560  0.5477
    2TTP    C37  344   5.246   8.196   3.076 -0.2750 -0.4414  0.4585
    2TTP    C38  345   5.201   8.337   3.063  0.1552  0.6366 -0.1803
    2TTP    C39  346   5.079   8.369   3.154 -0.5184 -0.2183  0.2841
    2TTP    C40  347   4.952   8.282   3.132 -0.2887 -0.1226  0.4956
    2TTP    C41  348   4.860   8.284   3.252 -0.1528 -0.2106 -0.1124
    2TTP    C42  349   4.769   8.168   3.240 -0.4877  0.7911 -0.0755
    3TTP     S1  350   4.732   6.809   3.140  0.1461 -0.1048 -0.1010
    3TTP     S5  351   4.994   6.533   3.341 -0.3351 -0.4964 -0.0092
    3TTP     C1  352   4.840   6.446   3.299 -0.2166 -0.4297 -0.5933
    3TTP     C2  353   4.750   6.526   3.234 -0.0610 -0.3049 -0.6561
    3TTP     C3  354   4.800   6.659   3.216 -0.0298 -0.2573 -0.2451
    3TTP     C4  355   4.887   6.896   3.183  0.0277 -0.1714  0.4830
    3TTP    C17  356   4.977   6.816   3.247 -0.1279 -0.2963  0.5458
    3TTP    C18  357   4.927   6.683   3.266 -0.1591 -0.3438  0.1349
    3TTP    C32  358   4.616   6.486   3.192  0.0781 -0.0086 -0.3159
    3TTP    C33  359   4.579   6.465   3.044  0.0479 -0.2819  0.5537
    3TTP    C34  360   4.658   6.345   2.993  0.8189  0.2169 -0.4223
    3TTP    C35  361   4.621   6.199   3.040  0.2659 -0.2430 -0.2255
    3TTP    C36  362   4.476   6.159   3.026 -0.0943 -0.3287 -0.3587
    3TTP    C37  363   4.459   6.024   3.101  0.3181 -0.0639  0.2379
    3TTP    C38  364   4.315   5.967   3.097  0.3969  0.1617  0.4377
    3TTP    C39  365   4.283   5.831   3.163 -0.5246  0.4690 -0.0417
    3TTP    C40  366   4.333   5.821   3.307  0.5865 -0.0051 -0.1525
    3TTP    C41  367   4.216   5.830   3.403 -0.4297 -0.4862 -0.1656
    3TTP    C42  368   4.243   5.822   3.548 -0.3151  0.3459 -0.1260
    4BIM     F1  369   6.381   7.383   3.548  0.1539  0.0288 -0.1360
    4BIM     F2  370   6.422   7.648   3.593  0.1181  0.0337 -0.1323
    4BIM     O1  371   5.863   7.384   3.389  0.1304 -0.0473 -0.0608
    4BIM     N5  372   6.111   8.031   3.544  0.0504 -0.0134 -0.0733
    4BIM     N6  373   5.699   7.978   3.411  0.0392 -0.0740 -0.0154
    4BIM    C19  374   5.718   7.638   3.376  0.0882 -0.0697 -0.0306
    4BIM    C20  375   5.847   7.627   3.414  0.0955 -0.0507 -0.0497
    4BIM    C21  376   5.914   7.493   3.418  0.1173 -0.0402 -0.0643
    4BIM    C22  377   6.053   7.518   3.464  0.1203 -0.0198 -0.0835
    4BIM    C23  378   6.153   7.423   3.483  0.1379 -0.0046 -0.1015
    4BIM    C24  379   6.277   7.470   3.527  0.1368  0.0132 -0.1177
    4BIM    C25  380   6.297   7.607   3.550  0.1186  0.0157 -0.1157
    4BIM    C26  381   6.197   7.701   3.530  0.1007  0.0006 -0.0978
    4BIM    C27  382   6.072   7.656   3.486  0.1016 -0.0176 -0.0813
    4BIM    C28  383   5.946   7.729   3.457  0.0856 -0.0364 -0.0604
    4BIM    C29  384   5.926   7.865   3.467  0.0656 -0.0399 -0.0525
    4BIM    C30  385   6.028   7.955   3.509  0.0573 -0.0252 -0.0640
    4BIM    C31  386   5.801   7.926   3.436  0.0514 -0.0585 -0.0321
    5BIM     F1  387   5.303   5.808   3.527 -0.0693  0.0091  0.1708
    5BIM     F2  388   5.076   5.677   3.601 -0.1303 -0.1135 -0.2270
    5BIM     O1  389   5.097   6.269   3.334  0.0495  0.0831  0.2198
    5BIM     N5  390   4.603   5.818   3.570 -0.1330 -0.2372 -0.7643
    5BIM     N6  391   4.487   6.205   3.404 -0.0280 -0.1546 -0.6458
    5BIM    C19  392   4.807   6.308   3.336  0.0335 -0.0079 -0.1431
    5BIM    C20  393   4.867   6.197   3.382  0.0060 -0.0216 -0.1397
    5BIM    C21  394   5.017   6.185   3.377  0.0163  0.0275  0.0526
    5BIM    C22  395   5.050   6.053   3.434 -0.0200 -0.0030  0.0030
    5BIM    C23  396   5.176   5.996   3.451 -0.0249  0.0240  0.1327
    5BIM    C24  397   5.182   5.870   3.507 -0.0622 -0.0144  0.0511
    5BIM    C25  398   5.065   5.802   3.546 -0.0938 -0.0775 -0.1539
    5BIM    C26  399   4.939   5.858   3.529 -0.0890 -0.1048 -0.2842
    5BIM    C27  400   4.931   5.986   3.472 -0.0513 -0.0666 -0.2043
    5BIM    C28  401   4.814   6.072   3.441 -0.0366 -0.0807 -0.3003
    5BIM    C29  402   4.682   6.042   3.464 -0.0583 -0.1374 -0.4996
    5BIM    C30  403   4.639   5.919   3.522 -0.0994 -0.1920 -0.6444
    5BIM    C31  404   4.576   6.132   3.431 -0.0416 -0.1466 -0.5789
    1BTD     S2  405   1.744   0.960   5.697 -0.1336 -0.0682 -0.0349
    1BTD     N1  406   1.898   0.907   5.774 -0.0100 -0.1539 -0.3378
    1BTD     N2  407   1.646   0.827   5.768 -0.0968  0.0646  0.2670
    1BTD     N3  408   1.724   0.461   6.052  0.2016  0.1803  0.3359
    1BTD     N4  409   2.034   0.560   6.059  0.3085 -0.0889 -0.4096
    1BTD     C5  410   1.965   0.725   5.922  0.1550 -0.1168 -0.3664
    1BTD     C6  411   1.870   0.799   5.845  0.0493 -0.0829 -0.2050
    1BTD     C7  412   1.729   0.754   5.841  0.0007  0.0394  0.1336
    1BTD     C8  413   1.690   0.637   5.916  0.0603  0.1218  0.2941
    1BTD    C15  414   1.787   0.568   5.991  0.1635  0.0846  0.1266
    1BTD    C16  415   1.923   0.611   5.994  0.2103 -0.0332 -0.1998
    1BTD    C43  416   2.031   0.501   6.194  0.0816  0.2633 -0.2155
    1BTD    C44  417   2.144   0.406   6.233  0.4226 -0.5163 -0.0387
    1BTD    C45  418   2.142   0.272   6.160  0.2865  0.2181 -0.0699
    1BTD    C46  419   2.254   0.178   6.187 -0.2568  0.0969  0.3794
    1BTD    C47  420   2.129   0.402   6.384  0.5326 -0.3056  0.1082
    1BTD    C48  421   2.189   0.522   6.454  0.3511  0.1268 -0.2365
    1BTD    C49  422   2.343   0.510   6.463 -0.4072 -0.0438  0.3608
    1BTD    C50  423   2.426   0.599   6.563  0.5204 -0.3776  0.0962
    1BTD    C75  424   1.788   0.333   6.058 -0.2450  0.6567  0.2995
    1BTD    C76  425   1.748   0.216   6.145  0.0603  0.4574 -0.0701
    1BTD    C77  426   1.752   0.264   6.291 -0.6689 -0.3168 -0.1340
    1BTD    C78  427   1.691   0.179   6.399  0.2987 -0.2265 -0.4876
    1BTD    C79  428   1.809   0.076   6.115 -0.1221  0.2495  0.7971
    1BTD    C80  429   1.772   0.033   5.979 -0.3494 -0.1109 -0.5279
    1BTD    C81  430   1.813  -0.107   5.953 -0.4956 -0.1852 -0.4262
    1BTD    C82  431   1.765  -0.146   5.820 -0.5553 -0.1046  0.6174
    2TTP     S1  432   2.233   0.849   5.886 -0.3305 -0.2666  0.0994
    2TTP     S5  433   2.410   0.507   6.078  0.2440 -0.2093 -0.3231
    2TTP     C1  434   2.543   0.609   6.007  0.0581 -0.0216 -0.4033
    2TTP     C2  435   2.496   0.721   5.943 -0.1302 -0.0282 -0.2779
    2TTP     C3  436   2.354   0.730   5.949 -0.1346 -0.1818 -0.1134
    2TTP     C4  437   2.100   0.747   5.957 -0.1447 -0.4543  0.1796
    2TTP    C17  438   2.147   0.636   6.021  0.0437 -0.4477  0.0542
    2TTP    C18  439   2.290   0.627   6.015  0.0480 -0.2941 -0.1103
    2TTP    C32  440   2.574   0.836   5.885 -0.6445  0.3100 -0.2703
    2TTP    C33  441   2.569   0.977   5.940  0.3091 -0.4056 -0.2976
    2TTP    C34  442   2.609   0.991   6.089 -0.4900 -0.5358  0.1581
    2TTP    C35  443   2.488   1.018   6.180  0.1169 -0.5397  0.0695
    2TTP    C36  444   2.521   1.055   6.322 -0.0247  0.2312 -0.9080
    2TTP    C37  445   2.599   0.934   6.392  0.2937  0.4133 -0.3096
    2TTP    C38  446   2.622   0.954   6.542 -0.6499  0.5354  0.0579
    2TTP    C39  447   2.506   1.003   6.635 -0.5543 -1.0213 -0.1820
    2TTP    C40  448   2.559   1.037   6.773  0.6024 -0.6388 -0.5920
    2TTP    C41  449   2.456   1.125   6.855 -0.1019  0.1429 -0.2351
    2TTP    C42  450   2.489   1.273   6.850 -0.0797 -0.2072 -0.0430
    3TTP     S1  451   1.401   0.578   5.851 -0.2345  0.1638  0.2964
    3TTP     S5  452   1.420   0.240   6.117  0.1613  0.0277  0.0967
    3TTP     C1  453   1.253   0.248   6.046  0.0522  0.0689  0.3547
    3TTP     C2  454   1.237   0.353   5.959 -0.0764  0.1133  0.4318
    3TTP     C3  455   1.357   0.431   5.946 -0.0935  0.1165  0.2896
    3TTP     C4  456   1.568   0.570   5.922 -0.1255  0.1226  0.0384
    3TTP    C17  457   1.584   0.465   6.009  0.0032  0.0781 -0.0386
    3TTP    C18  458   1.465   0.387   6.022  0.0202  0.0750  0.1035
    3TTP    C32  459   1.123   0.401   5.874  0.0178 -0.0924  0.1997
    3TTP    C33  460   1.105   0.352   5.724 -0.6846  1.1366 -0.6406
    3TTP    C34  461   1.018   0.449   5.649  0.2024  0.4123  0.4015
    3TTP    C35  462   1.022   0.433   5.504 -0.3643 -0.6929  0.4303
    3TTP    C36  463   0.908   0.500   5.420 -0.5638 -0.4219 -0.0548
    3TTP    C37  464   0.769   0.453   5.449  0.5660  0.2425 -0.4280
    3TTP    C38  465   0.669   0.556   5.390  0.1198  0.6971 -0.1240
    3TTP    C39  466   0.527   0.516   5.407  0.3674  0.9762  0.1465
    3TTP    C40  467   0.461   0.555   5.542 -0.1603  0.3940  0.0779
    3TTP    C41  468   0.436   0.701   5.578 -0.2570 -0.2122  0.4800
    3TTP    C42  469   0.362   0.790   5.479  0.0329 -0.2131  0.1631
    4BIM     F1  470   3.028  -0.030   6.202  0.3604  0.0689 -0.1819
    4BIM     F2  471   3.241   0.140   6.194  0.1556  0.3615  0.4201
    4BIM     O1  472   2.625   0.305   6.068  0.1609 -0.2898 -0.4822
    4BIM     N5  473   3.259   0.622   6.086 -0.2811  0.5262  1.0715
    4BIM     N6  474   2.901   0.850   5.983 -0.3957  0.1868  0.7156
    4BIM    C19  475   2.685   0.586   6.012 -0.1057 -0.1379 -0.0136
    4BIM    C20  476   2.778   0.495   6.047 -0.0474 -0.0590  0.0383
    4BIM    C21  477   2.739   0.353   6.074  0.0899 -0.1454 -0.2142
    4BIM    C22  478   2.864   0.281   6.108  0.1228 -0.0252 -0.0803
    4BIM    C23  479   2.879   0.147   6.141  0.2395 -0.0486 -0.2263
    4BIM    C24  480   3.007   0.102   6.169  0.2478  0.0837 -0.0523
    4BIM    C25  481   3.116   0.189   6.165  0.1421  0.2342  0.2579
    4BIM    C26  482   3.102   0.324   6.132  0.0253  0.2585  0.4047
    4BIM    C27  483   2.973   0.371   6.103  0.0151  0.1260  0.2323
    4BIM    C28  484   2.925   0.506   6.065 -0.0936  0.1111  0.3177
    4BIM    C29  485   3.002   0.619   6.050 -0.2142  0.2321  0.6014
    4BIM    C30  486   3.143   0.620   6.070 -0.2505  0.3934  0.8588
    4BIM    C31  487   2.946   0.746   6.013 -0.3134  0.2065  0.6624
    5BIM     F1  488   1.145  -0.443   6.471  0.3686 -0.0417 -0.2391
    5BIM     F2  489   0.883  -0.440   6.399  0.2544 -0.0830  0.1683
    5BIM     O1  490   1.325   0.003   6.222 -0.1115  0.0417 -0.4388
    5BIM     N5  491   0.634  -0.118   6.117 -0.2520 -0.0830  0.6119
    5BIM     N6  492   0.827   0.229   5.937 -0.6042 -0.0094  0.3738
    5BIM    C19  493   1.138   0.164   6.064 -0.3912  0.0319 -0.1203
    5BIM    C20  494   1.103   0.052   6.130 -0.2660  0.0125 -0.0861
    5BIM    C21  495   1.205  -0.026   6.209 -0.1265  0.0191 -0.2577
    5BIM    C22  496   1.134  -0.141   6.267 -0.0124 -0.0062 -0.1680
    5BIM    C23  497   1.186  -0.241   6.348  0.1348 -0.0105 -0.2677
    5BIM    C24  498   1.100  -0.341   6.391  0.2220 -0.0361 -0.1505
    5BIM    C25  499   0.964  -0.339   6.354  0.1629 -0.0576  0.0593
    5BIM    C26  500   0.911  -0.239   6.273  0.0162 -0.0536  0.1596
    5BIM    C27  501   0.998  -0.138   6.228 -0.0739 -0.0277  0.0437
    5BIM    C28  502   0.973  -0.019   6.142 -0.2320 -0.0167  0.1025
    5BIM    C29  503   0.854   0.017   6.085 -0.3285 -0.0312  0.2950
    5BIM    C30  504   0.733  -0.057   6.103 -0.2861 -0.0596  0.4686
    5BIM    C31  505   0.840   0.134   6.004 -0.4796 -0.0191  0.3372
    1BTD     S2  506   8.246   1.973   4.637  0.1889  0.1086  0.0114
    1BTD     N1  507   8.284   1.799   4.615  0.4599  0.2077 -0.3272
    1BTD     N2  508   8.084   1.963   4.560 -0.0134 -0.0962  0.4605
    1BTD     N3  509   7.821   1.627   4.364  0.0637 -0.3346  0.7644
    1BTD     N4  510   8.068   1.424   4.432  0.6471  0.0399 -0.2064
    1BTD     C5  511   8.168   1.606   4.518  0.5507  0.1156 -0.2525
    1BTD     C6  512   8.179   1.745   4.555  0.3893  0.0891 -0.0999
    1BTD     C7  513   8.067   1.836   4.524  0.1242 -0.0809  0.3411
    1BTD     C8  514   7.950   1.785   4.459  0.0339 -0.2162  0.6074
    1BTD    C15  515   7.943   1.648   4.425  0.1985 -0.1844  0.4445
    1BTD    C16  516   8.051   1.560   4.455  0.4539 -0.0205  0.0195
    1BTD    C43  517   7.949   1.332   4.423 -0.4386  0.3919  0.1916
    1BTD    C44  518   7.961   1.191   4.366 -0.3130  0.4212  0.4254
    1BTD    C45  519   8.006   1.192   4.218  0.5309  0.2340  0.3451
    1BTD    C46  520   8.071   1.064   4.159  0.0748  0.2593  0.0808
    1BTD    C47  521   7.851   1.088   4.388 -0.0114  0.4370 -0.4387
    1BTD    C48  522   7.796   1.079   4.531  0.2521 -0.3290  0.1036
    1BTD    C49  523   7.743   0.941   4.563  0.6735  0.1689  0.1449
    1BTD    C50  524   7.620   0.892   4.478 -0.7597 -0.0244 -0.5562
    1BTD    C75  525   7.800   1.537   4.247 -0.2141 -0.0627  0.3267
    1BTD    C76  526   7.670   1.482   4.206  0.4513  0.7277 -0.0059
    1BTD    C77  527   7.679   1.406   4.071  1.2009 -0.3145  0.7192
    1BTD    C78  528   7.706   1.492   3.944 -0.0092  0.3708 -0.1007
    1BTD    C79  529   7.617   1.391   4.317  0.5480 -0.4850 -0.1572
    1BTD    C80  530   7.478   1.331   4.294 -0.2962  0.6968  0.5787
    1BTD    C81  531   7.410   1.250   4.401  0.0582  0.7518 -0.0951
    1BTD    C82  532   7.320   1.144   4.342 -0.3493  0.4974 -0.1746
    2TTP     S1  533   8.421   1.462   4.600  0.0225  0.0987  0.1111
    2TTP     S5  534   8.241   1.095   4.466 -0.0954  0.1700  0.0738
    2TTP     C1  535   8.407   1.058   4.531 -0.2110  0.0717  0.3163
    2TTP     C2  536   8.472   1.169   4.576 -0.1814  0.0439  0.3421
    2TTP     C3  537   8.393   1.287   4.561 -0.0663  0.0992  0.1714
    2TTP     C4  538   8.255   1.499   4.535  0.1383  0.1970 -0.1315
    2TTP    C17  539   8.190   1.388   4.490  0.1087  0.2248 -0.1572
    2TTP    C18  540   8.268   1.269   4.505 -0.0064  0.1695  0.0136
    2TTP    C32  541   8.607   1.186   4.652  0.8666  0.2895  0.1643
    2TTP    C33  542   8.590   1.203   4.801 -0.5629 -0.3961  0.3729
    2TTP    C34  543   8.726   1.209   4.870 -0.1182 -0.2219  0.4149
    2TTP    C35  544   8.692   1.184   5.011  0.0006  0.8265 -0.4653
    2TTP    C36  545   8.793   1.233   5.116 -0.9441 -0.1294  0.2875
    2TTP    C37  546   8.840   1.379   5.116  0.5554  0.4883 -0.1924
    2TTP    C38  547   8.954   1.421   5.215 -0.1565 -0.1196  0.8351
    2TTP    C39  548   8.919   1.442   5.362  0.3063  0.3627  0.1806
    2TTP    C40  549   9.037   1.490   5.449  0.1522  0.6044 -0.0151
    2TTP    C41  550   9.001   1.533   5.591 -0.5169 -0.2233 -0.4821
    2TTP    C42  551   9.126   1.595   5.653 -0.4561  0.6399 -0.7612
    3TTP     S1  552   7.765   2.017   4.401  0.0139  0.2980  0.2163
    3TTP     S5  553   7.483   1.742   4.227  0.3164  0.2795 -0.2493
    3TTP     C1  554   7.416   1.911   4.214  0.2375  0.2541 -0.1779
    3TTP     C2  555   7.499   2.006   4.266  0.1394  0.2583 -0.0298
    3TTP     C3  556   7.619   1.949   4.320  0.1230  0.2818  0.0324
    3TTP     C4  557   7.832   1.849   4.415  0.0927  0.3235  0.1447
    3TTP    C17  558   7.749   1.754   4.362  0.1908  0.3193 -0.0031
    3TTP    C18  559   7.629   1.811   4.309  0.2072  0.2958 -0.0654
    3TTP    C32  560   7.482   2.157   4.255  0.0769  0.1700 -0.0121
    3TTP    C33  561   7.482   2.245   4.377 -0.3420 -0.4429 -0.2954
    3TTP    C34  562   7.435   2.383   4.337 -0.5779  0.0382 -0.3611
    3TTP    C35  563   7.383   2.471   4.449 -0.1657 -0.3909 -0.1081
    3TTP    C36  564   7.350   2.617   4.409 -0.1820  0.2705 -0.3190
    3TTP    C37  565   7.251   2.636   4.293  0.0607 -0.2828 -0.7732
    3TTP    C38  566   7.200   2.777   4.286 -0.2986  0.1291 -0.2449
    3TTP    C39  567   7.085   2.783   4.193  0.4761 -0.7808  0.1732
    3TTP    C40  568   7.015   2.917   4.191 -0.3405  0.2073 -0.0582
    3TTP    C41  569   6.895   2.914   4.102  0.1686 -0.6496  0.1827
    3TTP    C42  570   6.827   3.046   4.065 -0.2668  0.4085  0.3112
    4BIM     F1  571   8.257   0.337   4.178  0.2773 -0.2316 -0.0412
    4BIM     F2  572   8.386   0.218   4.387 -0.1001 -0.1600  0.2344
    4BIM     O1  573   8.322   0.860   4.303  0.4427 -0.1795 -0.3436
    4BIM     N5  574   8.617   0.420   4.775 -0.5252 -0.0200  0.4150
    4BIM     N6  575   8.641   0.853   4.830 -0.3197  0.0063  0.1230
    4BIM    C19  576   8.467   0.932   4.546  0.1408 -0.0926 -0.1879
    4BIM    C20  577   8.446   0.805   4.506  0.1140 -0.1085 -0.1224
    4BIM    C21  578   8.370   0.776   4.380  0.2766 -0.1535 -0.2099
    4BIM    C22  579   8.366   0.629   4.367  0.1986 -0.1604 -0.1060
    4BIM    C23  580   8.306   0.555   4.266  0.2949 -0.1973 -0.1360
    4BIM    C24  581   8.314   0.417   4.275  0.1908 -0.1962 -0.0193
    4BIM    C25  582   8.381   0.356   4.382 -0.0032 -0.1593  0.1226
    4BIM    C26  583   8.440   0.429   4.484 -0.1011 -0.1224  0.1533
    4BIM    C27  584   8.433   0.569   4.476  0.0021 -0.1229  0.0367
    4BIM    C28  585   8.485   0.675   4.566 -0.0575 -0.0895  0.0319
    4BIM    C29  586   8.556   0.656   4.683 -0.2375 -0.0488  0.1488
    4BIM    C30  587   8.589   0.526   4.733 -0.3951 -0.0331  0.2948
    4BIM    C31  588   8.602   0.764   4.763 -0.2816 -0.0187  0.1339
    5BIM     F1  589   6.934   1.527   3.668 -0.1872 -0.0397  0.1012
    5BIM     F2  590   6.767   1.742   3.672 -0.0154  0.0969  0.0157
    5BIM     O1  591   7.318   1.691   4.013 -0.0594 -0.2132  0.0421
    5BIM     N5  592   6.799   2.167   3.923  0.3228  0.1696 -0.1494
    5BIM     N6  593   7.132   2.252   4.192  0.3877  0.0064 -0.1785
    5BIM    C19  594   7.294   1.954   4.139  0.1502 -0.1444 -0.0607
    5BIM    C20  595   7.204   1.905   4.052  0.1113 -0.1061 -0.0424
    5BIM    C21  596   7.223   1.769   3.991  0.0030 -0.1454  0.0108
    5BIM    C22  597   7.108   1.746   3.902 -0.0145 -0.0877  0.0182
    5BIM    C23  598   7.082   1.634   3.824 -0.1036 -0.0973  0.0616
    5BIM    C24  599   6.966   1.635   3.747 -0.1017 -0.0342  0.0597
    5BIM    C25  600   6.880   1.746   3.750 -0.0130  0.0361  0.0155
    5BIM    C26  601   6.906   1.858   3.827  0.0761  0.0462 -0.0279
    5BIM    C27  602   7.022   1.858   3.905  0.0757 -0.0171 -0.0266
    5BIM    C28  603   7.078   1.960   3.998  0.1564 -0.0256 -0.0657
    5BIM    C29  604   7.022   2.083   4.027  0.2544  0.0304 -0.1141
    5BIM    C30  605   6.900   2.129   3.970  0.2917  0.1068 -0.1333
    5BIM    C31  606   7.083   2.175   4.117  0.3272  0.0169 -0.1493
    1BTD     S2  607   6.120   2.319   6.115  0.1219 -0.2145  0.0523
    1BTD     N1  608   5.973   2.339   6.014  0.1742 -0.2653 -0.0347
    1BTD     N2  609   6.101   2.141   6.134  0.1614 -0.2183  0.0570
    1BTD     N3  610   5.795   1.815   5.990  0.3364 -0.3178 -0.0902
    1BTD     N4  611   5.637   2.059   5.842  0.3524 -0.3757 -0.2034
    1BTD     C5  612   5.799   2.190   5.926  0.2670 -0.3222 -0.1214
    1BTD     C6  613   5.919   2.218   6.000  0.2164 -0.2816 -0.0548
    1BTD     C7  614   5.991   2.108   6.067  0.2091 -0.2553 -0.0032
    1BTD     C8  615   5.939   1.974   6.057  0.2530 -0.2710 -0.0212
    1BTD    C15  616   5.821   1.951   5.983  0.3019 -0.3109 -0.0873
    1BTD    C16  617   5.752   2.057   5.919  0.3089 -0.3362 -0.1367
    1BTD    C43  618   5.514   1.987   5.876  0.6243 -0.3899 -0.2926
    1BTD    C44  619   5.389   1.946   5.800 -0.5406 -0.3510 -0.5071
    1BTD    C45  620   5.288   1.870   5.888 -0.3686  0.5753  1.3729
    1BTD    C46  621   5.232   1.943   6.005  0.0948  0.6281 -0.2176
    1BTD    C47  622   5.420   1.861   5.668  0.2224  0.1734 -0.7694
    1BTD    C48  623   5.292   1.837   5.585 -0.1390  0.5651  0.1771
    1BTD    C49  624   5.326   1.827   5.434 -0.6404  0.1686 -0.8634
    1BTD    C50  625   5.195   1.813   5.349 -0.1862  0.4014 -0.1675
    1BTD    C75  626   5.727   1.733   5.884 -0.8084 -0.6171 -0.4747
    1BTD    C76  627   5.661   1.605   5.934 -0.0969 -0.3474  0.2570
    1BTD    C77  628   5.532   1.622   6.015 -0.2201 -0.9241  0.2957
    1BTD    C78  629   5.549   1.671   6.154  0.3419  0.1992 -0.4314
    1BTD    C79  630   5.633   1.517   5.810 -0.0036 -1.0261 -0.0178
    1BTD    C80  631   5.598   1.374   5.854 -0.0158  0.4621  0.1327
    1BTD    C81  632   5.613   1.265   5.752 -0.0184 -0.1490  0.7275
    1BTD    C82  633   5.588   1.129   5.816 -0.2494  0.0608  0.0772
    2TTP     S1  634   5.700   2.439   5.791 -0.0182 -0.0382 -0.0324
    2TTP     S5  635   5.390   2.211   5.601  0.0696 -0.1663 -0.0219
    2TTP     C1  636   5.377   2.383   5.546 -0.0916 -0.1424  0.0881
    2TTP     C2  637   5.472   2.464   5.601 -0.1280 -0.1016  0.0912
    2TTP     C3  638   5.559   2.393   5.689 -0.0302 -0.0875  0.0072
    2TTP     C4  639   5.713   2.267   5.847  0.1432 -0.0620 -0.1422
    2TTP    C17  640   5.618   2.186   5.791  0.1794 -0.1030 -0.1456
    2TTP    C18  641   5.532   2.257   5.703  0.0815 -0.1171 -0.0613
    2TTP    C32  642   5.505   2.611   5.572 -0.1826 -0.6955 -0.2900
    2TTP    C33  643   5.462   2.712   5.685  0.1520  0.0299  0.4111
    2TTP    C34  644   5.543   2.840   5.688  0.0868 -0.2630 -0.1769
    2TTP    C35  645   5.686   2.828   5.739 -0.2094 -0.4001 -0.3255
    2TTP    C36  646   5.758   2.961   5.764  0.1616  0.9242 -0.0283
    2TTP    C37  647   5.900   2.934   5.813  0.7039  0.7783 -0.1494
    2TTP    C38  648   5.986   3.055   5.842  0.1409  0.3452  0.7029
    2TTP    C39  649   5.989   3.166   5.736 -0.1105  0.4320 -0.5931
    2TTP    C40  650   6.078   3.280   5.791 -0.4822  0.2016  0.9488
    2TTP    C41  651   6.086   3.401   5.702 -0.3073 -0.0222  0.0344
    2TTP    C42  652   6.154   3.520   5.764 -0.1418 -0.4165 -0.9386
    3TTP     S1  653   6.105   1.803   6.231 -0.0955  0.2755 -0.0366
    3TTP     S5  654   5.866   1.462   6.124 -0.0277  0.2212 -0.0144
    3TTP     C1  655   5.992   1.409   6.244 -0.1463  0.2958  0.1440
    3TTP     C2  656   6.074   1.512   6.284 -0.1743  0.3169  0.1466
    3TTP     C3  657   6.039   1.635   6.222 -0.1029  0.2750  0.0235
    3TTP     C4  658   5.979   1.856   6.111  0.0232  0.2010 -0.1949
    3TTP    C17  659   5.898   1.754   6.071  0.0513  0.1798 -0.1976
    3TTP    C18  660   5.932   1.630   6.134 -0.0200  0.2217 -0.0743
    3TTP    C32  661   6.200   1.511   6.368 -0.1267 -0.5224 -0.2090
    3TTP    C33  662   6.329   1.474   6.288  0.6273 -0.1823 -0.0621
    3TTP    C34  663   6.457   1.505   6.368 -0.3368  0.2407  0.2730
    3TTP    C35  664   6.589   1.461   6.292  0.2192 -0.4493  0.6548
    3TTP    C36  665   6.599   1.308   6.267 -0.2879 -0.0819 -0.2653
    3TTP    C37  666   6.593   1.209   6.381 -0.1127  0.3778  0.1824
    3TTP    C38  667   6.633   1.069   6.338  0.4425  0.4535  0.3499
    3TTP    C39  668   6.698   0.991   6.450 -1.1286 -0.1535 -0.3178
    3TTP    C40  669   6.728   0.844   6.427  0.1800 -0.2894 -0.3572
    3TTP    C41  670   6.846   0.797   6.352  0.4412  0.1961  0.2817
    3TTP    C42  671   6.844   0.642   6.360 -0.7021 -0.8378  0.1342
    4BIM     F1  672   4.887   2.013   5.001 -0.1738 -0.0407 -0.0895
    4BIM     F2  673   4.749   2.246   4.979 -0.1391 -0.0048  0.0663
    4BIM     O1  674   5.279   2.158   5.346  0.0272 -0.2465 -0.2309
    4BIM     N5  675   4.830   2.685   5.192  0.0541 -0.1001  0.1895
    4BIM     N6  676   5.164   2.752   5.466  0.2042 -0.2680  0.0477
    4BIM    C19  677   5.286   2.433   5.447  0.1320 -0.2853 -0.1321
    4BIM    C20  678   5.193   2.387   5.361  0.0800 -0.2350 -0.1028
    4BIM    C21  679   5.196   2.244   5.313  0.0281 -0.2180 -0.1572
    4BIM    C22  680   5.081   2.228   5.222 -0.0209 -0.1612 -0.1062
    4BIM    C23  681   5.043   2.113   5.153 -0.0780 -0.1280 -0.1297
    4BIM    C24  682   4.931   2.122   5.072 -0.1167 -0.0757 -0.0705
    4BIM    C25  683   4.860   2.243   5.061 -0.0987 -0.0573  0.0097
    4BIM    C26  684   4.897   2.358   5.129 -0.0420 -0.0901  0.0337
    4BIM    C27  685   5.011   2.351   5.211 -0.0019 -0.1433 -0.0254
    4BIM    C28  686   5.077   2.453   5.296  0.0607 -0.1879 -0.0201
    4BIM    C29  687   5.037   2.584   5.312  0.0944 -0.1860  0.0482
    4BIM    C30  688   4.923   2.639   5.246  0.0721 -0.1387  0.1258
    4BIM    C31  689   5.107   2.675   5.397  0.1546 -0.2311  0.0477
    5BIM     F1  690   5.745   0.642   6.086 -0.5614  0.1339  0.2024
    5BIM     F2  691   5.873   0.561   6.311  0.2551 -0.0716 -0.3266
    5BIM     O1  692   5.858   1.172   6.088 -0.8256  0.1899  0.4439
    5BIM     N5  693   6.138   0.822   6.638  1.2407 -0.3270 -0.9149
    5BIM     N6  694   6.200   1.252   6.594  0.8698 -0.2419 -0.6196
    5BIM    C19  695   6.020   1.283   6.304 -0.1392  0.0135  0.0243
    5BIM    C20  696   5.987   1.153   6.295 -0.1048  0.0074 -0.0157
    5BIM    C21  697   5.903   1.103   6.180 -0.4718  0.1016  0.2100
    5BIM    C22  698   5.885   0.958   6.201 -0.3273  0.0680  0.0985
    5BIM    C23  699   5.815   0.869   6.121 -0.5571  0.1281  0.2314
    5BIM    C24  700   5.812   0.736   6.160 -0.3531  0.0791  0.0834
    5BIM    C25  701   5.879   0.695   6.277  0.0677 -0.0268 -0.1889
    5BIM    C26  702   5.949   0.783   6.357  0.2987 -0.0873 -0.3232
    5BIM    C27  703   5.953   0.918   6.319  0.0974 -0.0390 -0.1768
    5BIM    C28  704   6.018   1.036   6.381  0.2511 -0.0804 -0.2576
    5BIM    C29  705   6.092   1.037   6.497  0.6472 -0.1810 -0.5088
    5BIM    C30  706   6.117   0.919   6.574  0.9722 -0.2609 -0.7313
    5BIM    C31  707   6.151   1.155   6.550  0.7674 -0.2139 -0.5684
    1BTD     S2  708   1.250   8.915   0.557 -0.3720  0.0247  0.1129
    1BTD     N1  709   1.073   8.946   0.553 -0.3794 -0.0255  0.0505
    1BTD     N2  710   1.236   8.742   0.511 -0.3050  0.0277  0.0813
    1BTD     N3  711   0.887   8.444   0.411 -0.1818 -0.0577 -0.0959
    1BTD     N4  712   0.687   8.695   0.463 -0.2735 -0.1230 -0.1339
    1BTD     C5  713   0.874   8.812   0.505 -0.3230 -0.0758 -0.0453
    1BTD     C6  714   1.016   8.831   0.520 -0.3339 -0.0372  0.0113
    1BTD     C7  715   1.107   8.717   0.496 -0.2922 -0.0076  0.0286
    1BTD     C8  716   1.052   8.589   0.460 -0.2417 -0.0179 -0.0117
    1BTD    C15  717   0.912   8.575   0.447 -0.2329 -0.0559 -0.0666
    1BTD    C16  718   0.824   8.685   0.470 -0.2730 -0.0850 -0.0833
    1BTD    C43  719   0.607   8.631   0.355  0.1103 -0.3306  0.0534
    1BTD    C44  720   0.457   8.596   0.384 -0.0217 -0.6960  0.6478
    1BTD    C45  721   0.384   8.543   0.259 -0.2919 -0.1155  0.0489
    1BTD    C46  722   0.415   8.616   0.128 -0.0027  0.3825 -0.5297
    1BTD    C47  723   0.431   8.507   0.507  0.9904  0.0247 -0.0698
    1BTD    C48  724   0.281   8.487   0.548  0.4426 -0.4512  0.5284
    1BTD    C49  725   0.264   8.380   0.653  0.1156 -0.6159  0.1345
    1BTD    C50  726   0.304   8.412   0.799  0.4241 -0.1350  0.5858
    1BTD    C75  727   0.769   8.368   0.466  0.3641  0.2276  0.2192
    1BTD    C76  728   0.712   8.241   0.402  0.6224  0.0583 -0.2389
    1BTD    C77  729   0.657   8.250   0.263  0.0549  0.6182  0.4679
    1BTD    C78  730   0.607   8.124   0.194 -0.6964  0.2561  0.4562
    1BTD    C79  731   0.626   8.171   0.507  0.4153 -0.0025  0.3996
    1BTD    C80  732   0.693   8.105   0.626 -0.4328  1.2353 -0.4748
    1BTD    C81  733   0.601   8.074   0.742  0.2732  0.2780 -0.6423
    1BTD    C82  734   0.662   8.004   0.864 -0.3193 -0.2476 -0.6132
    2TTP     S1  735   0.730   9.067   0.586 -0.0555  0.1209  0.0035
    2TTP     S5  736   0.354   8.862   0.542  0.0151  0.0749 -0.3975
    2TTP     C1  737   0.322   9.031   0.601 -0.0541  0.0013 -0.2245
    2TTP     C2  738   0.436   9.104   0.618 -0.0800  0.0112 -0.0905
    2TTP     C3  739   0.553   9.029   0.585 -0.0461  0.0772 -0.1195
    2TTP     C4  740   0.763   8.898   0.526  0.0137  0.1948 -0.1695
    2TTP    C17  741   0.649   8.825   0.510  0.0396  0.1845 -0.3035
    2TTP    C18  742   0.531   8.899   0.543  0.0057  0.1187 -0.2744
    2TTP    C32  743   0.447   9.243   0.674  0.0437  0.3249  0.4515
    2TTP    C33  744   0.493   9.347   0.580 -0.0134  0.5355 -0.7803
    2TTP    C34  745   0.547   9.473   0.638  0.9742 -0.7430  0.3509
    2TTP    C35  746   0.604   9.562   0.531 -0.2490 -0.0220 -0.2165
    2TTP    C36  747   0.613   9.708   0.583 -0.1236 -0.3563  0.0486
    2TTP    C37  748   0.702   9.795   0.505  0.2891  0.1371  0.4208
    2TTP    C38  749   0.685   9.941   0.564 -0.6917 -0.1330  0.0845
    2TTP    C39  750   0.805  10.030   0.518  0.6255 -0.1431 -0.0653
    2TTP    C40  751   0.792  10.161   0.602 -0.6055 -0.4134 -0.4130
    2TTP    C41  752   0.920  10.247   0.622  0.1654  0.4463  0.4216
    2TTP    C42  753   0.890  10.385   0.681 -0.1321  0.6154 -0.3184
    3TTP     S1  754   1.277   8.401   0.386  0.1038  0.0832 -0.1363
    3TTP     S5  755   0.984   8.126   0.233  0.2481 -0.2189  0.1289
    3TTP     C1  756   1.149   8.068   0.184  0.2739 -0.1415  0.1245
    3TTP     C2  757   1.249   8.150   0.228  0.2308 -0.0434  0.0424
    3TTP     C3  758   1.199   8.261   0.303  0.1760 -0.0262 -0.0201
    3TTP     C4  759   1.111   8.459   0.436  0.0780  0.0057 -0.1319
    3TTP    C17  760   1.011   8.377   0.391  0.1211 -0.0920 -0.0497
    3TTP    C18  761   1.061   8.266   0.317  0.1759 -0.1097  0.0127
    3TTP    C32  762   1.399   8.130   0.203 -0.0592  1.0262  0.0669
    3TTP    C33  763   1.469   8.230   0.105  0.1376 -0.3471 -0.8034
    3TTP    C34  764   1.413   8.245  -0.038  0.3069  0.2808 -0.1173
    3TTP    C35  765   1.450   8.367  -0.118 -0.3619  0.6285  0.4841
    3TTP    C36  766   1.602   8.362  -0.159  0.1815 -0.1935  0.0759
    3TTP    C37  767   1.660   8.459  -0.265  0.2715  0.2247 -0.2340
    3TTP    C38  768   1.639   8.609  -0.239  0.4178 -0.4579 -0.7120
    3TTP    C39  769   1.703   8.681  -0.117  0.1649  0.5492  0.1158
    3TTP    C40  770   1.652   8.825  -0.100 -1.0415 -0.2523  0.0383
    3TTP    C41  771   1.754   8.908  -0.019  0.1619 -0.0952  0.6857
    3TTP    C42  772   1.776   9.050  -0.064 -0.2543 -0.7030 -0.5008
    4BIM     F1  773  -0.439   8.735   0.707  0.2196 -0.1287  0.0339
    4BIM     F2  774  -0.530   8.991   0.715  0.1457 -0.1366 -0.4811
    4BIM     O1  775   0.092   8.817   0.639  0.2408 -0.1070  0.2254
    4BIM     N5  776  -0.283   9.418   0.679  0.0544 -0.1335 -1.0849
    4BIM     N6  777   0.150   9.431   0.625  0.0856 -0.1149 -0.8314
    4BIM    C19  778   0.193   9.091   0.623  0.1775 -0.1072 -0.1985
    4BIM    C20  779   0.063   9.061   0.640  0.1751 -0.1125 -0.2266
    4BIM    C21  780   0.019   8.917   0.647  0.2089 -0.1118  0.0006
    4BIM    C22  781  -0.127   8.920   0.666  0.1965 -0.1183 -0.0969
    4BIM    C23  782  -0.213   8.811   0.678  0.2179 -0.1199  0.0424
    4BIM    C24  783  -0.348   8.838   0.694  0.2003 -0.1263 -0.0919
    4BIM    C25  784  -0.395   8.970   0.698  0.1617 -0.1306 -0.3572
    4BIM    C26  785  -0.310   9.079   0.686  0.1404 -0.1287 -0.4974
    4BIM    C27  786  -0.173   9.054   0.670  0.1581 -0.1223 -0.3647
    4BIM    C28  787  -0.058   9.146   0.654  0.1433 -0.1190 -0.4550
    4BIM    C29  788  -0.062   9.283   0.653  0.1073 -0.1216 -0.7029
    4BIM    C30  789  -0.184   9.357   0.667  0.0782 -0.1280 -0.9121
    4BIM    C31  790   0.055   9.364   0.637  0.0955 -0.1183 -0.7721
    5BIM     F1  791   0.687   7.490  -0.172  0.0757  0.0206 -0.0224
    5BIM     F2  792   0.907   7.330  -0.180  0.0797  0.0224  0.0517
    5BIM     O1  793   0.896   7.940   0.045  0.0410  0.0888 -0.1306
    5BIM     N5  794   1.372   7.420  -0.036  0.0607  0.0736  0.0813
    5BIM     N6  795   1.491   7.804   0.135  0.0328  0.1265 -0.0182
    5BIM    C19  796   1.180   7.947   0.115  0.0326  0.1148 -0.0982
    5BIM    C20  797   1.119   7.840   0.060  0.0411  0.0975 -0.0738
    5BIM    C21  798   0.972   7.844   0.028  0.0450  0.0850 -0.0928
    5BIM    C22  799   0.939   7.712  -0.030  0.0544  0.0675 -0.0579
    5BIM    C23  800   0.814   7.669  -0.075  0.0607  0.0517 -0.0598
    5BIM    C24  801   0.807   7.540  -0.125  0.0692  0.0367 -0.0223
    5BIM    C25  802   0.920   7.457  -0.129  0.0712  0.0377  0.0158
    5BIM    C26  803   1.044   7.500  -0.084  0.0650  0.0533  0.0179
    5BIM    C27  804   1.054   7.631  -0.033  0.0563  0.0688 -0.0196
    5BIM    C28  805   1.169   7.706   0.022  0.0483  0.0873 -0.0279
    5BIM    C29  806   1.298   7.659   0.036  0.0476  0.0933  0.0014
    5BIM    C30  807   1.338   7.528  -0.004  0.0548  0.0825  0.0453
    5BIM    C31  808   1.403   7.739   0.090  0.0395  0.1116 -0.0096
    1BTD     S2  809   6.476   9.038   3.935 -0.0672  0.1936 -0.0602
    1BTD     N1  810   6.457   9.217   3.923  0.2087  0.2055 -0.3225
    1BTD     N2  811   6.628   9.046   4.031 -0.2024  0.0994  0.1620
    1BTD     N3  812   6.903   9.384   4.206  0.0207 -0.0701  0.1408
    1BTD     N4  813   6.693   9.594   4.072  0.5271  0.0598 -0.4563
    1BTD     C5  814   6.583   9.411   4.002  0.3688  0.1278 -0.3852
    1BTD     C6  815   6.560   9.270   3.988  0.1872  0.1421 -0.2356
    1BTD     C7  816   6.655   9.175   4.049 -0.0430  0.0827  0.0356
    1BTD     C8  817   6.769   9.225   4.121 -0.0799  0.0124  0.1436
    1BTD    C15  818   6.788   9.364   4.132  0.1032  0.0012 -0.0100
    1BTD    C16  819   6.696   9.456   4.074  0.3250  0.0583 -0.2712
    1BTD    C43  820   6.807   9.681   4.063 -0.2466 -0.0119 -0.4029
    1BTD    C44  821   6.812   9.830   4.111  0.1955 -0.3189  0.2263
    1BTD    C45  822   6.956   9.892   4.079 -0.1826  0.2462  0.0481
    1BTD    C46  823   7.002   9.901   3.937  0.3898 -0.0661  0.1279
    1BTD    C47  824   6.759   9.855   4.252 -0.1465  0.5759  0.2609
    1BTD    C48  825   6.755  10.002   4.298 -0.2573  0.1263 -0.5333
    1BTD    C49  826   6.688  10.007   4.428  0.0767  0.1575 -0.2730
    1BTD    C50  827   6.689  10.135   4.505  0.2228 -0.9926 -0.1586
    1BTD    C75  828   6.919   9.488   4.313  0.6338 -0.6686  0.3772
    1BTD    C76  829   7.049   9.542   4.366 -0.3785  0.1396 -0.2486
    1BTD    C77  830   7.043   9.605   4.501  0.4334 -0.8240 -0.2056
    1BTD    C78  831   6.990   9.754   4.516  0.0082  0.1072 -0.8216
    1BTD    C79  832   7.146   9.608   4.262  0.1936 -0.3362 -0.0298
    1BTD    C80  833   7.290   9.638   4.309 -0.4594 -0.0988  0.1071
    1BTD    C81  834   7.390   9.695   4.215 -0.3684  0.2956  0.1580
    1BTD    C82  835   7.530   9.725   4.268 -0.4126  0.6578  0.1340
    2TTP     S1  836   6.358   9.561   3.873 -0.0176  0.0592  0.1147
    2TTP     S5  837   6.522   9.929   4.023  0.2949  0.0191 -0.1260
    2TTP     C1  838   6.361   9.964   3.944  0.2510  0.0794 -0.0096
    2TTP     C2  839   6.301   9.853   3.893  0.1519  0.0953  0.0715
    2TTP     C3  840   6.380   9.735   3.915  0.1070  0.0605  0.0448
    2TTP     C4  841   6.518   9.525   3.951  0.0262 -0.0011 -0.0016
    2TTP    C17  842   6.578   9.637   4.002  0.1253 -0.0170 -0.0826
    2TTP    C18  843   6.500   9.754   3.981  0.1702  0.0178 -0.0560
    2TTP    C32  844   6.162   9.837   3.824 -0.2303  0.0398 -0.3148
    2TTP    C33  845   6.174   9.829   3.671  0.6635 -0.0929  0.1404
    2TTP    C34  846   6.039   9.802   3.602  0.5051 -0.6652 -0.3292
    2TTP    C35  847   6.037   9.823   3.446  0.2075 -0.2668 -0.7420
    2TTP    C36  848   5.900   9.838   3.390  0.1784  0.1087 -0.4791
    2TTP    C37  849   5.872   9.873   3.247  0.5021  0.1131 -0.5511
    2TTP    C38  850   5.727   9.859   3.215  0.2795 -0.1524 -0.2587
    2TTP    C39  851   5.692   9.907   3.077  0.2429 -0.3245  0.6139
    2TTP    C40  852   5.545   9.883   3.030 -0.5335  0.0514 -0.0804
    2TTP    C41  853   5.502   9.956   2.907  0.0845 -0.5073 -0.3549
    2TTP    C42  854   5.568   9.893   2.781 -0.1314 -0.0746  0.7713
    3TTP     S1  855   6.961   8.999   4.195  0.2025  0.0857  0.1925
    3TTP     S5  856   7.255   9.286   4.321  0.2354  0.2360 -0.2238
    3TTP     C1  857   7.329   9.120   4.330  0.2659  0.2543 -0.1297
    3TTP     C2  858   7.242   9.022   4.292  0.2574  0.2091  0.0044
    3TTP     C3  859   7.115   9.074   4.254  0.2266  0.1581  0.0377
    3TTP     C4  860   6.887   9.166   4.187  0.1720  0.0677  0.0985
    3TTP    C17  861   6.974   9.264   4.225  0.1804  0.1127 -0.0357
    3TTP    C18  862   7.101   9.212   4.263  0.2112  0.1633 -0.0690
    3TTP    C32  863   7.271   8.868   4.280  0.3711 -0.0053 -0.1508
    3TTP    C33  864   7.214   8.781   4.399 -0.4417 -0.1783  0.5898
    3TTP    C34  865   7.254   8.636   4.402 -0.1667  0.1813 -0.1799
    3TTP    C35  866   7.159   8.560   4.490 -0.0895  0.2446  0.4083
    3TTP    C36  867   7.208   8.415   4.523  0.3370  0.2373  0.5708
    3TTP    C37  868   7.106   8.306   4.563  0.1415  0.2401  0.9337
    3TTP    C38  869   6.976   8.287   4.482  0.1728  0.3517  0.5890
    3TTP    C39  870   6.883   8.181   4.542 -0.0516 -0.0033 -0.2129
    3TTP    C40  871   6.776   8.131   4.445 -0.2344  1.1290  0.2546
    3TTP    C41  872   6.656   8.060   4.522 -0.0649  0.2351 -0.1440
    3TTP    C42  873   6.542   8.012   4.435  0.1962 -0.0243 -0.3104
    4BIM     F1  874   6.573  10.730   4.166 -0.2446  0.0205 -0.0544
    4BIM     F2  875   6.422  10.822   3.959 -0.2445 -0.1129 -0.1144
    4BIM     O1  876   6.485  10.197   4.127  0.0011 -0.0315  0.0980
    4BIM     N5  877   6.142  10.575   3.635 -0.0691 -0.3418 -0.0920
    4BIM     N6  878   6.103  10.140   3.646  0.1228 -0.3555  0.0392
    4BIM    C19  879   6.309  10.096   3.916  0.0885 -0.1774  0.0947
    4BIM    C20  880   6.337  10.226   3.934  0.0267 -0.1591  0.0587
    4BIM    C21  881   6.429  10.271   4.045 -0.0154 -0.0829  0.0631
    4BIM    C22  882   6.438  10.417   4.036 -0.0792 -0.0818  0.0179
    4BIM    C23  883   6.511  10.503   4.117 -0.1339 -0.0231  0.0052
    4BIM    C24  884   6.504  10.639   4.089 -0.1889 -0.0352 -0.0396
    4BIM    C25  885   6.426  10.686   3.983 -0.1885 -0.1040 -0.0704
    4BIM    C26  886   6.352  10.601   3.901 -0.1341 -0.1628 -0.0579
    4BIM    C27  887   6.358  10.464   3.928 -0.0781 -0.1516 -0.0128
    4BIM    C28  888   6.294  10.348   3.861 -0.0130 -0.2019  0.0111
    4BIM    C29  889   6.209  10.353   3.753  0.0066 -0.2742 -0.0075
    4BIM    C30  890   6.173  10.475   3.688 -0.0352 -0.3111 -0.0539
    4BIM    C31  891   6.152  10.236   3.695  0.0703 -0.3185  0.0183
    5BIM     F1  892   8.015   9.573   4.353  0.1054  0.0484  0.2848
    5BIM     F2  893   8.145   9.359   4.459  0.1550 -0.0024  0.1214
    5BIM     O1  894   7.518   9.368   4.284  0.1566 -0.0179  0.1131
    5BIM     N5  895   7.979   8.904   4.561  0.2619 -0.1216 -0.2358
    5BIM     N6  896   7.565   8.787   4.486  0.2917 -0.1628 -0.3371
    5BIM    C19  897   7.467   9.090   4.360  0.2216 -0.0892 -0.1041
    5BIM    C20  898   7.586   9.150   4.374  0.2069 -0.0706 -0.0544
    5BIM    C21  899   7.605   9.293   4.332  0.1734 -0.0339  0.0573
    5BIM    C22  900   7.746   9.327   4.360  0.1647 -0.0215  0.0868
    5BIM    C23  901   7.811   9.448   4.338  0.1360  0.0110  0.1826
    5BIM    C24  902   7.945   9.456   4.372  0.1334  0.0167  0.1921
    5BIM    C25  903   8.012   9.345   4.427  0.1587 -0.0092  0.1079
    5BIM    C26  904   7.948   9.224   4.449  0.1875 -0.0415  0.0118
    5BIM    C27  905   7.812   9.214   4.415  0.1906 -0.0479  0.0008
    5BIM    C28  906   7.717   9.101   4.425  0.2174 -0.0794 -0.0893
    5BIM    C29  907   7.744   8.975   4.474  0.2469 -0.1104 -0.1863
    5BIM    C30  908   7.873   8.936   4.522  0.2550 -0.1166 -0.2133
    5BIM    C31  909   7.645   8.872   4.480  0.2713 -0.1390 -0.2687
    1BTD     S2  910   4.002   4.305   3.287 -0.0133  0.1537  0.1086
    1BTD     N1  911   4.180   4.281   3.302 -0.0075  0.2286  0.1639
    1BTD     N2  912   4.016   4.444   3.174 -0.0428 -0.0026 -0.0904
    1BTD     N3  913   4.364   4.686   2.972 -0.0927 -0.1854 -0.3963
    1BTD     N4  914   4.566   4.484   3.129 -0.0495  0.0997 -0.0829
    1BTD     C5  915   4.379   4.389   3.210 -0.0299  0.1578  0.0313
    1BTD     C6  916   4.237   4.373   3.226 -0.0271  0.1382  0.0377
    1BTD     C7  917   4.145   4.465   3.155 -0.0467  0.0087 -0.1047
    1BTD     C8  918   4.200   4.568   3.071 -0.0683 -0.0945 -0.2463
    1BTD    C15  919   4.340   4.580   3.058 -0.0706 -0.0707 -0.2470
    1BTD    C16  920   4.428   4.491   3.126 -0.0515  0.0538 -0.1100
    1BTD    C43  921   4.666   4.588   3.084 -0.2401 -0.1297  0.6773
    1BTD    C44  922   4.807   4.553   3.025  0.3372 -0.3622 -0.2059
    1BTD    C45  923   4.913   4.666   3.025 -0.2951  0.7751 -0.1642
    1BTD    C46  924   5.055   4.624   2.997  0.0608  0.0689  0.1667
    1BTD    C47  925   4.799   4.469   2.894  0.4321 -0.6209  0.0827
    1BTD    C48  926   4.744   4.328   2.914 -0.2627  0.6937  0.3372
    1BTD    C49  927   4.854   4.224   2.958  0.4083  0.5134  0.7894
    1BTD    C50  928   4.786   4.090   2.993  0.2105  0.2727  0.3884
    1BTD    C75  929   4.447   4.672   2.848  0.3001 -0.6480  0.5360
    1BTD    C76  930   4.503   4.801   2.775  0.8107  0.6097  0.7148
    1BTD    C77  931   4.582   4.892   2.869 -0.4864  0.3797 -0.1881
    1BTD    C78  932   4.625   5.031   2.828  0.2125 -0.0166 -0.3236
    1BTD    C79  933   4.561   4.773   2.634 -0.2026  0.4612  0.0996
    1BTD    C80  934   4.693   4.690   2.637  0.5379  0.0176  0.0141
    1BTD    C81  935   4.794   4.717   2.522  0.5221  0.4910 -0.5567
    1BTD    C82  936   4.922   4.674   2.585  0.4582 -0.0164 -0.4342
    2TTP     S1  937   4.522   4.201   3.398 -0.1138 -0.0682 -0.0976
    2TTP     S5  938   4.888   4.406   3.305 -0.0436 -0.1209  0.0640
    2TTP     C1  939   4.920   4.291   3.442 -0.1557 -0.0175  0.1772
    2TTP     C2  940   4.808   4.221   3.479 -0.1842  0.0050  0.1339
    2TTP     C3  941   4.694   4.256   3.400 -0.1181 -0.0588  0.0098
    2TTP     C4  942   4.491   4.317   3.261 -0.0018 -0.1717 -0.2108
    2TTP    C17  943   4.602   4.387   3.224  0.0264 -0.1941 -0.1676
    2TTP    C18  944   4.716   4.352   3.303 -0.0393 -0.1303 -0.0435
    2TTP    C32  945   4.814   4.110   3.586 -0.2107 -0.1448 -0.2378
    2TTP    C33  946   4.766   3.974   3.548  0.4086 -0.1529 -0.8667
    2TTP    C34  947   4.876   3.909   3.478 -0.2212  0.5601 -0.0148
    2TTP    C35  948   4.860   3.759   3.435 -0.1483  0.2643 -0.0618
    2TTP    C36  949   4.727   3.713   3.383 -0.0270 -0.1920  0.6143
    2TTP    C37  950   4.747   3.584   3.319 -0.7329  0.3923 -0.0111
    2TTP    C38  951   4.639   3.538   3.225 -0.2345  0.3159 -0.2362
    2TTP    C39  952   4.617   3.616   3.094 -0.0956 -0.2391 -0.3246
    2TTP    C40  953   4.478   3.593   3.036  0.9512 -0.2010 -0.0771
    2TTP    C41  954   4.354   3.602   3.127 -0.2686  0.2396 -0.3039
    2TTP    C42  955   4.239   3.518   3.066 -0.3377  0.0173 -0.3538
    3TTP     S1  956   3.982   4.751   2.994  0.0557  0.1164  0.1152
    3TTP     S5  957   4.272   5.027   2.839  0.0620  0.1637  0.2111
    3TTP     C1  958   4.109   5.108   2.838  0.0990  0.2419  0.4367
    3TTP     C2  959   4.010   5.027   2.886  0.0993  0.2319  0.4205
    3TTP     C3  960   4.059   4.899   2.925  0.0703  0.1622  0.2291
    3TTP     C4  961   4.145   4.670   2.995  0.0187  0.0383 -0.1104
    3TTP    C17  962   4.244   4.750   2.947  0.0184  0.0482 -0.0941
    3TTP    C18  963   4.195   4.879   2.908  0.0474  0.1180  0.0972
    3TTP    C32  964   3.864   5.065   2.899 -0.2072  0.6031 -0.1531
    3TTP    C33  965   3.779   4.996   2.785  0.0200 -0.1358 -0.6268
    3TTP    C34  966   3.624   5.010   2.796 -0.3365  0.6404  0.0865
    3TTP    C35  967   3.551   4.951   2.916  0.6463 -0.1489  0.6264
    3TTP    C36  968   3.539   4.800   2.923 -0.4332  0.4088 -0.0850
    3TTP    C37  969   3.478   4.751   3.059  0.2678  0.3124 -0.0946
    3TTP    C38  970   3.468   4.595   3.067  0.0136  0.2957 -0.2730
    3TTP    C39  971   3.376   4.552   3.180 -0.4324  0.2085 -0.6263
    3TTP    C40  972   3.339   4.400   3.184 -0.9089  0.2082 -0.1642
    3TTP    C41  973   3.470   4.311   3.170  0.2421 -0.4852  0.4809
    3TTP    C42  974   3.436   4.165   3.171 -0.5762  0.8256 -0.1221
    4BIM     F1  975   5.601   4.745   3.464 -0.0007  0.2297  0.4071
    4BIM     F2  976   5.713   4.561   3.631  0.1642 -0.1330 -0.0969
    4BIM     O1  977   5.110   4.530   3.389 -0.1078  0.4416  0.5022
    4BIM     N5  978   5.523   4.144   3.818  0.3248 -0.5033 -0.7538
    4BIM     N6  979   5.116   4.013   3.725  0.2078 -0.2648 -0.5779
    4BIM    C19  980   5.042   4.278   3.522  0.0117  0.1703  0.0544
    4BIM    C20  981   5.161   4.339   3.534  0.0323  0.1312  0.0502
    4BIM    C21  982   5.189   4.469   3.463 -0.0328  0.2780  0.2883
    4BIM    C22  983   5.326   4.507   3.498  0.0105  0.1894  0.2168
    4BIM    C23  984   5.396   4.620   3.455 -0.0240  0.2705  0.3738
    4BIM    C24  985   5.526   4.635   3.502  0.0292  0.1586  0.2630
    4BIM    C25  986   5.583   4.541   3.588  0.1140 -0.0283  0.0033
    4BIM    C26  987   5.514   4.428   3.630  0.1488 -0.1099 -0.1544
    4BIM    C27  988   5.383   4.411   3.584  0.0958  0.0011 -0.0457
    4BIM    C28  989   5.283   4.304   3.610  0.1128 -0.0422 -0.1584
    4BIM    C29  990   5.301   4.193   3.690  0.1885 -0.2106 -0.4083
    4BIM    C30  991   5.423   4.166   3.760  0.2631 -0.3710 -0.5975
    4BIM    C31  992   5.199   4.095   3.709  0.1987 -0.2394 -0.5002
    5BIM     F1  993   4.575   5.775   2.741  0.0293  0.1669 -0.1293
    5BIM     F2  994   4.358   5.908   2.644 -0.0372  0.1744  0.0278
    5BIM     O1  995   4.360   5.289   2.845  0.1364  0.1115 -0.1683
    5BIM     N5  996   3.894   5.751   2.576 -0.0563  0.1456  0.2258
    5BIM     N6  997   3.770   5.344   2.676  0.0407  0.1009  0.1638
    5BIM    C19  998   4.077   5.243   2.788  0.1111  0.0989 -0.0321
    5BIM    C20  999   4.140   5.360   2.765  0.0867  0.1125 -0.0284
    5BIM    C21 1000   4.285   5.376   2.797  0.1020  0.1184 -0.1010
    5BIM    C22 1001   4.321   5.515   2.761  0.0678  0.1334 -0.0763
    5BIM    C23 1002   4.445   5.576   2.773  0.0676  0.1429 -0.1231
    5BIM    C24 1003   4.455   5.708   2.733  0.0318  0.1568 -0.0866
    5BIM    C25 1004   4.343   5.776   2.682 -0.0025  0.1607 -0.0056
    5BIM    C26 1005   4.219   5.715   2.670 -0.0023  0.1510  0.0415
    5BIM    C27 1006   4.207   5.582   2.711  0.0336  0.1371  0.0055
    5BIM    C28 1007   4.091   5.489   2.711  0.0439  0.1245  0.0381
    5BIM    C29 1008   3.963   5.518   2.669  0.0184  0.1237  0.1153
    5BIM    C30 1009   3.925   5.646   2.618 -0.0226  0.1358  0.1758
    5BIM    C31 1010   3.857   5.422   2.673  0.0308  0.1112  0.1416
    1BTD     S2 1011   5.734   1.928   4.819 -0.1873 -0.3296  0.0547
    1BTD     N1 1012   5.712   2.106   4.802 -0.2003 -0.3102  0.2737
    1BTD     N2 1013   5.608   1.887   4.696  0.0174 -0.1843 -0.2064
    1BTD     N3 1014   5.314   2.124   4.417  0.4112  0.1467 -0.3422
    1BTD     N4 1015   5.442   2.394   4.548  0.1429 -0.0084  0.2491
    1BTD     C5 1016   5.570   2.253   4.668 -0.0179 -0.1508  0.2538
    1BTD     C6 1017   5.618   2.124   4.711 -0.0588 -0.2021  0.1476
    1BTD     C7 1018   5.560   2.002   4.652  0.0633 -0.1316 -0.1211
    1BTD     C8 1019   5.456   2.014   4.552  0.2198 -0.0134 -0.2702
    1BTD    C15 1020   5.413   2.142   4.513  0.2543  0.0332 -0.1584
    1BTD    C16 1021   5.468   2.260   4.570  0.1370 -0.0347  0.1006
    1BTD    C43 1022   5.438   2.450   4.410 -0.6859  0.4649  0.3678
    1BTD    C44 1023   5.397   2.592   4.370  0.3434  0.8997  0.3057
    1BTD    C45 1024   5.248   2.612   4.393 -0.3823 -0.2600 -0.3042
    1BTD    C46 1025   5.196   2.758   4.384  0.6242  0.2748 -0.2935
    1BTD    C47 1026   5.453   2.647   4.234 -0.0189 -0.1119 -0.0540
    1BTD    C48 1027   5.432   2.572   4.108 -0.1780  0.2779 -0.1677
    1BTD    C49 1028   5.456   2.648   3.983  0.8639  0.1451 -0.1167
    1BTD    C50 1029   5.413   2.582   3.858  0.1107  0.1491  0.4092
    1BTD    C75 1030   5.215   2.224   4.387  0.1803  0.0181 -0.1386
    1BTD    C76 1031   5.076   2.223   4.456  0.0251 -0.1096 -0.0767
    1BTD    C77 1032   5.081   2.232   4.611 -0.8397 -0.2793  0.2043
    1BTD    C78 1033   4.950   2.222   4.683 -0.2592 -0.5456  0.1345
    1BTD    C79 1034   4.991   2.344   4.403  0.0448  0.7867 -0.3793
    1BTD    C80 1035   4.971   2.372   4.256  0.1295 -0.3377  1.1114
    1BTD    C81 1036   4.860   2.472   4.226 -0.0077 -0.7017 -0.3283
    1BTD    C82 1037   4.856   2.498   4.075  0.4964 -0.2383  0.1530
    2TTP     S1 1038   5.693   2.472   4.838  0.0155  0.0485  0.0444
    2TTP     S5 1039   5.424   2.760   4.667 -0.0068 -0.1554 -0.2677
    2TTP     C1 1040   5.522   2.842   4.798  0.0507  0.0161 -0.4172
    2TTP     C2 1041   5.610   2.757   4.858  0.0610  0.0891 -0.3295
    2TTP     C3 1042   5.605   2.625   4.804  0.0238  0.0123 -0.1413
    2TTP     C4 1043   5.596   2.390   4.708 -0.0421 -0.1230  0.1938
    2TTP    C17 1044   5.507   2.475   4.647 -0.0523 -0.1960  0.1064
    2TTP    C18 1045   5.513   2.607   4.702 -0.0153 -0.1193 -0.0820
    2TTP    C32 1046   5.703   2.788   4.970 -0.2567  0.0678 -0.6829
    2TTP    C33 1047   5.683   2.745   5.110  0.3314  0.2422 -0.5663
    2TTP    C34 1048   5.550   2.749   5.185  0.3168 -0.3703  0.1919
    2TTP    C35 1049   5.480   2.885   5.217  0.2731  0.4280  0.5527
    2TTP    C36 1050   5.565   2.979   5.308  0.0742 -0.3299  0.1937
    2TTP    C37 1051   5.536   3.124   5.290  0.1623  0.0552  0.0539
    2TTP    C38 1052   5.385   3.174   5.288 -0.3272 -0.1987  0.9591
    2TTP    C39 1053   5.358   3.326   5.252  0.1687 -0.3261  0.1599
    2TTP    C40 1054   5.206   3.360   5.228 -0.5027  0.3814  0.1913
    2TTP    C41 1055   5.169   3.504   5.181  0.1682  0.2331  0.3124
    2TTP    C42 1056   5.021   3.511   5.152  0.5053  0.0376 -0.3375
    3TTP     S1 1057   5.373   1.739   4.453  0.1675 -0.0030 -0.0163
    3TTP     S5 1058   5.082   1.926   4.197  0.2607 -0.2327 -0.2909
    3TTP     C1 1059   5.070   1.745   4.177  0.5589 -0.2358 -0.4537
    3TTP     C2 1060   5.159   1.677   4.255  0.5475 -0.1651 -0.3785
    3TTP     C3 1061   5.240   1.765   4.333  0.3030 -0.1059 -0.1895
    3TTP     C4 1062   5.385   1.919   4.474 -0.1305  0.0001  0.1465
    3TTP    C17 1063   5.296   1.988   4.396 -0.1194 -0.0706  0.0713
    3TTP    C18 1064   5.215   1.900   4.317  0.1251 -0.1298 -0.1175
    3TTP    C32 1065   5.173   1.524   4.276  0.0636 -0.5477  0.0648
    3TTP    C33 1066   5.300   1.460   4.238 -0.6167  0.6736 -0.1133
    3TTP    C34 1067   5.330   1.461   4.089  0.1213 -0.0041 -0.4605
    3TTP    C35 1068   5.233   1.403   3.983  0.3587  0.2318 -0.4410
    3TTP    C36 1069   5.277   1.441   3.845 -0.0358 -0.0738 -0.1883
    3TTP    C37 1070   5.190   1.552   3.795 -0.2909  0.2674  1.0687
    3TTP    C38 1071   5.214   1.592   3.648 -0.6511 -0.0137 -0.7253
    3TTP    C39 1072   5.178   1.490   3.538 -0.6799  0.3153 -0.7595
    3TTP    C40 1073   5.034   1.491   3.497 -0.4935 -1.0420  0.2627
    3TTP    C41 1074   5.013   1.398   3.386  1.1581  0.0023  0.4408
    3TTP    C42 1075   4.868   1.393   3.332 -0.3758 -0.0760 -0.4352
    4BIM     F1 1076   4.993   3.457   4.696  0.2866  0.2177 -0.2748
    4BIM     F2 1077   5.167   3.620   4.828  0.2097  0.0765  0.0035
    4BIM     O1 1078   5.260   2.987   4.713  0.0395  0.0809 -0.1581
    4BIM     N5 1079   5.608   3.518   5.028 -0.0774 -0.2240  0.4865
    4BIM     N6 1080   5.781   3.118   5.014 -0.2551 -0.3024  0.5215
    4BIM    C19 1081   5.521   2.975   4.844 -0.1220 -0.1027  0.1491
    4BIM    C20 1082   5.447   3.087   4.834 -0.0569 -0.0627  0.1090
    4BIM    C21 1083   5.314   3.085   4.765  0.0242  0.0319 -0.0514
    4BIM    C22 1084   5.260   3.222   4.773  0.0813  0.0543 -0.0558
    4BIM    C23 1085   5.139   3.270   4.724  0.1636  0.1346 -0.1800
    4BIM    C24 1086   5.111   3.404   4.743  0.2051  0.1402 -0.1570
    4BIM    C25 1087   5.201   3.487   4.811  0.1653  0.0674 -0.0132
    4BIM    C26 1088   5.321   3.441   4.861  0.0832 -0.0130  0.1111
    4BIM    C27 1089   5.352   3.305   4.842  0.0401 -0.0199  0.0898
    4BIM    C28 1090   5.471   3.225   4.882 -0.0465 -0.0947  0.1966
    4BIM    C29 1091   5.581   3.271   4.951 -0.1053 -0.1777  0.3481
    4BIM    C30 1092   5.595   3.407   4.993 -0.0898 -0.2028  0.4237
    4BIM    C31 1093   5.691   3.186   4.985 -0.1874 -0.2459  0.4426
    5BIM     F1 1094   4.632   1.961   3.513  0.2381 -0.1097 -0.3604
    5BIM     F2 1095   4.542   1.704   3.498 -0.1171 -0.0025 -0.0994
    5BIM     O1 1096   4.960   1.929   3.943  0.2458 -0.1424 -0.3688
    5BIM     N5 1097   4.647   1.313   3.782 -0.6220  0.1284  0.2697
    5BIM     N6 1098   4.922   1.340   4.121 -0.5444  0.0812  0.2105
    5BIM    C19 1099   4.991   1.673   4.081 -0.0907 -0.0516 -0.1225
    5BIM    C20 1100   4.912   1.691   3.973 -0.0789 -0.0476 -0.1307
    5BIM    C21 1101   4.901   1.826   3.908  0.0991 -0.0961 -0.2608
    5BIM    C22 1102   4.808   1.810   3.795  0.0641 -0.0777 -0.2345
    5BIM    C23 1103   4.767   1.908   3.705  0.1878 -0.1082 -0.3247
    5BIM    C24 1104   4.677   1.869   3.606  0.1231 -0.0819 -0.2766
    5BIM    C25 1105   4.631   1.737   3.598 -0.0601 -0.0266 -0.1420
    5BIM    C26 1106   4.672   1.639   3.688 -0.1842  0.0041 -0.0515
    5BIM    C27 1107   4.762   1.676   3.789 -0.1210 -0.0218 -0.0983
    5BIM    C28 1108   4.824   1.598   3.898 -0.2162 -0.0012 -0.0292
    5BIM    C29 1109   4.805   1.464   3.924 -0.3971  0.0511  0.1035
    5BIM    C30 1110   4.718   1.382   3.846 -0.5201  0.0934  0.1944
    5BIM    C31 1111   4.869   1.397   4.033 -0.4771  0.0673  0.1615
    1BTD     S2 1112   3.338   1.802   4.769  0.1901 -0.1381 -0.2252
    1BTD     N1 1113   3.175   1.837   4.702  0.2219 -0.1018 -0.2842
    1BTD     N2 1114   3.307   1.627   4.793  0.0910 -0.1029 -0.0944
    1BTD     N3 1115   2.948   1.332   4.721 -0.0538  0.0341  0.0658
    1BTD     N4 1116   2.786   1.592   4.610  0.1075  0.0354 -0.1678
    1BTD     C5 1117   2.974   1.706   4.655  0.1602 -0.0302 -0.2205
    1BTD     C6 1118   3.109   1.722   4.701  0.1602 -0.0673 -0.2071
    1BTD     C7 1119   3.183   1.604   4.752  0.0868 -0.0678 -0.1010
    1BTD     C8 1120   3.118   1.476   4.754  0.0174 -0.0314 -0.0136
    1BTD    C15 1121   2.985   1.465   4.708  0.0202  0.0041 -0.0303
    1BTD    C16 1122   2.914   1.579   4.659  0.0908  0.0047 -0.1326
    1BTD    C43 1123   2.717   1.496   4.519 -0.1224  0.0842 -0.8539
    1BTD    C44 1124   2.567   1.478   4.508 -0.0029 -0.2106  0.4729
    1BTD    C45 1125   2.488   1.440   4.641  0.0062 -0.0178 -0.0173
    1BTD    C46 1126   2.471   1.534   4.761 -0.5472 -0.5199 -0.0876
    1BTD    C47 1127   2.538   1.358   4.411  0.1001  0.3035  0.2978
    1BTD    C48 1128   2.391   1.334   4.367  0.0997 -0.0845  0.0885
    1BTD    C49 1129   2.322   1.451   4.304  1.0142 -0.4473  0.1290
    1BTD    C50 1130   2.186   1.421   4.240 -0.3972  0.5454  0.9054
    1BTD    C75 1131   2.812   1.280   4.738  0.1210 -0.2723 -0.0976
    1BTD    C76 1132   2.769   1.149   4.674  0.2614 -0.2748  0.1719
    1BTD    C77 1133   2.634   1.082   4.721 -0.3543 -0.1596  0.5426
    1BTD    C78 1134   2.624   1.056   4.872 -0.1951  0.4003  0.1250
    1BTD    C79 1135   2.766   1.134   4.520  0.1013  0.0705 -0.3009
    1BTD    C80 1136   2.896   1.145   4.433 -0.2291  0.2025 -0.1663
    1BTD    C81 1137   3.009   1.045   4.461 -0.3512 -0.6696 -0.3144
    1BTD    C82 1138   3.132   1.088   4.386 -0.0187 -0.0216  0.2839
    2TTP     S1 1139   2.864   1.977   4.571  0.0564 -0.0570 -0.0643
    2TTP     S5 1140   2.491   1.788   4.469 -0.0659  0.2043 -0.1025
    2TTP     C1 1141   2.479   1.965   4.430  0.0011  0.2454  0.0611
    2TTP     C2 1142   2.594   2.034   4.459  0.0427  0.1671  0.0827
    2TTP     C3 1143   2.695   1.949   4.513  0.0234  0.0719 -0.0294
    2TTP     C4 1144   2.876   1.799   4.610 -0.0106 -0.0981 -0.2280
    2TTP    C17 1145   2.762   1.731   4.581 -0.0522 -0.0198 -0.2496
    2TTP    C18 1146   2.660   1.816   4.527 -0.0328  0.0754 -0.1374
    2TTP    C32 1147   2.630   2.177   4.407  0.0943  0.5725  0.5393
    2TTP    C33 1148   2.617   2.282   4.521 -0.1138 -0.0020  0.4971
    2TTP    C34 1149   2.643   2.435   4.479 -0.4858  0.6950  0.8010
    2TTP    C35 1150   2.778   2.469   4.405  0.1529  0.1702  0.0550
    2TTP    C36 1151   2.890   2.476   4.505 -0.0540  0.8550  0.3165
    2TTP    C37 1152   2.997   2.556   4.442  0.3951 -0.5245  0.1068
    2TTP    C38 1153   3.106   2.577   4.543 -0.2889  0.2499 -0.6231
    2TTP    C39 1154   3.209   2.677   4.502  0.0526  0.0085 -0.4797
    2TTP    C40 1155   3.323   2.705   4.595 -0.8237 -0.3813 -0.4828
    2TTP    C41 1156   3.412   2.590   4.641  0.0866  0.0281  0.5854
    2TTP    C42 1157   3.540   2.610   4.717 -0.0802  0.0039 -0.0472
    3TTP     S1 1158   3.311   1.254   4.843  0.2116  0.3434 -0.1277
    3TTP     S5 1159   2.986   0.973   4.827  0.2666  0.2914 -0.3437
    3TTP     C1 1160   3.136   0.886   4.882  0.2026  0.3546 -0.0618
    3TTP     C2 1161   3.245   0.967   4.890  0.1819  0.3744  0.0216
    3TTP     C3 1162   3.214   1.102   4.853  0.2158  0.3403 -0.1343
    3TTP     C4 1163   3.161   1.342   4.788  0.2756  0.2801 -0.4096
    3TTP    C17 1164   3.052   1.260   4.780  0.2963  0.2603 -0.4931
    3TTP    C18 1165   3.083   1.126   4.817  0.2624  0.2944 -0.3372
    3TTP    C32 1166   3.387   0.931   4.926  0.3176 -0.2886 -0.4882
    3TTP    C33 1167   3.483   0.864   4.823 -0.0817  0.6188  0.2322
    3TTP    C34 1168   3.492   0.949   4.695  0.2148  0.0206  0.0504
    3TTP    C35 1169   3.602   0.897   4.612 -0.5037  0.3165  0.4064
    3TTP    C36 1170   3.614   0.945   4.473  0.7557 -0.1784  0.9168
    3TTP    C37 1171   3.501   0.881   4.382  0.0670 -0.3017 -0.8533
    3TTP    C38 1172   3.475   0.948   4.246 -0.1746 -0.1289 -0.6319
    3TTP    C39 1173   3.363   0.877   4.171  0.4815 -0.2902 -0.3965
    3TTP    C40 1174   3.345   0.940   4.030 -0.4439  0.6638 -1.0183
    3TTP    C41 1175   3.238   0.875   3.954  0.0518  0.3469 -0.3928
    3TTP    C42 1176   3.217   0.912   3.806  0.2049 -0.3123 -0.1113
    4BIM     F1 1177   1.797   1.686   4.068  0.0960  0.0806  0.0083
    4BIM     F2 1178   1.689   1.935   4.092 -0.1257 -0.0444  0.3313
    4BIM     O1 1179   2.288   1.766   4.281  0.1653  0.3343 -0.2463
    4BIM     N5 1180   1.885   2.350   4.277 -0.3949 -0.0434  0.6140
    4BIM     N6 1181   2.290   2.363   4.439 -0.2961  0.1801  0.3500
    4BIM    C19 1182   2.360   2.033   4.379 -0.0218  0.3049 -0.0281
    4BIM    C20 1183   2.241   2.003   4.325 -0.0306  0.2460  0.0232
    4BIM    C21 1184   2.211   1.864   4.277  0.0694  0.2658 -0.0962
    4BIM    C22 1185   2.074   1.866   4.224  0.0309  0.1884 -0.0004
    4BIM    C23 1186   2.002   1.760   4.168  0.0937  0.1761 -0.0578
    4BIM    C24 1187   1.873   1.786   4.124  0.0388  0.0971  0.0567
    4BIM    C25 1188   1.818   1.915   4.137 -0.0754  0.0328  0.2229
    4BIM    C26 1189   1.889   2.021   4.192 -0.1386  0.0446  0.2811
    4BIM    C27 1190   2.019   1.996   4.237 -0.0845  0.1242  0.1671
    4BIM    C28 1191   2.120   2.085   4.299 -0.1268  0.1570  0.1882
    4BIM    C29 1192   2.104   2.219   4.328 -0.2346  0.1132  0.3331
    4BIM    C30 1193   1.983   2.291   4.300 -0.3224  0.0273  0.4871
    4BIM    C31 1194   2.207   2.297   4.389 -0.2678  0.1502  0.3417
    5BIM     F1 1195   2.702   0.210   4.707 -0.0911  0.2348 -0.0552
    5BIM     F2 1196   2.877   0.067   4.858 -0.0443  0.0752 -0.2602
    5BIM     O1 1197   2.909   0.708   4.755  0.0332  0.1540  0.2494
    5BIM     N5 1198   3.276   0.215   5.110  0.1118 -0.2117 -0.3378
    5BIM     N6 1199   3.403   0.633   5.117  0.1994 -0.2426 -0.0585
    5BIM    C19 1200   3.150   0.748   4.917  0.1221 -0.0271  0.1616
    5BIM    C20 1201   3.091   0.628   4.899  0.0890 -0.0005  0.0931
    5BIM    C21 1202   2.968   0.616   4.814  0.0442  0.0937  0.1446
    5BIM    C22 1203   2.930   0.473   4.816  0.0163  0.0999  0.0465
    5BIM    C23 1204   2.822   0.413   4.752 -0.0280  0.1742  0.0513
    5BIM    C24 1205   2.806   0.276   4.768 -0.0474  0.1640 -0.0534
    5BIM    C25 1206   2.897   0.202   4.846 -0.0233  0.0817 -0.1589
    5BIM    C26 1207   3.005   0.262   4.910  0.0209  0.0073 -0.1642
    5BIM    C27 1208   3.022   0.400   4.895  0.0412  0.0164 -0.0592
    5BIM    C28 1209   3.125   0.492   4.949  0.0869 -0.0486 -0.0349
    5BIM    C29 1210   3.231   0.459   5.030  0.1207 -0.1365 -0.1155
    5BIM    C30 1211   3.255   0.325   5.073  0.1156 -0.1775 -0.2375
    5BIM    C31 1212   3.325   0.555   5.077  0.1639 -0.1944 -0.0837
    1BTD     S2 1213   4.407   7.134   6.885 -0.3216 -0.0475 -0.2263
    1BTD     N1 1214   4.304   7.264   6.815 -0.3090  0.0550 -0.0538
    1BTD     N2 1215   4.542   7.244   6.931 -0.2041 -0.1580 -0.3055
    1BTD     N3 1216   4.631   7.703   6.898  0.0585 -0.1979 -0.1558
    1BTD     N4 1217   4.339   7.728   6.756 -0.0708  0.0644  0.1544
    1BTD     C5 1218   4.326   7.506   6.786 -0.1831  0.0566  0.0513
    1BTD     C6 1219   4.372   7.377   6.829 -0.2222  0.0041 -0.0638
    1BTD     C7 1220   4.505   7.366   6.894 -0.1634 -0.1149 -0.2047
    1BTD     C8 1221   4.585   7.484   6.912 -0.0684 -0.1757 -0.2236
    1BTD    C15 1222   4.535   7.608   6.868 -0.0331 -0.1208 -0.1082
    1BTD    C16 1223   4.407   7.619   6.806 -0.0897 -0.0061  0.0277
    1BTD    C43 1224   4.404   7.845   6.681  0.8236  0.5015 -0.2864
    1BTD    C44 1225   4.344   7.985   6.646  0.6069 -0.1344 -0.2233
    1BTD    C45 1226   4.307   8.047   6.783 -0.0535 -0.1409 -0.5368
    1BTD    C46 1227   4.214   8.170   6.790 -0.1974  0.4455 -0.2981
    1BTD    C47 1228   4.428   8.077   6.560  0.3245  0.1112 -0.0110
    1BTD    C48 1229   4.459   8.024   6.417  0.0887  0.4526  0.1424
    1BTD    C49 1230   4.335   8.023   6.327 -0.0039 -0.0403 -0.5242
    1BTD    C50 1231   4.382   7.987   6.189  0.0011 -0.2312  0.0375
    1BTD    C75 1232   4.604   7.852   6.925 -0.1864  0.0736 -0.1039
    1BTD    C76 1233   4.700   7.968   6.894  0.1659 -0.3644 -0.5533
    1BTD    C77 1234   4.737   8.004   6.746  0.3508  0.0528 -0.4748
    1BTD    C78 1235   4.841   7.914   6.681 -0.1676 -0.3948 -0.2379
    1BTD    C79 1236   4.628   8.080   6.967  0.1654  0.1132  0.6205
    1BTD    C80 1237   4.701   8.217   6.980  0.2151 -0.4862 -0.3153
    1BTD    C81 1238   4.615   8.332   7.037 -0.5544  0.2081  0.1529
    1BTD    C82 1239   4.699   8.462   7.051 -0.4564  0.4001 -0.2576
    2TTP     S1 1240   4.044   7.480   6.690 -0.0350  0.2173  0.1454
    2TTP     S5 1241   4.019   7.909   6.663  0.0758  0.2012 -0.2327
    2TTP     C1 1242   3.855   7.839   6.628  0.0432  0.2146 -0.1103
    2TTP     C2 1243   3.853   7.703   6.634  0.0071  0.2203  0.0135
    2TTP     C3 1244   3.981   7.648   6.667  0.0038  0.2142  0.0165
    2TTP     C4 1245   4.208   7.550   6.725 -0.0024  0.2037  0.0230
    2TTP    C17 1246   4.210   7.687   6.719  0.0337  0.1978 -0.1008
    2TTP    C18 1247   4.082   7.741   6.686  0.0370  0.2040 -0.1037
    2TTP    C32 1248   3.730   7.609   6.603 -0.4898 -0.5632  0.0959
    2TTP    C33 1249   3.737   7.528   6.473  0.9754  0.2682  0.6605
    2TTP    C34 1250   3.716   7.586   6.332 -0.0379 -0.7866 -0.3837
    2TTP    C35 1251   3.838   7.668   6.281  0.1403  0.5574  0.4939
    2TTP    C36 1252   3.785   7.754   6.170  0.0580 -0.8523  0.3494
    2TTP    C37 1253   3.872   7.866   6.110 -0.3940 -0.0890 -0.1233
    2TTP    C38 1254   3.961   7.950   6.198 -0.3572 -0.4763  0.1681
    2TTP    C39 1255   3.904   8.068   6.269  0.0614  0.3677  0.3394
    2TTP    C40 1256   4.008   8.150   6.346  0.7591  0.2588 -0.3815
    2TTP    C41 1257   3.939   8.272   6.411 -0.0296 -0.3167 -0.6184
    2TTP    C42 1258   4.028   8.369   6.487  0.1088  0.0189  0.5033
    3TTP     S1 1259   4.849   7.410   7.035 -0.0952 -0.0265 -0.2152
    3TTP     S5 1260   4.977   7.819   6.998 -0.1525  0.0037 -0.0807
    3TTP     C1 1261   5.114   7.721   7.064 -0.0605 -0.0444 -0.3388
    3TTP     C2 1262   5.083   7.589   7.080 -0.0373 -0.0564 -0.3953
    3TTP     C3 1263   4.949   7.560   7.039 -0.0916 -0.0285 -0.2372
    3TTP     C4 1264   4.711   7.508   6.968 -0.1873  0.0215  0.0429
    3TTP    C17 1265   4.742   7.640   6.952 -0.2104  0.0335  0.0994
    3TTP    C18 1266   4.876   7.669   6.993 -0.1563  0.0054 -0.0589
    3TTP    C32 1267   5.173   7.472   7.127  0.8386  0.2526  0.0497
    3TTP    C33 1268   5.169   7.422   7.269  0.2222  0.0850 -0.2578
    3TTP    C34 1269   5.274   7.313   7.291  0.0966  0.0221  0.1874
    3TTP    C35 1270   5.246   7.222   7.409 -0.2831 -0.4992  0.3219
    3TTP    C36 1271   5.348   7.123   7.445 -0.3467  0.3801 -1.0372
    3TTP    C37 1272   5.333   7.069   7.590 -0.8042  0.2477 -0.3881
    3TTP    C38 1273   5.448   6.987   7.651 -0.0866 -0.4175 -0.0668
    3TTP    C39 1274   5.420   6.839   7.644  0.4587  0.0545  0.1620
    3TTP    C40 1275   5.552   6.774   7.682 -0.1505  0.0401  0.1141
    3TTP    C41 1276   5.560   6.623   7.690  0.6582 -0.4440  0.2473
    3TTP    C42 1277   5.453   6.542   7.772  0.0144 -0.2439  0.2448
    4BIM     F1 1278   3.633   8.602   6.823  0.1271  0.1969 -0.4240
    4BIM     F2 1279   3.400   8.563   6.689 -0.1805  0.0041  0.1587
    4BIM     O1 1280   3.871   8.119   6.758  0.0815  0.1810 -0.4722
    4BIM     N5 1281   3.234   8.163   6.449 -0.6553 -0.2847  0.9623
    4BIM     N6 1282   3.466   7.794   6.425 -0.6288 -0.2582  0.8072
    4BIM    C19 1283   3.732   7.911   6.607 -0.2285 -0.0089  0.0675
    4BIM    C20 1284   3.681   8.034   6.628 -0.2052  0.0026  0.0566
    4BIM    C21 1285   3.759   8.136   6.707 -0.0421  0.1028 -0.2291
    4BIM    C22 1286   3.675   8.257   6.712 -0.0588  0.0892 -0.1626
    4BIM    C23 1287   3.705   8.378   6.774  0.0599  0.1607 -0.3575
    4BIM    C24 1288   3.610   8.479   6.764  0.0155  0.1301 -0.2434
    4BIM    C25 1289   3.490   8.459   6.695 -0.1430  0.0302  0.0568
    4BIM    C26 1290   3.460   8.338   6.633 -0.2621 -0.0415  0.2528
    4BIM    C27 1291   3.555   8.235   6.641 -0.2195 -0.0119  0.1411
    4BIM    C28 1292   3.553   8.097   6.587 -0.3157 -0.0689  0.2879
    4BIM    C29 1293   3.453   8.039   6.513 -0.4764 -0.1686  0.5819
    4BIM    C30 1294   3.333   8.107   6.478 -0.5742 -0.2320  0.7900
    4BIM    C31 1295   3.461   7.904   6.465 -0.5593 -0.2173  0.7041
    5BIM     F1 1296   5.364   8.430   7.396 -0.1522 -0.0846  0.1792
    5BIM     F2 1297   5.622   8.346   7.366 -0.1017  0.1948 -0.1836
    5BIM     O1 1298   5.094   8.002   7.204  0.0454 -0.3364  0.4617
    5BIM     N5 1299   5.799   7.921   7.186  0.1117  0.4165 -0.5035
    5BIM     N6 1300   5.535   7.603   7.042  0.2561  0.1636 -0.2098
    5BIM    C19 1301   5.244   7.770   7.107  0.1639 -0.1591  0.2154
    5BIM    C20 1302   5.302   7.881   7.157  0.1123 -0.1067  0.1584
    5BIM    C21 1303   5.218   7.996   7.205  0.0530 -0.2047  0.2936
    5BIM    C22 1304   5.312   8.100   7.252  0.0063 -0.1132  0.1866
    5BIM    C23 1305   5.281   8.224   7.305 -0.0554 -0.1559  0.2518
    5BIM    C24 1306   5.388   8.305   7.342 -0.0907 -0.0501  0.1241
    5BIM    C25 1307   5.520   8.262   7.327 -0.0646  0.0936 -0.0625
    5BIM    C26 1308   5.551   8.138   7.274 -0.0030  0.1369 -0.1287
    5BIM    C27 1309   5.445   8.054   7.235  0.0335  0.0312 -0.0017
    5BIM    C28 1310   5.444   7.918   7.176  0.0997  0.0411 -0.0261
    5BIM    C29 1311   5.554   7.841   7.146  0.1411  0.1637 -0.1891
    5BIM    C30 1312   5.688   7.885   7.168  0.1248  0.3022 -0.3616
    5BIM    C31 1313   5.543   7.711   7.089  0.2040  0.1628 -0.1996
    1BTD     S2 1314   8.624   3.877   1.661 -0.1132 -0.0100  0.4092
    1BTD     N1 1315   8.615   3.714   1.736 -0.2954 -0.0905  0.2118
    1BTD     N2 1316   8.550   3.827   1.506  0.0832  0.2003  0.2454
    1BTD     N3 1317   8.382   3.428   1.323  0.1547  0.4835 -0.4447
    1BTD     N4 1318   8.461   3.290   1.607 -0.3123  0.1252 -0.4861
    1BTD     C5 1319   8.534   3.494   1.665 -0.2985  0.0264 -0.1521
    1BTD     C6 1320   8.560   3.634   1.646 -0.2053  0.0369  0.0427
    1BTD     C7 1321   8.523   3.697   1.517  0.0067  0.1997  0.0615
    1BTD     C8 1322   8.463   3.617   1.414  0.1149  0.3438 -0.1154
    1BTD    C15 1323   8.440   3.480   1.437  0.0173  0.3276 -0.3031
    1BTD    C16 1324   8.474   3.419   1.562 -0.1871  0.1708 -0.3212
    1BTD    C43 1325   8.504   3.176   1.527  0.3278 -0.0903 -0.0025
    1BTD    C44 1326   8.464   3.029   1.557 -0.2527  0.5658 -0.3911
    1BTD    C45 1327   8.320   2.987   1.548  0.1743  0.5660  0.4279
    1BTD    C46 1328   8.215   3.063   1.636 -0.2157 -0.8793 -0.1916
    1BTD    C47 1329   8.555   2.930   1.477 -0.1559  0.2868 -0.2944
    1BTD    C48 1330   8.560   2.787   1.529 -0.4249 -0.3620  0.0858
    1BTD    C49 1331   8.624   2.688   1.427 -0.2056  0.1891 -0.4550
    1BTD    C50 1332   8.651   2.549   1.484 -0.1303  0.2290 -0.9653
    1BTD    C75 1333   8.282   3.321   1.326  0.0249  0.6249  0.1629
    1BTD    C76 1334   8.253   3.227   1.207  0.1697 -0.1793 -0.6602
    1BTD    C77 1335   8.366   3.114   1.201  0.7070  0.0667  0.4224
    1BTD    C78 1336   8.361   3.036   1.071 -0.2592 -0.1604  0.2976
    1BTD    C79 1337   8.106   3.200   1.182 -0.4127  0.2813  0.8142
    1BTD    C80 1338   8.026   3.131   1.295 -0.1657  0.4393 -0.5538
    1BTD    C81 1339   7.879   3.089   1.287 -0.2679 -0.1747  0.8138
    1BTD    C82 1340   7.839   2.984   1.185 -0.1074  0.9441 -0.2980
    2TTP     S1 1341   8.625   3.408   1.948  0.0004 -0.0028 -0.1145
    2TTP     S5 1342   8.439   3.028   1.873 -0.3850  0.1500  0.0598
    2TTP     C1 1343   8.501   3.029   2.043 -0.4351  0.1864  0.0779
    2TTP     C2 1344   8.562   3.147   2.077 -0.3190  0.1412  0.0250
    2TTP     C3 1345   8.562   3.240   1.968 -0.1864  0.0765 -0.0315
    2TTP     C4 1346   8.563   3.407   1.777  0.0503 -0.0391 -0.1325
    2TTP    C17 1347   8.501   3.289   1.743 -0.0659  0.0061 -0.0797
    2TTP    C18 1348   8.502   3.196   1.852 -0.1984  0.0708 -0.0232
    2TTP    C32 1349   8.630   3.182   2.204 -0.0602 -0.6024 -0.2899
    2TTP    C33 1350   8.524   3.218   2.305  0.2231  0.5141 -0.3681
    2TTP    C34 1351   8.591   3.222   2.442 -0.5088 -0.0628  0.0292
    2TTP    C35 1352   8.506   3.247   2.564 -0.0829 -0.2678  0.5701
    2TTP    C36 1353   8.420   3.128   2.608 -0.1176  0.2700  1.0921
    2TTP    C37 1354   8.494   2.993   2.645 -0.0206  0.1853 -0.0133
    2TTP    C38 1355   8.416   2.889   2.731 -0.1794  0.1154 -0.3921
    2TTP    C39 1356   8.260   2.905   2.755  0.3601  0.2716 -0.4778
    2TTP    C40 1357   8.201   2.817   2.866 -0.1971 -0.3827 -0.4870
    2TTP    C41 1358   8.172   2.679   2.804 -0.5580 -0.3820  0.3552
    2TTP    C42 1359   8.161   2.584   2.915  0.1338 -0.3411  0.0239
    3TTP     S1 1360   8.439   3.774   1.155 -0.1037  0.0515 -0.0371
    3TTP     S5 1361   8.388   3.403   0.943  0.0873  0.0010  0.0055
    3TTP     C1 1362   8.413   3.536   0.822 -0.1075  0.0197 -0.0140
    3TTP     C2 1363   8.430   3.659   0.880 -0.1781  0.0364 -0.0283
    3TTP     C3 1364   8.424   3.652   1.022 -0.0806  0.0350 -0.0244
    3TTP     C4 1365   8.415   3.641   1.276  0.0913  0.0327 -0.0176
    3TTP    C17 1366   8.397   3.518   1.218  0.1617  0.0160 -0.0033
    3TTP    C18 1367   8.403   3.525   1.075  0.0646  0.0175 -0.0072
    3TTP    C32 1368   8.461   3.785   0.811 -0.1959 -0.1513 -0.4725
    3TTP    C33 1369   8.360   3.903   0.832 -1.0190  0.2626  0.2057
    3TTP    C34 1370   8.217   3.867   0.794 -0.2647 -0.5153 -0.7297
    3TTP    C35 1371   8.187   3.873   0.646 -0.7505 -0.1365 -0.5862
    3TTP    C36 1372   8.206   4.003   0.567 -0.5990  0.2496  0.1253
    3TTP    C37 1373   8.163   3.984   0.422  0.1782 -0.1219  0.0648
    3TTP    C38 1374   8.137   4.120   0.365 -0.4110  0.5526  0.1271
    3TTP    C39 1375   8.133   4.113   0.211  0.3964 -0.3321  0.0970
    3TTP    C40 1376   8.059   4.225   0.142  0.5154 -0.6345  0.0141
    3TTP    C41 1377   8.110   4.374   0.159  0.1035 -0.0225  0.1966
    3TTP    C42 1378   8.254   4.409   0.140 -0.2289 -0.4135 -0.3603
    4BIM     F1 1379   8.050   2.343   2.113  0.2167 -0.1975 -0.3732
    4BIM     F2 1380   8.207   2.271   2.323 -0.2434  0.0401  0.0573
    4BIM     O1 1381   8.268   2.821   1.982  0.1943 -0.1175 -0.1202
    4BIM     N5 1382   8.588   2.507   2.532 -0.9212  0.4387  0.8568
    4BIM     N6 1383   8.727   2.895   2.387 -0.8461  0.4533  0.9677
    4BIM    C19 1384   8.495   2.922   2.136 -0.2536  0.1379  0.3811
    4BIM    C20 1385   8.434   2.804   2.161 -0.2301  0.1085  0.3006
    4BIM    C21 1386   8.318   2.759   2.078  0.0060 -0.0250  0.0402
    4BIM    C22 1387   8.276   2.628   2.131 -0.0305 -0.0238  0.0144
    4BIM    C23 1388   8.172   2.548   2.086  0.1371 -0.1255 -0.1939
    4BIM    C24 1389   8.151   2.428   2.153  0.0604 -0.1012 -0.1742
    4BIM    C25 1390   8.232   2.391   2.261 -0.1769  0.0213  0.0479
    4BIM    C26 1391   8.336   2.471   2.306 -0.3452  0.1232  0.2565
    4BIM    C27 1392   8.359   2.593   2.240 -0.2706  0.1005  0.2400
    4BIM    C28 1393   8.459   2.699   2.263 -0.4027  0.1866  0.4247
    4BIM    C29 1394   8.557   2.700   2.360 -0.6399  0.3144  0.6648
    4BIM    C30 1395   8.574   2.594   2.454 -0.7937  0.3823  0.7694
    4BIM    C31 1396   8.650   2.807   2.374 -0.7520  0.3901  0.8300
    5BIM     F1 1397   8.310   2.943   0.253  0.6299 -0.1147  0.1249
    5BIM     F2 1398   8.388   3.122   0.064 -0.3819  0.2189  0.0066
    5BIM     O1 1399   8.338   3.247   0.700  0.7288 -0.2095  0.1832
    5BIM     N5 1400   8.522   3.596   0.111 -1.7662  0.6310 -0.1220
    5BIM     N6 1401   8.529   3.797   0.498 -1.4846  0.4899 -0.0526
    5BIM    C19 1402   8.424   3.526   0.678 -0.2029  0.0757  0.0908
    5BIM    C20 1403   8.413   3.442   0.573 -0.1879  0.0865  0.0808
    5BIM    C21 1404   8.369   3.300   0.592  0.3057 -0.0658  0.1306
    5BIM    C22 1405   8.369   3.238   0.459  0.1860 -0.0103  0.1045
    5BIM    C23 1406   8.334   3.107   0.426  0.5217 -0.1070  0.1333
    5BIM    C24 1407   8.342   3.071   0.293  0.3200 -0.0266  0.0993
    5BIM    C25 1408   8.383   3.163   0.195 -0.2018  0.1454  0.0383
    5BIM    C26 1409   8.417   3.294   0.227 -0.5386  0.2427  0.0093
    5BIM    C27 1410   8.410   3.332   0.362 -0.3414  0.1634  0.0430
    5BIM    C28 1411   8.439   3.462   0.428 -0.5920  0.2297  0.0260
    5BIM    C29 1412   8.482   3.577   0.367 -1.1010  0.3927 -0.0298
    5BIM    C30 1413   8.504   3.587   0.226 -1.4651  0.5232 -0.0803
    5BIM    C31 1414   8.507   3.698   0.439 -1.3092  0.4452 -0.0420
    1BTD     S2 1415   2.567   6.948   5.831  0.1130 -0.0188  0.0085
    1BTD     N1 1416   2.614   7.094   5.737  0.0463  0.0007  0.0048
    1BTD     N2 1417   2.433   6.902   5.721  0.1405 -0.0886  0.0039
    1BTD     N3 1418   2.245   7.073   5.326  0.0759 -0.1960 -0.0117
    1BTD     N4 1419   2.469   7.309   5.346 -0.0401 -0.0858 -0.0105
    1BTD     C5 1420   2.536   7.203   5.533  0.0026 -0.0458 -0.0032
    1BTD     C6 1421   2.532   7.101   5.634  0.0479 -0.0435  0.0007
    1BTD     C7 1422   2.430   6.993   5.624  0.1006 -0.0937  0.0002
    1BTD     C8 1423   2.337   6.994   5.515  0.1053 -0.1434 -0.0041
    1BTD    C15 1424   2.345   7.096   5.418  0.0599 -0.1436 -0.0079
    1BTD    C16 1425   2.443   7.200   5.427  0.0092 -0.0954 -0.0075
    1BTD    C43 1426   2.466   7.307   5.198  0.2458  0.6080  0.3242
    1BTD    C44 1427   2.442   7.428   5.112  0.0439  0.3167 -0.0771
    1BTD    C45 1428   2.308   7.496   5.143 -0.1040 -0.0369  0.3534
    1BTD    C46 1429   2.269   7.629   5.074 -0.2541 -0.2706 -0.2897
    1BTD    C47 1430   2.478   7.409   4.962  1.0206  0.2471  0.7950
    1BTD    C48 1431   2.615   7.360   4.910  0.0835 -0.4556  0.0283
    1BTD    C49 1432   2.735   7.458   4.920 -0.5826 -0.6228 -0.2912
    1BTD    C50 1433   2.711   7.597   4.850  0.2065  0.8576 -0.0995
    1BTD    C75 1434   2.174   7.187   5.252 -0.5877  0.1444  0.0524
    1BTD    C76 1435   2.110   7.160   5.119  0.5296  0.1807  0.1729
    1BTD    C77 1436   2.207   7.090   5.028  0.2788 -0.0891  0.7675
    1BTD    C78 1437   2.158   7.046   4.887  0.6239 -0.1563 -0.0200
    1BTD    C79 1438   2.026   7.278   5.061  0.3997  0.4839 -0.1934
    1BTD    C80 1439   1.904   7.314   5.148 -0.3719  0.3367 -0.1384
    1BTD    C81 1440   1.804   7.412   5.092 -0.2841 -0.2805  0.2174
    1BTD    C82 1441   1.859   7.550   5.085  0.2450 -0.5155  0.1568
    2TTP     S1 1442   2.743   7.409   5.610 -0.0862  0.3170  0.0481
    2TTP     S5 1443   2.624   7.654   5.277  0.1421 -0.0556 -0.3101
    2TTP     C1 1444   2.751   7.743   5.372 -0.0180  0.1063 -0.2479
    2TTP     C2 1445   2.795   7.673   5.481 -0.0979  0.2308 -0.1338
    2TTP     C3 1446   2.730   7.546   5.492 -0.0356  0.2030 -0.0911
    2TTP     C4 1447   2.616   7.320   5.514  0.0739  0.1552 -0.0142
    2TTP    C17 1448   2.572   7.390   5.406  0.1537  0.0306 -0.1283
    2TTP    C18 1449   2.637   7.517   5.394  0.0915  0.0584 -0.1708
    2TTP    C32 1450   2.912   7.698   5.580  0.0438 -0.5074  0.0877
    2TTP    C33 1451   2.882   7.702   5.733 -0.6756  0.6736  0.6384
    2TTP    C34 1452   3.001   7.678   5.822  0.0394 -0.0387  0.4629
    2TTP    C35 1453   3.093   7.802   5.837  0.0137  0.2869 -0.4027
    2TTP    C36 1454   3.211   7.776   5.925 -0.1524 -0.5162 -0.1553
    2TTP    C37 1455   3.304   7.897   5.938  0.1777 -0.0946  0.8892
    2TTP    C38 1456   3.430   7.865   6.011  0.4045 -0.2092  0.1664
    2TTP    C39 1457   3.523   7.985   6.021 -0.1449  0.1401  0.4146
    2TTP    C40 1458   3.475   8.103   6.100  0.5700 -0.2332 -0.6375
    2TTP    C41 1459   3.566   8.223   6.101 -0.0122  0.2124 -0.7413
    2TTP    C42 1460   3.510   8.343   6.175  0.2007 -0.2443 -0.5389
    3TTP     S1 1461   2.157   6.748   5.521  0.0929  0.2256 -0.2657
    3TTP     S5 1462   1.950   6.884   5.169  0.0301  0.1152 -0.2716
    3TTP     C1 1463   1.878   6.726   5.221 -0.0542  0.2006 -0.1272
    3TTP     C2 1464   1.938   6.674   5.333 -0.0397  0.2398 -0.1169
    3TTP     C3 1465   2.043   6.758   5.381  0.0384  0.2037 -0.2226
    3TTP     C4 1466   2.230   6.907   5.469  0.1772  0.1400 -0.4100
    3TTP    C17 1467   2.170   6.958   5.357  0.1628  0.1009 -0.4204
    3TTP    C18 1468   2.065   6.874   5.309  0.0846  0.1372 -0.3146
    3TTP    C32 1469   1.897   6.540   5.397  0.2909 -0.5496  1.0897
    3TTP    C33 1470   1.992   6.420   5.392  0.4316 -0.0392  0.6085
    3TTP    C34 1471   2.027   6.368   5.244  0.2102 -0.1233 -0.3663
    3TTP    C35 1472   2.161   6.292   5.235 -0.8448 -0.5118 -0.1908
    3TTP    C36 1473   2.286   6.391   5.259  0.4656 -0.8032  0.1365
    3TTP    C37 1474   2.426   6.351   5.203 -0.0981  0.0237 -0.4246
    3TTP    C38 1475   2.534   6.445   5.262  0.0746 -0.0143 -0.3064
    3TTP    C39 1476   2.669   6.422   5.201 -0.5705 -0.7362  0.3549
    3TTP    C40 1477   2.783   6.511   5.226 -0.0879  0.7079  0.8676
    3TTP    C41 1478   2.916   6.438   5.220 -0.1707  0.2300  0.0132
    3TTP    C42 1479   3.028   6.541   5.214 -0.4929 -0.2985  0.0605
    4BIM     F1 1480   2.836   8.225   4.720 -0.5601  0.2880  0.0502
    4BIM     F2 1481   2.929   8.420   4.886  0.7130 -0.1493 -0.1277
    4BIM     O1 1482   2.743   7.825   5.073 -0.9187  0.4278  0.1143
    4BIM     N5 1483   2.996   8.415   5.376  2.2878 -0.6785 -0.3372
    4BIM     N6 1484   2.905   8.063   5.619  1.7510 -0.4811 -0.2515
    4BIM    C19 1485   2.799   7.869   5.357  0.1702  0.0595 -0.0326
    4BIM    C20 1486   2.819   7.962   5.262  0.2106  0.0415 -0.0420
    4BIM    C21 1487   2.788   7.932   5.118 -0.3706  0.2383  0.0368
    4BIM    C22 1488   2.821   8.054   5.042 -0.1595  0.1616  0.0036
    4BIM    C23 1489   2.808   8.074   4.904 -0.5293  0.2849  0.0520
    4BIM    C24 1490   2.846   8.198   4.855 -0.2231  0.1758  0.0061
    4BIM    C25 1491   2.894   8.298   4.941  0.4329 -0.0493 -0.0855
    4BIM    C26 1492   2.906   8.279   5.078  0.8049 -0.1733 -0.1341
    4BIM    C27 1493   2.869   8.154   5.130  0.5033 -0.0660 -0.0888
    4BIM    C28 1494   2.869   8.101   5.268  0.7568 -0.1488 -0.1204
    4BIM    C29 1495   2.909   8.169   5.381  1.3788 -0.3610 -0.2062
    4BIM    C30 1496   2.957   8.304   5.378  1.8765 -0.5348 -0.2781
    4BIM    C31 1497   2.907   8.110   5.511  1.5800 -0.4261 -0.2307
    5BIM     F1 1498   1.496   6.816   4.500  0.1532 -0.0612  0.0036
    5BIM     F2 1499   1.314   6.629   4.577  0.3173 -0.2925 -0.1661
    5BIM     O1 1500   1.819   6.829   4.934 -0.1740  0.2325  0.2398
    5BIM     N5 1501   1.282   6.370   4.997  0.3200 -0.4158 -0.2419
    5BIM     N6 1502   1.571   6.418   5.321  0.0312 -0.1396 -0.0230
    5BIM    C19 1503   1.760   6.655   5.162 -0.1334  0.1160  0.1616
    5BIM    C20 1504   1.686   6.659   5.049 -0.0575  0.0510  0.1088
    5BIM    C21 1505   1.723   6.752   4.936 -0.0846  0.1178  0.1543
    5BIM    C22 1506   1.622   6.731   4.831  0.0156  0.0200  0.0772
    5BIM    C23 1507   1.614   6.794   4.707  0.0305  0.0364  0.0845
    5BIM    C24 1508   1.509   6.758   4.624  0.1328 -0.0706  0.0017
    5BIM    C25 1509   1.416   6.662   4.664  0.2172 -0.1898 -0.0858
    5BIM    C26 1510   1.423   6.598   4.787  0.2030 -0.2068 -0.0938
    5BIM    C27 1511   1.528   6.633   4.873  0.0999 -0.0995 -0.0104
    5BIM    C28 1512   1.564   6.586   5.009  0.0583 -0.0852  0.0056
    5BIM    C29 1513   1.496   6.491   5.083  0.1162 -0.1801 -0.0623
    5BIM    C30 1514   1.379   6.425   5.035  0.2280 -0.3093 -0.1608
    5BIM    C31 1515   1.538   6.452   5.213  0.0691 -0.1574 -0.0403
    1BTD     S2 1516   3.046   0.265   5.791  0.1961  0.0775 -0.1335
    1BTD     N1 1517   3.120   0.419   5.738  0.1544  0.0646 -0.2297
    1BTD     N2 1518   2.878   0.314   5.749  0.1622  0.0684 -0.0106
    1BTD     N3 1519   2.671   0.694   5.566  0.0176  0.0266  0.0662
    1BTD     N4 1520   2.969   0.824   5.553  0.0082  0.0219 -0.2037
    1BTD     C5 1521   3.038   0.629   5.642  0.0782  0.0424 -0.2129
    1BTD     C6 1522   3.021   0.496   5.694  0.1192  0.0547 -0.1684
    1BTD     C7 1523   2.886   0.437   5.700  0.1235  0.0568 -0.0458
    1BTD     C8 1524   2.773   0.514   5.654  0.0867  0.0465  0.0261
    1BTD    C15 1525   2.794   0.644   5.603  0.0471  0.0346 -0.0210
    1BTD    C16 1526   2.925   0.701   5.598  0.0429  0.0326 -0.1393
    1BTD    C43 1527   2.898   0.948   5.594 -0.2235  0.0610 -0.1390
    1BTD    C44 1528   2.925   1.081   5.522 -0.6356  0.3060  0.5333
    1BTD    C45 1529   2.861   1.076   5.384  0.1946 -0.4401  0.6106
    1BTD    C46 1530   2.870   1.196   5.285  0.1380  0.2560 -0.2044
    1BTD    C47 1531   2.874   1.195   5.613 -0.6250 -1.0008  0.6434
    1BTD    C48 1532   2.735   1.212   5.678  0.7430 -0.4135 -0.3174
    1BTD    C49 1533   2.728   1.337   5.775  0.0203  0.3948 -0.0685
    1BTD    C50 1534   2.609   1.344   5.871 -0.0804 -0.2948  0.1072
    1BTD    C75 1535   2.651   0.795   5.456  0.1316  0.2572 -0.3714
    1BTD    C76 1536   2.531   0.877   5.404  0.3232 -0.3990  0.2851
    1BTD    C77 1537   2.529   0.917   5.256 -1.2450 -0.0530  0.3336
    1BTD    C78 1538   2.560   0.823   5.143  0.2006  0.3713  0.1431
    1BTD    C79 1539   2.501   0.996   5.502  0.3586 -0.3047  0.2006
    1BTD    C80 1540   2.384   1.091   5.475  0.0904 -0.0855  1.0444
    1BTD    C81 1541   2.346   1.201   5.572  0.0517  0.2048  0.5190
    1BTD    C82 1542   2.222   1.278   5.524 -0.0276  0.6116  0.0480
    2TTP     S1 1543   3.334   0.682   5.586  0.1077 -0.1627 -0.1209
    2TTP     S5 1544   3.220   1.046   5.387 -0.1052 -0.1179  0.0819
    2TTP     C1 1545   3.397   1.015   5.356 -0.0798  0.0184  0.0887
    2TTP     C2 1546   3.442   0.901   5.415 -0.0126  0.0126  0.0265
    2TTP     C3 1547   3.339   0.834   5.488  0.0213 -0.0997 -0.0288
    2TTP     C4 1548   3.157   0.713   5.618  0.0824 -0.2990 -0.1277
    2TTP    C17 1549   3.112   0.827   5.558  0.0153 -0.2932 -0.0655
    2TTP    C18 1550   3.215   0.894   5.486 -0.0188 -0.1809 -0.0101
    2TTP    C32 1551   3.583   0.840   5.407  0.1305  0.0185  0.2185
    2TTP    C33 1552   3.683   0.918   5.488 -0.2206 -0.4576  0.2379
    2TTP    C34 1553   3.829   0.873   5.465 -0.3015  0.4867  0.1934
    2TTP    C35 1554   3.949   0.962   5.501  0.3230 -0.0623  0.0974
    2TTP    C36 1555   3.970   0.978   5.648  0.3116 -0.3835 -0.3184
    2TTP    C37 1556   4.078   1.077   5.686 -0.3360 -0.5000 -0.4956
    2TTP    C38 1557   4.108   1.079   5.835  0.1880  0.6939 -0.3173
    2TTP    C39 1558   4.200   1.189   5.879  0.3383 -0.0950 -0.1249
    2TTP    C40 1559   4.156   1.334   5.886 -0.5871  0.6441 -0.4232
    2TTP    C41 1560   4.271   1.436   5.899  0.2528  0.3646 -0.0209
    2TTP    C42 1561   4.223   1.578   5.900  0.0909 -0.1132  0.0656
    3TTP     S1 1562   2.521   0.352   5.693 -0.0701 -0.4149  0.1351
    3TTP     S5 1563   2.289   0.683   5.544  0.3025 -0.0148  0.4412
    3TTP     C1 1564   2.175   0.552   5.598  0.1548  0.0533  0.2948
    3TTP     C2 1565   2.240   0.442   5.647  0.0311 -0.0663  0.1918
    3TTP     C3 1566   2.382   0.457   5.644  0.0484 -0.2159  0.2246
    3TTP     C4 1567   2.635   0.483   5.639  0.0776 -0.4829  0.2813
    3TTP    C17 1568   2.570   0.593   5.590  0.2013 -0.3634  0.3845
    3TTP    C18 1569   2.428   0.578   5.593  0.1841 -0.2137  0.3517
    3TTP    C32 1570   2.169   0.317   5.694 -0.4939  0.3445 -0.4200
    3TTP    C33 1571   2.249   0.184   5.724 -0.9446 -0.2249  0.3490
    3TTP    C34 1572   2.161   0.071   5.762  0.3557 -0.5052 -0.6447
    3TTP    C35 1573   2.232  -0.066   5.786 -0.7619 -0.1774 -0.5250
    3TTP    C36 1574   2.149  -0.182   5.768  0.4151  0.7659 -0.3501
    3TTP    C37 1575   2.215  -0.324   5.790  0.2599  0.0617 -0.7034
    3TTP    C38 1576   2.121  -0.446   5.782 -0.2766 -0.1614 -0.6077
    3TTP    C39 1577   2.017  -0.471   5.893  0.0256  0.1880  0.4455
    3TTP    C40 1578   1.945  -0.602   5.905 -0.1408  0.2760 -0.3231
    3TTP    C41 1579   1.815  -0.583   5.992 -0.6420  0.0863 -0.5781
    3TTP    C42 1580   1.732  -0.717   5.993  0.0958  0.1847  0.0708
    4BIM     F1 1581   3.365   1.809   5.152 -0.0958 -0.0486  0.0821
    4BIM     F2 1582   3.579   1.770   4.989 -0.3702 -0.0933 -0.2695
    4BIM     O1 1583   3.305   1.313   5.361  0.2143 -0.0082  0.2671
    4BIM     N5 1584   3.845   1.362   4.903 -0.5437 -0.1286 -0.6435
    4BIM     N6 1585   3.755   0.982   5.099 -0.2461 -0.0880 -0.4280
    4BIM    C19 1586   3.489   1.100   5.280  0.0622 -0.0365 -0.0032
    4BIM    C20 1587   3.496   1.227   5.233 -0.0050 -0.0449 -0.0360
    4BIM    C21 1588   3.398   1.330   5.280  0.0805 -0.0293  0.1099
    4BIM    C22 1589   3.433   1.456   5.211 -0.0254 -0.0439  0.0292
    4BIM    C23 1590   3.370   1.579   5.222  0.0025 -0.0372  0.1124
    4BIM    C24 1591   3.422   1.684   5.146 -0.1155 -0.0541  0.0086
    4BIM    C25 1592   3.532   1.664   5.062 -0.2569 -0.0772 -0.1725
    4BIM    C26 1593   3.595   1.540   5.050 -0.2855 -0.0840 -0.2564
    4BIM    C27 1594   3.544   1.434   5.126 -0.1673 -0.0671 -0.1534
    4BIM    C28 1595   3.587   1.292   5.137 -0.1604 -0.0686 -0.2007
    4BIM    C29 1596   3.692   1.233   5.070 -0.2761 -0.0882 -0.3659
    4BIM    C30 1597   3.776   1.304   4.978 -0.4228 -0.1103 -0.5180
    4BIM    C31 1598   3.726   1.095   5.087 -0.2589 -0.0879 -0.3991
    5BIM     F1 1599   1.649   1.029   5.183  0.1645  0.0979  0.1359
    5BIM     F2 1600   1.448   0.860   5.255  0.2674 -0.2851 -0.4623
    5BIM     O1 1601   2.071   0.799   5.431  0.0333  0.3636  0.6080
    5BIM     N5 1602   1.461   0.452   5.536  0.3218 -0.6463 -0.9857
    5BIM     N6 1603   1.832   0.307   5.715  0.1985 -0.3615 -0.4964
    5BIM    C19 1604   2.030   0.555   5.588  0.0850  0.0921  0.2042
    5BIM    C20 1605   1.931   0.620   5.523  0.1140  0.0402  0.1087
    5BIM    C21 1606   1.961   0.745   5.444  0.0845  0.1882  0.3302
    5BIM    C22 1607   1.832   0.789   5.386  0.1280  0.0837  0.1521
    5BIM    C23 1608   1.809   0.900   5.306  0.1209  0.1598  0.2583
    5BIM    C24 1609   1.679   0.921   5.263  0.1685  0.0323  0.0465
    5BIM    C25 1610   1.576   0.834   5.300  0.2215 -0.1649 -0.2616
    5BIM    C26 1611   1.598   0.723   5.381  0.2290 -0.2419 -0.3692
    5BIM    C27 1612   1.729   0.699   5.425  0.1812 -0.1151 -0.1581
    5BIM    C28 1613   1.786   0.592   5.510  0.1747 -0.1496 -0.1969
    5BIM    C29 1614   1.717   0.488   5.567  0.2168 -0.3242 -0.4652
    5BIM    C30 1615   1.577   0.469   5.550  0.2744 -0.5007 -0.7505
    5BIM    C31 1616   1.781   0.389   5.648  0.2065 -0.3437 -0.4808
    1BTD     S2 1617   7.316   4.301   5.551 -0.1214  0.1036 -0.1428
    1BTD     N1 1618   7.237   4.140   5.566 -0.0361  0.0589 -0.1687
    1BTD     N2 1619   7.171   4.383   5.483 -0.1513  0.0267 -0.1718
    1BTD     N3 1620   6.732   4.260   5.371 -0.0584 -0.2110 -0.2772
    1BTD     N4 1621   6.813   3.961   5.473  0.0836 -0.1711 -0.2735
    1BTD     C5 1622   7.014   4.050   5.516  0.0246 -0.0616 -0.2234
    1BTD     C6 1623   7.113   4.155   5.521 -0.0346 -0.0076 -0.1962
    1BTD     C7 1624   7.076   4.291   5.475 -0.0989 -0.0256 -0.1979
    1BTD     C8 1625   6.943   4.315   5.426 -0.1012 -0.0968 -0.2269
    1BTD    C15 1626   6.850   4.209   5.423 -0.0420 -0.1480 -0.2530
    1BTD    C16 1627   6.885   4.078   5.467  0.0202 -0.1306 -0.2511
    1BTD    C43 1628   6.667   3.945   5.493 -0.0846  0.2607  0.3215
    1BTD    C44 1629   6.582   3.825   5.464 -0.1829  0.2889 -0.1646
    1BTD    C45 1630   6.442   3.806   5.532  0.5987  0.2043  0.2397
    1BTD    C46 1631   6.437   3.833   5.683  0.2666  0.4183 -0.5117
    1BTD    C47 1632   6.586   3.805   5.308 -0.3245 -0.2973 -0.4403
    1BTD    C48 1633   6.555   3.667   5.265  0.1495  0.4850  0.3930
    1BTD    C49 1634   6.598   3.657   5.116 -0.6375 -0.4082 -0.6753
    1BTD    C50 1635   6.594   3.518   5.054 -0.1500  0.4000  0.5882
    1BTD    C75 1636   6.646   4.177   5.284  0.3028  0.0590  0.1926
    1BTD    C76 1637   6.505   4.221   5.254  0.0839  0.5500 -0.2445
    1BTD    C77 1638   6.428   4.180   5.132 -0.1436  0.1377 -0.3614
    1BTD    C78 1639   6.492   4.158   4.999  0.7811 -0.5299  0.4969
    1BTD    C79 1640   6.426   4.236   5.389 -0.2219 -0.1547  0.3996
    1BTD    C80 1641   6.284   4.282   5.392  0.5193 -0.3215  0.3472
    1BTD    C81 1642   6.198   4.280   5.516 -0.9508  0.2867 -0.3999
    1BTD    C82 1643   6.056   4.336   5.500 -0.4884 -0.3374 -0.1047
    2TTP     S1 1644   7.150   3.799   5.585 -0.1169 -0.2645 -0.0524
    2TTP     S5 1645   6.789   3.578   5.509 -0.1080 -0.3152  0.0523
    2TTP     C1 1646   6.923   3.460   5.543 -0.1262 -0.2912  0.2108
    2TTP     C2 1647   7.042   3.522   5.568 -0.1302 -0.2741  0.1875
    2TTP     C3 1648   7.032   3.664   5.562 -0.1187 -0.2794  0.0442
    2TTP     C4 1649   7.015   3.917   5.551 -0.0985 -0.2886 -0.2109
    2TTP    C17 1650   6.896   3.856   5.525 -0.0945 -0.3057 -0.1876
    2TTP    C18 1651   6.906   3.714   5.532 -0.1060 -0.3004 -0.0441
    2TTP    C32 1652   7.176   3.464   5.618 -0.1671 -0.5879  0.3804
    2TTP    C33 1653   7.290   3.468   5.508 -0.0085  0.7507  0.0299
    2TTP    C34 1654   7.264   3.395   5.376 -0.9143  0.5177  0.1643
    2TTP    C35 1655   7.388   3.402   5.288 -0.4558 -0.1846 -0.4123
    2TTP    C36 1656   7.361   3.322   5.159  0.1535  0.3537  0.2372
    2TTP    C37 1657   7.471   3.329   5.050 -0.0894 -0.2553 -0.7339
    2TTP    C38 1658   7.449   3.241   4.926 -0.0226 -0.1539 -0.1517
    2TTP    C39 1659   7.565   3.245   4.827  0.6968 -0.1628  0.6747
    2TTP    C40 1660   7.533   3.168   4.696 -0.3072  0.1352 -0.4822
    2TTP    C41 1661   7.626   3.209   4.591  0.0813  0.0232  0.6699
    2TTP    C42 1662   7.629   3.107   4.478 -0.3308 -0.4569  0.7664
    3TTP     S1 1663   6.917   4.606   5.382  0.2866 -0.1404 -0.0672
    3TTP     S5 1664   6.498   4.549   5.306  0.3104 -0.2064 -0.1491
    3TTP     C1 1665   6.534   4.728   5.305  0.3499 -0.2142 -0.5022
    3TTP     C2 1666   6.665   4.756   5.329  0.3450 -0.1945 -0.4975
    3TTP     C3 1667   6.743   4.637   5.348  0.3096 -0.1721 -0.2151
    3TTP     C4 1668   6.882   4.427   5.383  0.2470 -0.1324  0.2859
    3TTP    C17 1669   6.750   4.399   5.360  0.2522 -0.1523  0.2813
    3TTP    C18 1670   6.673   4.518   5.340  0.2873 -0.1746 -0.0012
    3TTP    C32 1671   6.724   4.892   5.351  0.0635 -0.0026 -0.1586
    3TTP    C33 1672   6.781   4.950   5.225 -0.2136 -0.0180  0.0410
    3TTP    C34 1673   6.864   5.077   5.237 -0.3871 -0.1020  0.5096
    3TTP    C35 1674   7.008   5.050   5.279 -0.0934 -0.7824 -0.1630
    3TTP    C36 1675   7.096   5.171   5.303  0.0194 -0.2548 -0.1565
    3TTP    C37 1676   7.249   5.141   5.313 -0.0457 -0.5606  0.2591
    3TTP    C38 1677   7.332   5.275   5.318  0.5381 -0.2382 -0.3093
    3TTP    C39 1678   7.479   5.266   5.331  0.7422 -0.2697 -0.4339
    3TTP    C40 1679   7.548   5.403   5.342 -0.0704 -0.4434 -0.3816
    3TTP    C41 1680   7.704   5.393   5.338  0.5138  0.2255  0.3760
    3TTP    C42 1681   7.778   5.518   5.300  0.2789  0.2351  0.0780
    4BIM     F1 1682   6.318   2.909   5.459  0.0254 -0.1233 -0.1607
    4BIM     F2 1683   6.498   2.712   5.511 -0.0914 -0.1599  0.1081
    4BIM     O1 1684   6.634   3.348   5.490  0.1582 -0.2207 -0.1322
    4BIM     N5 1685   6.982   2.742   5.609 -0.1645 -0.2821  0.5147
    4BIM     N6 1686   7.193   3.124   5.623 -0.0372 -0.3510  0.4829
    4BIM    C19 1687   6.918   3.315   5.551  0.0938 -0.2905  0.1347
    4BIM    C20 1688   6.832   3.213   5.541  0.0648 -0.2645  0.1172
    4BIM    C21 1689   6.687   3.237   5.510  0.1013 -0.2293 -0.0234
    4BIM    C22 1690   6.622   3.105   5.506  0.0559 -0.2074 -0.0058
    4BIM    C23 1691   6.488   3.077   5.481  0.0675 -0.1728 -0.1073
    4BIM    C24 1692   6.449   2.944   5.483  0.0174 -0.1574 -0.0658
    4BIM    C25 1693   6.542   2.843   5.510 -0.0431 -0.1764  0.0727
    4BIM    C26 1694   6.676   2.870   5.536 -0.0550 -0.2109  0.1743
    4BIM    C27 1695   6.717   3.004   5.534 -0.0044 -0.2269  0.1345
    4BIM    C28 1696   6.850   3.066   5.556 -0.0012 -0.2627  0.2155
    4BIM    C29 1697   6.967   3.000   5.586 -0.0504 -0.2891  0.3551
    4BIM    C30 1698   6.975   2.858   5.598 -0.1130 -0.2851  0.4424
    4BIM    C31 1699   7.091   3.069   5.606 -0.0428 -0.3231  0.4246
    5BIM     F1 1700   5.724   4.770   5.163 -0.1372 -0.2185  0.2019
    5BIM     F2 1701   5.755   5.032   5.097 -0.1976 -0.3010 -0.1560
    5BIM     O1 1702   6.233   4.635   5.291 -0.1230  0.0985  0.4814
    5BIM     N5 1703   6.163   5.313   5.092 -0.2743 -0.1935 -0.4718
    5BIM     N6 1704   6.554   5.155   5.206 -0.2511  0.0709 -0.1814
    5BIM    C19 1705   6.443   4.838   5.273 -0.1756  0.1325  0.2385
    5BIM    C20 1706   6.314   4.861   5.243 -0.1770  0.0559  0.1820
    5BIM    C21 1707   6.212   4.752   5.255 -0.1489  0.0435  0.3152
    5BIM    C22 1708   6.083   4.811   5.216 -0.1583 -0.0466  0.2096
    5BIM    C23 1709   5.958   4.749   5.211 -0.1401 -0.0881  0.2738
    5BIM    C24 1710   5.850   4.825   5.170 -0.1538 -0.1737  0.1477
    5BIM    C25 1711   5.866   4.960   5.136 -0.1851 -0.2161 -0.0368
    5BIM    C26 1712   5.990   5.023   5.141 -0.2033 -0.1750 -0.1018
    5BIM    C27 1713   6.101   4.948   5.181 -0.1897 -0.0885  0.0237
    5BIM    C28 1714   6.244   4.984   5.197 -0.2024 -0.0271 -0.0002
    5BIM    C29 1715   6.300   5.107   5.173 -0.2320 -0.0440 -0.1612
    5BIM    C30 1716   6.224   5.220   5.129 -0.2552 -0.1261 -0.3315
    5BIM    C31 1717   6.439   5.133   5.191 -0.2424  0.0193 -0.1714
    1BTD     S2 1718   6.717   0.028   3.255 -0.1048 -0.0076  0.0774
    1BTD     N1 1719   6.851   0.121   3.331  0.0304  0.0135 -0.1854
    1BTD     N2 1720   6.786  -0.133   3.297 -0.1546  0.0069  0.2142
    1BTD     N3 1721   7.167  -0.293   3.519 -0.0117  0.0746  0.0180
    1BTD     N4 1722   7.248   0.020   3.561  0.2164  0.0828 -0.4742
    1BTD     C5 1723   7.057   0.065   3.450  0.1247  0.0496 -0.3303
    1BTD     C6 1724   6.936   0.032   3.381  0.0315  0.0295 -0.1591
    1BTD     C7 1725   6.899  -0.110   3.362 -0.0721  0.0257  0.0646
    1BTD     C8 1726   6.986  -0.213   3.414 -0.0772  0.0422  0.1059
    1BTD    C15 1727   7.104  -0.176   3.481  0.0161  0.0617 -0.0668
    1BTD    C16 1728   7.139  -0.039   3.499  0.1159  0.0656 -0.2823
    1BTD    C43 1729   7.387  -0.033   3.550  0.3534 -0.4912 -0.1541
    1BTD    C44 1730   7.488   0.013   3.664 -0.2161 -0.3709 -0.0120
    1BTD    C45 1731   7.455  -0.054   3.799  0.0772  0.0124  0.1527
    1BTD    C46 1732   7.521  -0.008   3.932  0.7212 -0.2030 -0.2202
    1BTD    C47 1733   7.641   0.002   3.632  0.6558  0.1046 -0.7709
    1BTD    C48 1734   7.708  -0.139   3.625  0.3260 -0.2596  0.5703
    1BTD    C49 1735   7.858  -0.134   3.605  0.2148  0.4935 -0.0915
    1BTD    C50 1736   7.911  -0.275   3.594 -0.0716 -0.6232 -0.0380
    1BTD    C75 1737   7.247  -0.306   3.642 -0.4195 -0.4087 -0.3252
    1BTD    C76 1738   7.359  -0.414   3.661 -0.0140  0.0947 -0.7207
    1BTD    C77 1739   7.423  -0.421   3.801 -0.4247 -0.9022 -0.3900
    1BTD    C78 1740   7.327  -0.468   3.913 -0.4055  0.0855  0.2321
    1BTD    C79 1741   7.463  -0.398   3.548 -0.2604 -0.2596  0.1448
    1BTD    C80 1742   7.551  -0.524   3.527 -0.4764 -0.1162 -1.0077
    1BTD    C81 1743   7.660  -0.522   3.424 -0.9871 -0.8208  0.5395
    1BTD    C82 1744   7.766  -0.631   3.432 -0.2194 -0.4829 -0.0811
    2TTP     S1 1745   7.061   0.362   3.506  0.2008 -0.1337 -0.1502
    2TTP     S5 1746   7.418   0.312   3.739 -0.2153  0.0051  0.5219
    2TTP     C1 1747   7.366   0.486   3.749 -0.3634 -0.0386  0.5153
    2TTP     C2 1748   7.253   0.512   3.678 -0.2438 -0.0840  0.3074
    2TTP     C3 1749   7.203   0.395   3.612 -0.0305 -0.0860  0.1457
    2TTP     C4 1750   7.113   0.188   3.495  0.3489 -0.0900 -0.1436
    2TTP    C17 1751   7.226   0.162   3.567  0.2293 -0.0446  0.0643
    2TTP    C18 1752   7.276   0.279   3.632  0.0163 -0.0426  0.2260
    2TTP    C32 1753   7.181   0.652   3.665  0.1535  0.0178 -0.0843
    2TTP    C33 1754   7.234   0.740   3.550 -0.5013  0.2846 -0.2962
    2TTP    C34 1755   7.142   0.863   3.525 -0.1925 -0.2618  0.3936
    2TTP    C35 1756   7.186   0.941   3.400  0.3436  0.3445  0.0232
    2TTP    C36 1757   7.119   1.075   3.385 -0.0777 -0.3544 -0.4706
    2TTP    C37 1758   6.971   1.091   3.355  0.8058 -0.1393 -0.0652
    2TTP    C38 1759   6.919   1.039   3.221 -0.7675 -0.9344 -0.6712
    2TTP    C39 1760   6.974   1.116   3.100 -0.2989 -0.0164  0.2350
    2TTP    C40 1761   6.901   1.068   2.979  0.0603 -0.4009  0.5313
    2TTP    C41 1762   6.929   1.147   2.848  0.3755  0.1686 -0.2642
    2TTP    C42 1763   6.828   1.112   2.735 -0.4628 -0.4172 -0.2800
    3TTP     S1 1764   6.876  -0.487   3.343 -0.0362 -0.1400 -0.0174
    3TTP     S5 1765   7.219  -0.671   3.527  0.1802  0.1278 -0.1518
    3TTP     C1 1766   7.115  -0.801   3.455  0.2854  0.0503 -0.1645
    3TTP     C2 1767   7.003  -0.752   3.394  0.2247 -0.0370 -0.1237
    3TTP     C3 1768   6.995  -0.609   3.402  0.0931 -0.0458 -0.0809
    3TTP     C4 1769   6.981  -0.356   3.415 -0.1413 -0.0625 -0.0046
    3TTP    C17 1770   7.093  -0.405   3.476 -0.0805  0.0248 -0.0454
    3TTP    C18 1771   7.100  -0.548   3.468  0.0510  0.0334 -0.0882
    3TTP    C32 1772   6.891  -0.831   3.325  0.1209 -0.0428 -0.0373
    3TTP    C33 1773   6.911  -0.837   3.174 -0.3043 -0.3479  0.1670
    3TTP    C34 1774   6.808  -0.925   3.098 -0.0927 -0.1861 -0.5956
    3TTP    C35 1775   6.824  -1.074   3.138 -0.2875 -0.2665  0.3085
    3TTP    C36 1776   6.731  -1.155   3.051  0.6395  0.1470  0.1599
    3TTP    C37 1777   6.749  -1.312   3.060  0.2682 -0.2800  0.2525
    3TTP    C38 1778   6.726  -1.369   3.198  0.2912  0.0988  0.0880
    3TTP    C39 1779   6.780  -1.510   3.210  0.4704 -0.5290  0.5987
    3TTP    C40 1780   6.795  -1.538   3.355  0.7067 -0.3404  0.2076
    3TTP    C41 1781   6.888  -1.646   3.394  0.0949 -0.2132  0.2252
    3TTP    C42 1782   6.908  -1.664   3.548  0.8549  0.6719 -0.3633
    4BIM     F1 1783   8.009   0.470   4.266 -0.1721 -0.0518  0.0975
    4BIM     F2 1784   7.981   0.739   4.299 -0.0255 -0.0046 -0.1550
    4BIM     O1 1785   7.603   0.367   3.923 -0.1324 -0.1273  0.0736
    4BIM     N5 1786   7.652   1.051   4.103  0.2131  0.0096 -0.5352
    4BIM     N6 1787   7.340   0.916   3.828  0.2148 -0.0589 -0.5030
    4BIM    C19 1788   7.432   0.587   3.833  0.0216 -0.1090 -0.1763
    4BIM    C20 1789   7.536   0.602   3.918  0.0060 -0.0918 -0.1604
    4BIM    C21 1790   7.619   0.484   3.960 -0.0746 -0.1028 -0.0288
    4BIM    C22 1791   7.722   0.536   4.052 -0.0714 -0.0788 -0.0460
    4BIM    C23 1792   7.822   0.464   4.116 -0.1318 -0.0787  0.0485
    4BIM    C24 1793   7.908   0.535   4.199 -0.1147 -0.0534  0.0090
    4BIM    C25 1794   7.893   0.673   4.216 -0.0393 -0.0291 -0.1210
    4BIM    C26 1795   7.794   0.746   4.152  0.0213 -0.0290 -0.2159
    4BIM    C27 1796   7.706   0.676   4.068  0.0051 -0.0545 -0.1779
    4BIM    C28 1797   7.591   0.722   3.986  0.0556 -0.0615 -0.2534
    4BIM    C29 1798   7.544   0.851   3.976  0.1338 -0.0433 -0.3842
    4BIM    C30 1799   7.603   0.961   4.046  0.1771 -0.0143 -0.4668
    4BIM    C31 1800   7.432   0.886   3.895  0.1779 -0.0520 -0.4489
    5BIM     F1 1801   7.829  -1.193   3.518  0.0633  0.3166 -0.0514
    5BIM     F2 1802   7.692  -1.425   3.555  0.1434  0.3381  0.3983
    5BIM     O1 1803   7.422  -0.844   3.441 -0.0726  0.1023 -0.3092
    5BIM     N5 1804   7.204  -1.510   3.553  0.1616  0.2160  0.8613
    5BIM     N6 1805   6.914  -1.190   3.485  0.0391  0.0446  0.5692
    5BIM    C19 1806   7.147  -0.942   3.449 -0.0446  0.0467  0.0290
    5BIM    C20 1807   7.254  -1.021   3.467 -0.0136  0.0997  0.0763
    5BIM    C21 1808   7.393  -0.963   3.462 -0.0308  0.1256 -0.1068
    5BIM    C22 1809   7.486  -1.075   3.485  0.0120  0.1831  0.0018
    5BIM    C23 1810   7.625  -1.071   3.489  0.0138  0.2229 -0.0997
    5BIM    C24 1811   7.692  -1.190   3.513  0.0586  0.2746  0.0379
    5BIM    C25 1812   7.620  -1.310   3.532  0.0998  0.2861  0.2696
    5BIM    C26 1813   7.482  -1.315   3.528  0.0982  0.2460  0.3720
    5BIM    C27 1814   7.412  -1.195   3.504  0.0533  0.1936  0.2355
    5BIM    C28 1815   7.267  -1.166   3.493  0.0393  0.1428  0.2905
    5BIM    C29 1816   7.165  -1.257   3.506  0.0694  0.1369  0.4998
    5BIM    C30 1817   7.187  -1.396   3.532  0.1200  0.1802  0.6978
    5BIM    C31 1818   7.027  -1.220   3.494  0.0527  0.0861  0.5367
    1BTD     S2 1819   6.265   7.019   2.785  0.0338  0.3675  0.1325
    1BTD     N1 1820   6.420   7.032   2.874  0.0415  0.3973  0.1144
    1BTD     N2 1821   6.253   6.840   2.803  0.1154  0.3542  0.0568
    1BTD     N3 1822   6.510   6.501   3.002  0.2960  0.3811 -0.1301
    1BTD     N4 1823   6.716   6.738   3.089  0.2050  0.4346 -0.0591
    1BTD     C5 1824   6.572   6.876   2.985  0.1280  0.4162  0.0229
    1BTD     C6 1825   6.453   6.909   2.911  0.1016  0.3960  0.0558
    1BTD     C7 1826   6.360   6.802   2.871  0.1429  0.3718  0.0237
    1BTD     C8 1827   6.389   6.666   2.908  0.2085  0.3690 -0.0399
    1BTD    C15 1828   6.506   6.637   2.981  0.2324  0.3889 -0.0703
    1BTD    C16 1829   6.597   6.741   3.019  0.1926  0.4126 -0.0392
    1BTD    C43 1830   6.821   6.624   3.082 -0.1211 -0.4718 -0.1121
    1BTD    C44 1831   6.916   6.600   3.201 -0.6702  0.2072  0.7149
    1BTD    C45 1832   6.850   6.553   3.327  0.0729  0.1216 -0.3699
    1BTD    C46 1833   6.898   6.604   3.457 -0.7696 -0.6409 -0.2650
    1BTD    C47 1834   7.056   6.546   3.158 -0.5833  0.1930  0.4094
    1BTD    C48 1835   7.070   6.395   3.114  0.7929 -0.2197 -0.0444
    1BTD    C49 1836   7.083   6.308   3.235  0.1206 -0.3994 -0.2082
    1BTD    C50 1837   7.101   6.163   3.208 -0.5930  0.0814  0.1532
    1BTD    C75 1838   6.572   6.438   3.120  0.3303 -0.0539 -0.2850
    1BTD    C76 1839   6.616   6.294   3.132 -0.1757 -0.0421 -0.3754
    1BTD    C77 1840   6.627   6.248   3.280 -0.3915 -0.0936  0.2494
    1BTD    C78 1841   6.499   6.258   3.364  0.2774 -0.3197 -0.4533
    1BTD    C79 1842   6.739   6.265   3.043  0.3038 -0.4714 -0.3425
    1BTD    C80 1843   6.806   6.132   3.035  0.2225 -0.0580  1.1005
    1BTD    C81 1844   6.718   6.005   2.998  0.2317 -0.8555 -0.2083
    1BTD    C82 1845   6.784   5.870   3.007  0.4455 -0.3243  0.5861
    2TTP     S1 1846   6.744   7.124   3.015  0.0193 -0.1002 -0.2085
    2TTP     S5 1847   7.041   6.893   3.222 -0.2614 -0.1779  0.1080
    2TTP     C1 1848   7.099   7.065   3.211 -0.1677 -0.2097  0.0974
    2TTP     C2 1849   7.011   7.146   3.146 -0.0756 -0.1878 -0.0011
    2TTP     C3 1850   6.894   7.076   3.103 -0.0756 -0.1448 -0.0716
    2TTP     C4 1851   6.686   6.952   3.026 -0.0744 -0.0682 -0.1979
    2TTP    C17 1852   6.775   6.870   3.090 -0.1665 -0.0902 -0.0995
    2TTP    C18 1853   6.891   6.941   3.134 -0.1665 -0.1332 -0.0289
    2TTP    C32 1854   7.018   7.299   3.131  0.1927 -0.3474 -0.4149
    2TTP    C33 1855   6.957   7.373   3.007 -0.1107  0.4754 -1.0368
    2TTP    C34 1856   6.936   7.525   3.021  0.0976 -0.2916  0.0479
    2TTP    C35 1857   7.055   7.605   3.075 -0.7022  0.3736  0.3988
    2TTP    C36 1858   7.045   7.761   3.056  0.1386  0.2484 -0.3088
    2TTP    C37 1859   7.174   7.823   3.109 -0.3515  0.0066 -0.6173
    2TTP    C38 1860   7.199   7.969   3.080 -0.5766 -0.4466  0.1708
    2TTP    C39 1861   7.343   8.018   3.099  0.7245 -0.0188 -0.7554
    2TTP    C40 1862   7.354   8.163   3.073  0.5338 -0.2183 -0.6721
    2TTP    C41 1863   7.275   8.260   3.157  0.0791 -0.1848 -0.1111
    2TTP    C42 1864   7.328   8.404   3.142 -0.2900 -0.3865 -0.0190
    3TTP     S1 1865   6.172   6.490   2.807  0.0726  0.2780  0.0317
    3TTP     S5 1866   6.341   6.154   3.015 -0.3301  0.0262 -0.0452
    3TTP     C1 1867   6.184   6.102   2.939 -0.3680  0.2182 -0.0995
    3TTP     C2 1868   6.123   6.203   2.870 -0.2458  0.3072 -0.0789
    3TTP     C3 1869   6.197   6.325   2.875 -0.1180  0.2272 -0.0196
    3TTP     C4 1870   6.329   6.542   2.883  0.1104  0.0862  0.0860
    3TTP    C17 1871   6.390   6.442   2.952 -0.0118 -0.0028  0.0655
    3TTP    C18 1872   6.316   6.320   2.947 -0.1396  0.0774  0.0061
    3TTP    C32 1873   5.979   6.210   2.812 -0.5261  0.1996  0.5544
    3TTP    C33 1874   5.961   6.201   2.662  0.6294  1.0491  0.2161
    3TTP    C34 1875   5.822   6.219   2.606 -0.2070 -0.2330  0.3404
    3TTP    C35 1876   5.720   6.108   2.613 -0.4160 -0.5306 -0.2118
    3TTP    C36 1877   5.757   5.987   2.524  0.4916  0.4859 -0.5385
    3TTP    C37 1878   5.666   5.874   2.556 -0.3496  0.7872  0.1583
    3TTP    C38 1879   5.685   5.753   2.460 -0.1127  0.3761 -0.3510
    3TTP    C39 1880   5.815   5.661   2.454  0.1270  0.3744 -0.0038
    3TTP    C40 1881   5.837   5.605   2.597  0.9020  0.4462  0.2549
    3TTP    C41 1882   5.977   5.544   2.605 -0.2196  0.3885 -0.3893
    3TTP    C42 1883   5.993   5.456   2.730 -0.1727  0.3916  0.7625
    4BIM     F1 1884   7.833   6.753   3.399  0.1756  0.0789  0.2981
    4BIM     F2 1885   7.908   6.997   3.494  0.0366  0.1580  0.2046
    4BIM     O1 1886   7.330   6.858   3.229  0.1481 -0.2512  0.1752
    4BIM     N5 1887   7.656   7.423   3.510 -0.1836  0.0366 -0.0176
    4BIM     N6 1888   7.248   7.456   3.358 -0.1770 -0.2372 -0.0948
    4BIM    C19 1889   7.222   7.129   3.259  0.0051 -0.2926  0.0421
    4BIM    C20 1890   7.346   7.093   3.298  0.0174 -0.2128  0.0767
    4BIM    C21 1891   7.394   6.952   3.279  0.0925 -0.1966  0.1448
    4BIM    C22 1892   7.532   6.947   3.332  0.0867 -0.1035  0.1681
    4BIM    C23 1893   7.618   6.838   3.337  0.1422 -0.0582  0.2285
    4BIM    C24 1894   7.743   6.857   3.392  0.1236  0.0299  0.2394
    4BIM    C25 1895   7.781   6.983   3.441  0.0519  0.0705  0.1912
    4BIM    C26 1896   7.696   7.093   3.437 -0.0036  0.0257  0.1308
    4BIM    C27 1897   7.569   7.075   3.381  0.0141 -0.0634  0.1188
    4BIM    C28 1898   7.456   7.169   3.362 -0.0314 -0.1291  0.0607
    4BIM    C29 1899   7.454   7.302   3.398 -0.1048 -0.1148  0.0031
    4BIM    C30 1900   7.565   7.368   3.459 -0.1477 -0.0315 -0.0080
    4BIM    C31 1901   7.341   7.386   3.375 -0.1442 -0.1822 -0.0504
    5BIM     F1 1902   6.503   5.366   3.106 -0.1040 -0.0099  0.4575
    5BIM     F2 1903   6.250   5.269   3.132 -0.1425 -0.1303 -0.3183
    5BIM     O1 1904   6.402   5.880   2.970  0.0728  0.0805  0.6663
    5BIM     N5 1905   5.814   5.495   3.073 -0.0721 -0.2389 -1.2848
    5BIM     N6 1906   5.786   5.917   2.962  0.0738 -0.1441 -0.9652
    5BIM    C19 1907   6.124   5.970   2.947  0.0985 -0.0026 -0.0007
    5BIM    C20 1908   6.159   5.844   2.980  0.0557 -0.0205 -0.0229
    5BIM    C21 1909   6.304   5.806   2.990  0.0449  0.0248  0.3330
    5BIM    C22 1910   6.307   5.663   3.028 -0.0045 -0.0098  0.2069
    5BIM    C23 1911   6.419   5.583   3.049 -0.0300  0.0125  0.4344
    5BIM    C24 1912   6.397   5.451   3.084 -0.0764 -0.0290  0.2499
    5BIM    C25 1913   6.267   5.401   3.097 -0.0963 -0.0909 -0.1499
    5BIM    C26 1914   6.154   5.480   3.076 -0.0709 -0.1136 -0.3786
    5BIM    C27 1915   6.175   5.614   3.041 -0.0237 -0.0722 -0.1971
    5BIM    C28 1916   6.079   5.724   3.012  0.0123 -0.0814 -0.3541
    5BIM    C29 1917   5.942   5.715   3.015  0.0067 -0.1357 -0.7339
    5BIM    C30 1918   5.872   5.594   3.047 -0.0365 -0.1922 -1.0355
    5BIM    C31 1919   5.857   5.826   2.985  0.0436 -0.1401 -0.8590
    1BTD     S2 1920   3.192   9.124   7.621  0.1587 -0.1428  0.0382
    1BTD     N1 1921   3.324   9.002   7.625  0.2251 -0.0660  0.2087
    1BTD     N2 1922   3.302   9.265   7.637  0.0808 -0.0618 -0.1452
    1BTD     N3 1923   3.765   9.333   7.675  0.0421  0.2422 -0.2112
    1BTD     N4 1924   3.792   9.008   7.660  0.2199  0.2370  0.2248
    1BTD     C5 1925   3.568   9.009   7.644  0.2203  0.0920  0.2118
    1BTD     C6 1926   3.438   9.069   7.637  0.1878  0.0124  0.1243
    1BTD     C7 1927   3.425   9.216   7.644  0.1070  0.0145 -0.0736
    1BTD     C8 1928   3.544   9.296   7.656  0.0627  0.0970 -0.1744
    1BTD    C15 1929   3.670   9.233   7.663  0.0970  0.1737 -0.0831
    1BTD    C16 1930   3.682   9.091   7.656  0.1749  0.1715  0.1078
    1BTD    C43 1931   3.922   9.035   7.604  0.4430 -0.6935 -0.0126
    1BTD    C44 1932   4.051   8.980   7.656 -0.4691 -0.0751 -0.8432
    1BTD    C45 1933   4.071   8.973   7.808 -0.5357  0.1653 -0.2777
    1BTD    C46 1934   4.192   8.893   7.871 -0.3904  0.4261  0.3826
    1BTD    C47 1935   4.158   9.052   7.567  0.4279 -0.0503  0.2057
    1BTD    C48 1936   4.203   9.191   7.608  0.1972 -0.0578  0.0101
    1BTD    C49 1937   4.294   9.256   7.511  0.3536 -0.5025  0.6869
    1BTD    C50 1938   4.342   9.394   7.553  0.1279  0.3981 -0.3065
    1BTD    C75 1939   3.896   9.331   7.744 -0.5160  0.5006  0.4840
    1BTD    C76 1940   3.913   9.376   7.892  0.2798  0.3823 -0.3090
    1BTD    C77 1941   4.054   9.384   7.954  0.0635 -0.7424 -0.0762
    1BTD    C78 1942   4.140   9.489   7.885 -0.0581 -0.8569 -0.2868
    1BTD    C79 1943   3.817   9.296   7.977 -0.4276 -0.2394  0.4113
    1BTD    C80 1944   3.790   9.321   8.121  0.2178 -0.2645 -0.1623
    1BTD    C81 1945   3.702   9.220   8.185  0.3598 -0.0319  0.0742
    1BTD    C82 1946   3.700   9.235   8.334  0.2671  0.1250 -0.2171
    2TTP     S1 1947   3.544   8.703   7.629  0.2455  0.1565  0.0870
    2TTP     S5 1948   3.973   8.668   7.640  0.2545  0.2880  0.1642
    2TTP     C1 1949   3.901   8.501   7.626  0.3041  0.2572  0.2822
    2TTP     C2 1950   3.765   8.502   7.622  0.3043  0.2143  0.2652
    2TTP     C3 1951   3.711   8.635   7.630  0.2652  0.2053  0.1585
    2TTP     C4 1952   3.616   8.870   7.642  0.1959  0.1874 -0.0310
    2TTP    C17 1953   3.752   8.869   7.647  0.1957  0.2302 -0.0140
    2TTP    C18 1954   3.805   8.736   7.639  0.2347  0.2401  0.0927
    2TTP    C32 1955   3.675   8.382   7.576 -0.1400  0.2328  0.4426
    2TTP    C33 1956   3.524   8.390   7.562 -0.8557  0.1819  0.3640
    2TTP    C34 1957   3.492   8.288   7.461 -0.2932  0.3145 -0.2439
    2TTP    C35 1958   3.346   8.268   7.439 -0.2594 -0.4934  0.7073
    2TTP    C36 1959   3.297   8.167   7.336  0.0792  0.3583  0.4994
    2TTP    C37 1960   3.147   8.176   7.347 -0.3343 -0.2402 -0.2185
    2TTP    C38 1961   3.081   8.114   7.228 -0.7446  0.2193  0.0655
    2TTP    C39 1962   2.928   8.122   7.210 -0.3808 -0.3070  0.2251
    2TTP    C40 1963   2.880   8.093   7.066  0.0990 -0.4793  0.2431
    2TTP    C41 1964   2.729   8.098   7.040  0.4482 -0.2410 -0.4833
    2TTP    C42 1965   2.654   7.959   7.061 -0.1618  0.0320 -0.0180
    3TTP     S1 1966   3.482   9.588   7.590  0.0743  0.0275 -0.0270
    3TTP     S5 1967   3.900   9.678   7.635  0.1009 -0.1396  0.0619
    3TTP     C1 1968   3.815   9.827   7.574  0.2263 -0.1996 -0.2603
    3TTP     C2 1969   3.681   9.808   7.556  0.2255 -0.1515 -0.3066
    3TTP     C3 1970   3.640   9.675   7.591  0.1258 -0.0656 -0.0895
    3TTP     C4 1971   3.567   9.440   7.652 -0.0511  0.0875  0.2952
    3TTP    C17 1972   3.701   9.459   7.669 -0.0504  0.0393  0.3415
    3TTP    C18 1973   3.741   9.591   7.635  0.0494 -0.0465  0.1243
    3TTP    C32 1974   3.580   9.917   7.517 -0.1212  0.7271  0.1050
    3TTP    C33 1975   3.473   9.945   7.629  0.8860  0.2702  0.2899
    3TTP    C34 1976   3.382  10.076   7.611 -0.0309 -0.0561 -0.6459
    3TTP    C35 1977   3.267  10.071   7.709  0.6266 -0.0540  0.4644
    3TTP    C36 1978   3.174  10.188   7.721 -0.5313  0.4263  1.0804
    3TTP    C37 1979   3.234  10.305   7.792  0.1447 -0.3553  0.5472
    3TTP    C38 1980   3.166  10.445   7.792 -0.2193 -0.0631  0.6154
    3TTP    C39 1981   3.170  10.515   7.654 -0.3444 -0.0464 -0.3216
    3TTP    C40 1982   3.127  10.663   7.654  0.2791 -0.2844  0.2155
    3TTP    C41 1983   3.130  10.733   7.519  0.4598 -0.4044 -0.2893
    3TTP    C42 1984   3.091  10.881   7.526 -0.4736 -0.4429 -0.4806
    4BIM     F1 1985   4.676   8.279   7.778  0.0540  0.1757 -0.2327
    4BIM     F2 1986   4.616   8.031   7.683 -0.0010  0.0262  0.1887
    4BIM     O1 1987   4.196   8.525   7.729  0.0557  0.1354 -0.4526
    4BIM     N5 1988   4.189   7.850   7.512 -0.0790 -0.2171  0.6379
    4BIM     N6 1989   3.826   8.092   7.493 -0.0667 -0.2184  0.3812
    4BIM    C19 1990   3.969   8.376   7.621  0.0037 -0.0215 -0.1280
    4BIM    C20 1991   4.092   8.324   7.637  0.0054 -0.0055 -0.0892
    4BIM    C21 1992   4.204   8.407   7.693  0.0329  0.0768 -0.2643
    4BIM    C22 1993   4.323   8.320   7.697  0.0274  0.0734 -0.1683
    4BIM    C23 1994   4.451   8.353   7.742  0.0465  0.1352 -0.2681
    4BIM    C24 1995   4.547   8.253   7.736  0.0363  0.1176 -0.1441
    4BIM    C25 1996   4.516   8.126   7.687  0.0080  0.0407  0.0729
    4BIM    C26 1997   4.389   8.092   7.643 -0.0112 -0.0212  0.1737
    4BIM    C27 1998   4.290   8.191   7.648 -0.0013 -0.0048  0.0508
    4BIM    C28 1999   4.147   8.189   7.609 -0.0160 -0.0565  0.1080
    4BIM    C29 2000   4.078   8.081   7.556 -0.0440 -0.1359  0.3059
    4BIM    C30 2001   4.139   7.954   7.532 -0.0632 -0.1801  0.4878
    4BIM    C31 2002   3.940   8.088   7.522 -0.0563 -0.1807  0.3461
    5BIM     F1 2003   4.576  10.125   7.693 -0.1479  0.2757  0.3334
    5BIM     F2 2004   4.476  10.375   7.653 -0.0942  0.2024 -0.2905
    5BIM     O1 2005   4.132   9.824   7.621 -0.1224  0.1622  0.6499
    5BIM     N5 2006   4.015  10.520   7.546  0.0015  0.0161 -0.9619
    5BIM     N6 2007   3.688  10.234   7.498  0.0107 -0.0578 -0.5885
    5BIM    C19 2008   3.878   9.956   7.558 -0.0618  0.0518  0.1664
    5BIM    C20 2009   3.994  10.022   7.578 -0.0703  0.0832  0.1111
    5BIM    C21 2010   4.120   9.947   7.610 -0.1018  0.1396  0.3721
    5BIM    C22 2011   4.226  10.048   7.625 -0.1036  0.1623  0.2320
    5BIM    C23 2012   4.360  10.027   7.655 -0.1284  0.2134  0.3818
    5BIM    C24 2013   4.442  10.139   7.664 -0.1245  0.2258  0.2002
    5BIM    C25 2014   4.390  10.268   7.643 -0.0967  0.1880 -0.1213
    5BIM    C26 2015   4.256  10.290   7.614 -0.0719  0.1369 -0.2723
    5BIM    C27 2016   4.172  10.178   7.604 -0.0753  0.1236 -0.0924
    5BIM    C28 2017   4.027  10.166   7.574 -0.0539  0.0735 -0.1794
    5BIM    C29 2018   3.941  10.270   7.549 -0.0243  0.0270 -0.4730
    5BIM    C30 2019   3.982  10.407   7.547 -0.0102  0.0212 -0.7408
    5BIM    C31 2020   3.802  10.250   7.521 -0.0052 -0.0194 -0.5349
    1BTD     S2 2021   8.025   0.813   6.591  0.0586 -0.3830 -0.1573
    1BTD     N1 2022   7.852   0.862   6.592  0.0914 -0.2681  0.0427
    1BTD     N2 2023   7.991   0.638   6.569 -0.0806 -0.3513 -0.1976
    1BTD     N3 2024   7.610   0.368   6.527 -0.3047 -0.0795  0.0811
    1BTD     N4 2025   7.438   0.644   6.555 -0.0927  0.0230  0.3774
    1BTD     C5 2026   7.638   0.744   6.573 -0.0073 -0.1173  0.2140
    1BTD     C6 2027   7.782   0.750   6.577  0.0017 -0.2149  0.0677
    1BTD     C7 2028   7.860   0.625   6.564 -0.0945 -0.2614 -0.0669
    1BTD     C8 2029   7.790   0.500   6.548 -0.1949 -0.2081 -0.0486
    1BTD    C15 2030   7.649   0.499   6.544 -0.2001 -0.1128  0.0968
    1BTD    C16 2031   7.574   0.620   6.556 -0.1073 -0.0680  0.2264
    1BTD    C43 2032   7.334   0.547   6.597  0.1874 -0.8893  0.4188
    1BTD    C44 2033   7.290   0.527   6.743 -0.3509  0.2922  0.7372
    1BTD    C45 2034   7.407   0.476   6.824 -0.1129  0.5014  0.2627
    1BTD    C46 2035   7.408   0.463   6.976  0.3069 -0.4926  0.1513
    1BTD    C47 2036   7.176   0.435   6.765  0.2454 -0.3213  0.1167
    1BTD    C48 2037   7.035   0.481   6.720  0.0059  0.0962 -0.4400
    1BTD    C49 2038   6.934   0.369   6.730  0.1542 -0.2527 -0.0580
    1BTD    C50 2039   6.789   0.414   6.702 -0.4409 -0.3449  0.5464
    1BTD    C75 2040   7.505   0.329   6.433 -0.4429 -0.4643  0.2361
    1BTD    C76 2041   7.431   0.198   6.424  0.3016 -0.3140  0.0256
    1BTD    C77 2042   7.341   0.183   6.297  0.0128 -0.1925  0.0486
    1BTD    C78 2043   7.230   0.285   6.273  0.1512  0.4135 -0.9490
    1BTD    C79 2044   7.358   0.176   6.562 -0.3014 -0.3711  0.4699
    1BTD    C80 2045   7.318   0.036   6.586  0.4287 -0.1851 -0.3536
    1BTD    C81 2046   7.239   0.022   6.714  0.0508 -0.4737  0.5267
    1BTD    C82 2047   7.218  -0.128   6.751 -0.3151 -0.7274 -0.6068
    2TTP     S1 2048   7.526   1.015   6.642  0.0285  0.1317 -0.1513
    2TTP     S5 2049   7.133   0.840   6.663 -0.0335  0.2681 -0.1702
    2TTP     C1 2050   7.123   1.012   6.720  0.0399  0.2456 -0.0876
    2TTP     C2 2051   7.243   1.076   6.717  0.0633  0.2021 -0.0769
    2TTP     C3 2052   7.348   0.992   6.670  0.0243  0.1850 -0.1336
    2TTP     C4 2053   7.536   0.842   6.586 -0.0447  0.1542 -0.2339
    2TTP    C17 2054   7.416   0.778   6.589 -0.0683  0.1976 -0.2447
    2TTP    C18 2055   7.311   0.863   6.636 -0.0292  0.2147 -0.1879
    2TTP    C32 2056   7.281   1.228   6.739  0.3115  0.3322  0.4160
    2TTP    C33 2057   7.293   1.277   6.880 -0.2458  0.1787 -0.1282
    2TTP    C34 2058   7.339   1.416   6.915 -0.1841 -0.0567  0.2217
    2TTP    C35 2059   7.230   1.516   6.959 -1.3461 -0.6290  0.1714
    2TTP    C36 2060   7.157   1.455   7.077 -0.3913 -0.2286 -0.3956
    2TTP    C37 2061   7.018   1.506   7.099  0.0617 -0.0694  0.5392
    2TTP    C38 2062   6.912   1.420   7.168  0.3221 -0.3149 -0.3400
    2TTP    C39 2063   6.876   1.289   7.113 -0.2251  0.1284  0.0498
    2TTP    C40 2064   6.758   1.220   7.180 -0.1389  0.2496 -0.3982
    2TTP    C41 2065   6.756   1.076   7.171  0.4613  0.2182 -0.4208
    2TTP    C42 2066   6.643   1.005   7.248  0.6334  0.2114  0.7588
    3TTP     S1 2067   7.989   0.280   6.573 -0.1847 -0.1079 -0.2217
    3TTP     S5 2068   7.666   0.000   6.620 -0.3070  0.0876  0.1098
    3TTP     C1 2069   7.822  -0.085   6.660 -0.3424  0.0623  0.1945
    3TTP     C2 2070   7.931  -0.003   6.648 -0.3067  0.0003  0.0970
    3TTP     C3 2071   7.895   0.129   6.607 -0.2502 -0.0293 -0.0479
    3TTP     C4 2072   7.833   0.364   6.533 -0.1491 -0.0824 -0.3066
    3TTP    C17 2073   7.724   0.283   6.545 -0.1850 -0.0206 -0.2091
    3TTP    C18 2074   7.760   0.151   6.587 -0.2415  0.0090 -0.0640
    3TTP    C32 2075   8.078  -0.032   6.678  0.1643  0.4676 -0.5462
    3TTP    C33 2076   8.128   0.029   6.807 -0.1996  0.3642 -0.1149
    3TTP    C34 2077   8.276  -0.000   6.833  0.0922  0.4850  0.0572
    3TTP    C35 2078   8.335   0.057   6.960 -0.1026 -0.0695  0.2316
    3TTP    C36 2079   8.484   0.028   6.981 -0.5893  0.2504 -0.2211
    3TTP    C37 2080   8.539   0.083   7.111  0.0374  0.3202 -0.5869
    3TTP    C38 2081   8.688   0.061   7.137 -0.0342  0.5731  0.1471
    3TTP    C39 2082   8.733   0.126   7.272 -0.5922  0.8722 -0.4688
    3TTP    C40 2083   8.887   0.122   7.299  0.0103 -0.4227  0.1695
    3TTP    C41 2084   8.939   0.166   7.438  0.6596  0.4162 -0.5660
    3TTP    C42 2085   9.081   0.204   7.455  0.4191 -0.2247  0.6337
    4BIM     F1 2086   6.363   0.770   6.912  0.1701 -0.1735  0.0304
    4BIM     F2 2087   6.276   1.021   6.852  0.1477 -0.1189  0.2919
    4BIM     O1 2088   6.896   0.824   6.831  0.1143 -0.1595 -0.3303
    4BIM     N5 2089   6.531   1.420   6.710  0.0759 -0.0306  0.4107
    4BIM     N6 2090   6.964   1.412   6.658  0.0366 -0.0306  0.0761
    4BIM    C19 2091   7.002   1.083   6.745  0.0730 -0.1024 -0.2087
    4BIM    C20 2092   6.871   1.060   6.768  0.0880 -0.1081 -0.1281
    4BIM    C21 2093   6.824   0.924   6.812  0.1087 -0.1379 -0.1986
    4BIM    C22 2094   6.678   0.933   6.827  0.1212 -0.1365 -0.0806
    4BIM    C23 2095   6.590   0.832   6.866  0.1415 -0.1589 -0.0927
    4BIM    C24 2096   6.456   0.864   6.874  0.1501 -0.1524  0.0345
    4BIM    C25 2097   6.411   0.994   6.843  0.1386 -0.1243  0.1690
    4BIM    C26 2098   6.498   1.095   6.804  0.1183 -0.1018  0.1819
    4BIM    C27 2099   6.635   1.064   6.796  0.1094 -0.1080  0.0545
    4BIM    C28 2100   6.752   1.147   6.758  0.0885 -0.0894  0.0304
    4BIM    C29 2101   6.750   1.280   6.722  0.0725 -0.0604  0.1355
    4BIM    C30 2102   6.629   1.356   6.715  0.0743 -0.0441  0.2865
    4BIM    C31 2103   6.868   1.352   6.687  0.0529 -0.0442  0.1022
    5BIM     F1 2104   7.377  -0.763   6.532  0.1061 -0.1376  0.1280
    5BIM     F2 2105   7.570  -0.907   6.658  0.0571 -0.1302  0.2129
    5BIM     O1 2106   7.586  -0.264   6.561  0.1354 -0.1488  0.1032
    5BIM     N5 2107   7.997  -0.759   6.860  0.0074 -0.1276  0.3173
    5BIM     N6 2108   8.122  -0.341   6.857  0.0403 -0.1378  0.2809
    5BIM    C19 2109   7.845  -0.225   6.691  0.0991 -0.1458  0.1756
    5BIM    C20 2110   7.785  -0.345   6.679  0.0935 -0.1431  0.1785
    5BIM    C21 2111   7.652  -0.357   6.611  0.1134 -0.1450  0.1400
    5BIM    C22 2112   7.615  -0.500   6.615  0.1011 -0.1416  0.1541
    5BIM    C23 2113   7.500  -0.560   6.564  0.1118 -0.1416  0.1297
    5BIM    C24 2114   7.488  -0.697   6.580  0.0966 -0.1378  0.1504
    5BIM    C25 2115   7.587  -0.771   6.645  0.0712 -0.1339  0.1940
    5BIM    C26 2116   7.702  -0.712   6.696  0.0606 -0.1338  0.2187
    5BIM    C27 2117   7.717  -0.573   6.681  0.0756 -0.1376  0.1984
    5BIM    C28 2118   7.825  -0.481   6.723  0.0702 -0.1383  0.2151
    5BIM    C29 2119   7.940  -0.515   6.789  0.0471 -0.1352  0.2564
    5BIM    C30 2120   7.971  -0.649   6.828  0.0254 -0.1311  0.2898
    5BIM    C31 2121   8.039  -0.419   6.826  0.0434 -0.1369  0.2697
    1BTD     S2 2122   8.859   1.841   5.796 -0.0254  0.1771  0.0345
    1BTD     N1 2123   8.801   1.982   5.892  0.0541  0.3145 -0.1194
    1BTD     N2 2124   9.015   1.827   5.884 -0.1206  0.0570  0.1850
    1BTD     N3 2125   9.230   2.052   6.236 -0.1717  0.0604  0.2142
    1BTD     N4 2126   8.966   2.243   6.245  0.0434  0.3777 -0.1612
    1BTD     C5 2127   8.891   2.116   6.076  0.0460  0.3437 -0.1367
    1BTD     C6 2128   8.897   2.010   5.980  0.0076  0.2663 -0.0541
    1BTD     C7 2129   9.016   1.923   5.975 -0.0901  0.1222  0.1165
    1BTD     C8 2130   9.124   1.946   6.068 -0.1445  0.0627  0.1957
    1BTD    C15 2131   9.114   2.052   6.160 -0.1044  0.1423  0.1101
    1BTD    C16 2132   8.999   2.136   6.165 -0.0101  0.2811 -0.0543
    1BTD    C43 2133   9.061   2.321   6.333 -0.1158  0.1587  0.8768
    1BTD    C44 2134   9.015   2.404   6.444 -0.0564  0.7292 -0.3938
    1BTD    C45 2135   9.107   2.508   6.505 -0.5237  0.2264 -0.1434
    1BTD    C46 2136   9.160   2.624   6.414 -0.2265  0.0518  0.1150
    1BTD    C47 2137   8.942   2.320   6.546  0.2191 -0.2406 -0.5500
    1BTD    C48 2138   8.860   2.394   6.656  0.1763  0.5902 -0.0350
    1BTD    C49 2139   8.722   2.351   6.708  0.0881 -0.1385  0.6856
    1BTD    C50 2140   8.614   2.329   6.603  0.1019  0.6827  0.1015
    1BTD    C75 2141   9.228   2.065   6.383  0.2592 -0.1114 -0.0351
    1BTD    C76 2142   9.344   2.135   6.460 -0.1441 -0.2870  0.5338
    1BTD    C77 2143   9.407   2.250   6.391 -0.5374 -0.5965  0.4186
    1BTD    C78 2144   9.546   2.306   6.439 -0.3178  0.6414  0.2013
    1BTD    C79 2145   9.315   2.155   6.609 -0.3900 -0.1011 -0.2826
    1BTD    C80 2146   9.276   2.033   6.691  0.4299 -0.3506  0.1072
    1BTD    C81 2147   9.234   2.045   6.836  0.5802  0.6392 -0.2205
    1BTD    C82 2148   9.110   2.123   6.857  0.0182  0.0706 -0.3931
    2TTP     S1 2149   8.637   2.273   6.034 -0.0868  0.0408 -0.0311
    2TTP     S5 2150   8.760   2.553   6.337 -0.2627  0.0559  0.0267
    2TTP     C1 2151   8.599   2.607   6.270 -0.1454  0.1454 -0.1880
    2TTP     C2 2152   8.552   2.523   6.173 -0.0839  0.1459 -0.2186
    2TTP     C3 2153   8.641   2.414   6.147 -0.1276  0.0758 -0.0734
    2TTP     C4 2154   8.798   2.220   6.101 -0.2038 -0.0486  0.1836
    2TTP    C17 2155   8.845   2.303   6.198 -0.2652 -0.0492  0.2142
    2TTP    C18 2156   8.756   2.412   6.223 -0.2217  0.0209  0.0690
    2TTP    C32 2157   8.420   2.522   6.101 -0.0124 -0.0626 -0.1135
    2TTP    C33 2158   8.435   2.601   5.970 -0.4733 -0.3669  0.5055
    2TTP    C34 2159   8.309   2.579   5.889  0.3841  0.4363  0.4706
    2TTP    C35 2160   8.293   2.645   5.758  0.4635  0.1209  0.2354
    2TTP    C36 2161   8.317   2.793   5.733  0.2221 -0.4312  0.0379
    2TTP    C37 2162   8.267   2.839   5.594  0.0523 -0.2148  0.4465
    2TTP    C38 2163   8.267   2.992   5.580 -0.1390  0.0211 -0.0037
    2TTP    C39 2164   8.204   3.027   5.441 -0.4609 -0.1078  0.1663
    2TTP    C40 2165   8.211   3.173   5.400 -0.1741 -0.1625  0.1742
    2TTP    C41 2166   8.347   3.207   5.336 -0.6152 -0.1685  0.7859
    2TTP    C42 2167   8.367   3.358   5.300  0.0411  0.7790 -0.2812
    3TTP     S1 2168   9.354   1.754   6.016  0.3059  0.1389 -0.0285
    3TTP     S5 2169   9.582   1.947   6.326  0.0062 -0.4267  0.5494
    3TTP     C1 2170   9.683   1.813   6.254  0.1072 -0.2403  0.3447
    3TTP     C2 2171   9.618   1.746   6.154  0.2060 -0.0547  0.1543
    3TTP     C3 2172   9.487   1.797   6.131  0.2048 -0.0529  0.1630
    3TTP     C4 2173   9.253   1.887   6.088  0.2048 -0.0475  0.1762
    3TTP    C17 2174   9.317   1.954   6.188  0.1061 -0.2332  0.3667
    3TTP    C18 2175   9.449   1.903   6.211  0.1070 -0.2349  0.3580
    3TTP    C32 2176   9.666   1.630   6.065 -0.0630 -0.4213  0.3101
    3TTP    C33 2177   9.609   1.491   6.098 -0.0068 -0.2602 -0.0536
    3TTP    C34 2178   9.677   1.365   6.030 -0.0342 -0.0035  0.6011
    3TTP    C35 2179   9.685   1.356   5.879  0.4035 -0.0718  0.1081
    3TTP    C36 2180   9.760   1.241   5.806  0.0689 -0.2640  0.1979
    3TTP    C37 2181   9.901   1.223   5.844 -0.3018  0.2415 -0.0869
    3TTP    C38 2182   9.967   1.100   5.774 -0.1981  0.2567 -0.1226
    3TTP    C39 2183  10.114   1.072   5.791 -0.1849 -1.3260 -0.3811
    3TTP    C40 2184  10.210   1.180   5.736  0.0161 -0.3898  0.3273
    3TTP    C41 2185  10.350   1.126   5.754 -0.1323  0.6227  0.0977
    3TTP    C42 2186  10.467   1.207   5.698 -0.1760 -0.5200 -0.0103
    4BIM     F1 2187   8.564   3.054   6.952  0.1678  0.1060  0.0747
    4BIM     F2 2188   8.448   3.253   6.807  0.0505  0.0407  0.0790
    4BIM     O1 2189   8.620   2.671   6.574  0.2735  0.0987  0.0975
    4BIM     N5 2190   8.321   3.266   6.329 -0.0436 -0.0585  0.1011
    4BIM     N6 2191   8.388   2.927   6.063  0.0625 -0.0510  0.1181
    4BIM    C19 2192   8.529   2.725   6.301  0.1982  0.0337  0.1097
    4BIM    C20 2193   8.519   2.814   6.402  0.1767  0.0381  0.1037
    4BIM    C21 2194   8.568   2.779   6.539  0.2179  0.0723  0.0978
    4BIM    C22 2195   8.543   2.897   6.624  0.1798  0.0682  0.0921
    4BIM    C23 2196   8.571   2.912   6.760  0.1979  0.0929  0.0856
    4BIM    C24 2197   8.538   3.033   6.819  0.1534  0.0829  0.0812
    4BIM    C25 2198   8.479   3.135   6.744  0.0928  0.0491  0.0835
    4BIM    C26 2199   8.450   3.121   6.609  0.0744  0.0244  0.0900
    4BIM    C27 2200   8.483   2.999   6.547  0.1187  0.0340  0.0944
    4BIM    C28 2201   8.466   2.952   6.407  0.1142  0.0142  0.1017
    4BIM    C29 2202   8.411   3.023   6.303  0.0627 -0.0197  0.1055
    4BIM    C30 2203   8.361   3.157   6.318  0.0043 -0.0409  0.1031
    4BIM    C31 2204   8.398   2.970   6.171  0.0627 -0.0367  0.1124
    5BIM     F1 2205  10.282   2.220   6.640  0.0676  0.0997  0.0120
    5BIM     F2 2206  10.419   1.985   6.662  0.1055  0.1174 -0.0361
    5BIM     O1 2207   9.845   2.058   6.365  0.0895  0.0836 -0.0131
    5BIM     N5 2208  10.304   1.533   6.497  0.1756  0.1312 -0.1231
    5BIM     N6 2209   9.935   1.454   6.278  0.1850  0.1151 -0.1330
    5BIM    C19 2210   9.820   1.777   6.288  0.1334  0.0948 -0.0680
    5BIM    C20 2211   9.925   1.826   6.356  0.1264  0.0981 -0.0598
    5BIM    C21 2212   9.930   1.972   6.392  0.1036  0.0920 -0.0314
    5BIM    C22 2213  10.057   1.992   6.466  0.1014  0.0978 -0.0292
    5BIM    C23 2214  10.106   2.111   6.520  0.0832  0.0952 -0.0067
    5BIM    C24 2215  10.228   2.106   6.585  0.0850  0.1019 -0.0097
    5BIM    C25 2216  10.298   1.985   6.596  0.1046  0.1109 -0.0342
    5BIM    C26 2217  10.250   1.866   6.543  0.1228  0.1136 -0.0569
    5BIM    C27 2218  10.126   1.870   6.476  0.1213  0.1069 -0.0544
    5BIM    C28 2219  10.048   1.763   6.409  0.1374  0.1075 -0.0743
    5BIM    C29 2220  10.083   1.630   6.399  0.1585  0.1152 -0.1009
    5BIM    C30 2221  10.204   1.577   6.453  0.1678  0.1240 -0.1130
    5BIM    C31 2222  10.001   1.534   6.332  0.1730  0.1151 -0.1184
    1BTD     S2 2223   1.560   0.881   3.405 -0.0442  0.0593  0.3314
    1BTD     N1 2224   1.648   0.736   3.465 -0.3265  0.0169  0.6557
    1BTD     N2 2225   1.668   0.999   3.488  0.2527  0.0404 -0.0246
    1BTD     N3 2226   2.047   0.978   3.763  0.3480 -0.0747 -0.1646
    1BTD     N4 2227   2.024   0.654   3.735 -0.3657 -0.1037  0.6737
    1BTD     C5 2228   1.845   0.697   3.606 -0.3383 -0.0457  0.6551
    1BTD     C6 2229   1.749   0.781   3.539 -0.1919 -0.0079  0.4905
    1BTD     C7 2230   1.759   0.928   3.552  0.1324  0.0053  0.1096
    1BTD     C8 2231   1.866   0.984   3.631  0.2939 -0.0200 -0.0876
    1BTD    C15 2232   1.957   0.898   3.695  0.1412 -0.0568  0.0846
    1BTD    C16 2233   1.947   0.757   3.682 -0.1712 -0.0695  0.4515
    1BTD    C43 2234   2.166   0.659   3.768  0.0273  0.0720  0.2672
    1BTD    C44 2235   2.221   0.563   3.870  0.0396 -0.1272 -0.2482
    1BTD    C45 2236   2.166   0.577   4.014  0.2714  0.4543 -0.3307
    1BTD    C46 2237   2.216   0.486   4.129  0.0209  0.3565 -0.2050
    1BTD    C47 2238   2.374   0.582   3.878  0.5721  0.1223  0.2692
    1BTD    C48 2239   2.448   0.536   3.753 -0.6457 -0.3647  0.2945
    1BTD    C49 2240   2.443   0.390   3.710  0.3391 -0.2968  0.1320
    1BTD    C50 2241   2.543   0.363   3.598  0.7791 -0.2129  0.0206
    1BTD    C75 2242   2.117   0.946   3.886  0.0712  0.1138 -0.5312
    1BTD    C76 2243   2.261   0.999   3.916 -0.2388 -0.1784 -0.2724
    1BTD    C77 2244   2.338   0.960   4.048 -0.7056  0.0721  0.0033
    1BTD    C78 2245   2.262   0.996   4.176  0.0506  0.4480  0.2317
    1BTD    C79 2246   2.359   1.003   3.798  0.3203 -0.1258  0.6178
    1BTD    C80 2247   2.476   1.096   3.804  0.1973 -0.4897  0.5196
    1BTD    C81 2248   2.586   1.057   3.709 -0.4119  0.4508 -0.6596
    1BTD    C82 2249   2.695   1.158   3.696 -0.4043 -0.2434 -0.0367
    2TTP     S1 2250   1.767   0.413   3.553  0.0408  0.1638 -0.0809
    2TTP     S5 2251   2.084   0.284   3.815  0.0545 -0.0355 -0.1957
    2TTP     C1 2252   1.996   0.137   3.753  0.3077 -0.0091 -0.6234
    2TTP     C2 2253   1.893   0.168   3.668  0.3184  0.0540 -0.6132
    2TTP     C3 2254   1.880   0.310   3.650  0.1270  0.0838 -0.2672
    2TTP     C4 2255   1.855   0.560   3.615 -0.2125  0.1374  0.3468
    2TTP    C17 2256   1.958   0.529   3.700 -0.2232  0.0743  0.3366
    2TTP    C18 2257   1.971   0.388   3.718 -0.0317  0.0445 -0.0094
    2TTP    C32 2258   1.789   0.082   3.603 -0.2443 -0.0509  0.1150
    2TTP    C33 2259   1.825   0.021   3.468  0.7374 -0.8525  0.0616
    2TTP    C34 2260   1.708  -0.046   3.408  0.3921  0.3778 -0.0545
    2TTP    C35 2261   1.571   0.019   3.381 -0.0404 -0.6589 -0.0846
    2TTP    C36 2262   1.480  -0.088   3.322 -0.5540  0.2445 -0.4964
    2TTP    C37 2263   1.339  -0.037   3.319  0.4301 -0.5113 -0.0613
    2TTP    C38 2264   1.241  -0.143   3.297  0.7420 -0.0885  0.0046
    2TTP    C39 2265   1.096  -0.104   3.268 -0.7220 -0.1548  0.1072
    2TTP    C40 2266   0.999  -0.201   3.220  0.2316 -0.0295  0.4381
    2TTP    C41 2267   0.884  -0.116   3.172  0.1212  0.0086  0.1910
    2TTP    C42 2268   0.756  -0.180   3.133  0.3478  0.0157  0.6650
    3TTP     S1 2269   1.850   1.285   3.614  0.1395 -0.0563 -0.0944
    3TTP     S5 2270   2.197   1.323   3.865  0.0845 -0.0528 -0.0184
    3TTP     C1 2271   2.145   1.489   3.812  0.2278 -0.0691 -0.2128
    3TTP     C2 2272   2.035   1.487   3.731  0.2533 -0.0711 -0.2477
    3TTP     C3 2273   1.987   1.354   3.708  0.1605 -0.0598 -0.1222
    3TTP     C4 2274   1.901   1.119   3.667 -0.0039 -0.0400  0.1000
    3TTP    C17 2275   2.012   1.120   3.747 -0.0293 -0.0379  0.1349
    3TTP    C18 2276   2.059   1.253   3.770  0.0635 -0.0492  0.0094
    3TTP    C32 2277   1.958   1.601   3.677 -0.3963 -0.3223  0.0378
    3TTP    C33 2278   1.817   1.612   3.730 -0.0889  0.0335 -0.5012
    3TTP    C34 2279   1.752   1.747   3.693  0.2019  0.0034 -0.2784
    3TTP    C35 2280   1.706   1.753   3.545  0.5997  0.1655  0.0168
    3TTP    C36 2281   1.650   1.889   3.494  0.3523 -0.6048  0.0047
    3TTP    C37 2282   1.529   1.945   3.576 -0.1414 -0.5545  0.1487
    3TTP    C38 2283   1.490   2.081   3.508 -0.7218  0.0329 -0.1065
    3TTP    C39 2284   1.409   2.164   3.611 -1.0056 -0.3217 -0.0377
    3TTP    C40 2285   1.379   2.304   3.552  0.4649 -0.6244  0.2200
    3TTP    C41 2286   1.304   2.405   3.641  0.0021 -0.8762  0.1567
    3TTP    C42 2287   1.315   2.548   3.601  0.2132  0.1730  0.1818
    4BIM     F1 2288   2.517  -0.222   4.269  0.3672 -0.0732 -0.4271
    4BIM     F2 2289   2.341  -0.429   4.292  0.2186  0.0815 -0.1734
    4BIM     O1 2290   2.261   0.089   3.907  0.2505  0.0120 -0.2713
    4BIM     N5 2291   1.907  -0.505   4.068 -0.0783  0.3650  0.3022
    4BIM     N6 2292   1.742  -0.220   3.780 -0.1394  0.4005  0.3726
    4BIM    C19 2293   2.003   0.001   3.800  0.0671  0.1903  0.0263
    4BIM    C20 2294   2.074  -0.069   3.891  0.1022  0.1628 -0.0228
    4BIM    C21 2295   2.206  -0.017   3.940  0.1972  0.0701 -0.1774
    4BIM    C22 2296   2.256  -0.117   4.037  0.2136  0.0625 -0.1943
    4BIM    C23 2297   2.375  -0.113   4.109  0.2921 -0.0114 -0.3184
    4BIM    C24 2298   2.401  -0.220   4.194  0.2918 -0.0032 -0.3084
    4BIM    C25 2299   2.310  -0.326   4.206  0.2152  0.0768 -0.1776
    4BIM    C26 2300   2.191  -0.330   4.134  0.1367  0.1507 -0.0532
    4BIM    C27 2301   2.163  -0.224   4.048  0.1357  0.1433 -0.0614
    4BIM    C28 2302   2.048  -0.198   3.958  0.0641  0.2084  0.0492
    4BIM    C29 2303   1.938  -0.279   3.942 -0.0210  0.2942  0.1912
    4BIM    C30 2304   1.921  -0.403   4.011 -0.0522  0.3328  0.2517
    4BIM    C31 2305   1.831  -0.246   3.853 -0.0857  0.3524  0.2902
    5BIM     F1 2306   2.856   1.669   4.187  0.0654 -0.0338  0.1553
    5BIM     F2 2307   2.783   1.932   4.185  0.0340 -0.0411  0.3103
    5BIM     O1 2308   2.429   1.443   3.943  0.1948  0.0848 -0.1830
    5BIM     N5 2309   2.374   2.147   4.008  0.0811  0.0331  0.2916
    5BIM     N6 2310   2.055   1.917   3.818  0.1886  0.1272 -0.0040
    5BIM    C19 2311   2.208   1.613   3.855  0.2108  0.1201 -0.1553
    5BIM    C20 2312   2.318   1.659   3.916  0.1795  0.0905 -0.0762
    5BIM    C21 2313   2.428   1.566   3.959  0.1732  0.0739 -0.0967
    5BIM    C22 2314   2.532   1.649   4.022  0.1367  0.0424  0.0056
    5BIM    C23 2315   2.652   1.607   4.077  0.1190  0.0185  0.0263
    5BIM    C24 2316   2.735   1.704   4.131  0.0844 -0.0093  0.1294
    5BIM    C25 2317   2.697   1.839   4.130  0.0684 -0.0130  0.2091
    5BIM    C26 2318   2.577   1.882   4.075  0.0859  0.0108  0.1891
    5BIM    C27 2319   2.492   1.785   4.020  0.1209  0.0391  0.0851
    5BIM    C28 2320   2.359   1.797   3.955  0.1465  0.0685  0.0379
    5BIM    C29 2321   2.288   1.913   3.934  0.1407  0.0742  0.0902
    5BIM    C30 2322   2.336   2.041   3.975  0.1079  0.0516  0.2008
    5BIM    C31 2323   2.161   1.914   3.870  0.1671  0.1034  0.0381
    1BTD     S2 2324   7.846   2.205   0.790  0.0170  0.0599 -0.2137
    1BTD     N1 2325   7.816   2.034   0.746 -0.4706  0.0554  0.1184
    1BTD     N2 2326   7.769   2.272   0.642  0.4135 -0.0110 -0.4544
    1BTD     N3 2327   7.558   2.098   0.260  0.3413 -0.1636 -0.3449
    1BTD     N4 2328   7.616   1.804   0.389 -0.7482 -0.0816  0.3610
    1BTD     C5 2329   7.711   1.917   0.558 -0.6024 -0.0171  0.2366
    1BTD     C6 2330   7.753   2.035   0.629 -0.3206  0.0041  0.0371
    1BTD     C7 2331   7.727   2.168   0.571  0.1744 -0.0333 -0.2835
    1BTD     C8 2332   7.660   2.178   0.444  0.3625 -0.0898 -0.3887
    1BTD    C15 2333   7.620   2.060   0.378  0.0735 -0.1086 -0.1853
    1BTD    C16 2334   7.645   1.931   0.434 -0.4031 -0.0726  0.1236
    1BTD    C43 2335   7.567   1.756   0.258  0.4542 -0.1536 -0.0832
    1BTD    C44 2336   7.651   1.672   0.161  0.3759 -0.4676 -0.2887
    1BTD    C45 2337   7.796   1.726   0.126  0.5625  0.7111  0.8267
    1BTD    C46 2338   7.803   1.854   0.051  0.1921 -0.1582  0.3971
    1BTD    C47 2339   7.565   1.627   0.038 -0.1881 -0.2773 -0.3634
    1BTD    C48 2340   7.631   1.516  -0.050  0.0748  0.1466 -0.0471
    1BTD    C49 2341   7.649   1.385   0.025 -0.1410 -0.0793 -0.0187
    1BTD    C50 2342   7.740   1.280  -0.044 -0.3490 -0.3389 -0.0291
    1BTD    C75 2343   7.438   2.041   0.205  0.7643 -0.2750  0.3727
    1BTD    C76 2344   7.380   2.043   0.060  0.0066  0.3390 -0.3125
    1BTD    C77 2345   7.484   1.986  -0.038 -0.1858 -0.2334  0.0294
    1BTD    C78 2346   7.457   1.966  -0.186 -0.7023 -0.2993 -0.5603
    1BTD    C79 2347   7.234   2.007   0.056  0.6170  0.2956 -0.0057
    1BTD    C80 2348   7.184   1.856   0.057 -0.9403  0.2797 -0.8647
    1BTD    C81 2349   7.232   1.769   0.178  0.3211  0.4385 -0.4531
    1BTD    C82 2350   7.197   1.623   0.151 -0.8677  0.0376 -0.1301
    2TTP     S1 2351   7.769   1.670   0.722  0.1264 -0.0725 -0.0210
    2TTP     S5 2352   7.564   1.433   0.426  0.1589  0.0893 -0.1734
    2TTP     C1 2353   7.618   1.324   0.561  0.1438  0.0155 -0.2272
    2TTP     C2 2354   7.684   1.390   0.660  0.1326 -0.0389 -0.1833
    2TTP     C3 2355   7.695   1.530   0.634  0.1360 -0.0241 -0.1056
    2TTP     C4 2356   7.715   1.779   0.587  0.1416  0.0013  0.0328
    2TTP    C17 2357   7.648   1.713   0.488  0.1527  0.0556 -0.0110
    2TTP    C18 2358   7.638   1.573   0.515  0.1494  0.0409 -0.0888
    2TTP    C32 2359   7.771   1.341   0.783  0.3234 -0.0545  0.2491
    2TTP    C33 2360   7.714   1.258   0.893  0.4017  0.1362  0.2488
    2TTP    C34 2361   7.600   1.312   0.981 -0.7149  0.6524  0.2272
    2TTP    C35 2362   7.482   1.224   0.947  0.3131  0.2834  0.0407
    2TTP    C36 2363   7.353   1.276   1.009 -0.3263  0.3648  0.4533
    2TTP    C37 2364   7.299   1.412   0.965  1.0900  0.5638  0.3347
    2TTP    C38 2365   7.260   1.437   0.822  0.4214  0.5289 -0.0251
    2TTP    C39 2366   7.153   1.346   0.748  0.0593 -0.2186 -0.4992
    2TTP    C40 2367   7.088   1.433   0.627  0.1725  0.4534  0.2415
    2TTP    C41 2368   6.993   1.355   0.536 -0.7838  0.4168 -0.2128
    2TTP    C42 2369   6.891   1.439   0.469  0.1367  0.0140  0.3688
    3TTP     S1 2370   7.638   2.476   0.355  0.0247  0.2252  0.0818
    3TTP     S5 2371   7.481   2.339  -0.021 -0.0131  0.4639  0.0103
    3TTP     C1 2372   7.501   2.520  -0.029  0.1039  0.4538  0.0795
    3TTP     C2 2373   7.551   2.573   0.087  0.1223  0.3796  0.1055
    3TTP     C3 2374   7.575   2.472   0.186  0.0451  0.3279  0.0720
    3TTP     C4 2375   7.617   2.295   0.363 -0.0925  0.2354  0.0129
    3TTP    C17 2376   7.568   2.242   0.247 -0.1109  0.3095 -0.0132
    3TTP    C18 2377   7.544   2.343   0.148 -0.0333  0.3612  0.0203
    3TTP    C32 2378   7.575   2.714   0.121  0.5576  0.2450 -0.8101
    3TTP    C33 2379   7.481   2.779   0.225  0.1962 -0.9225 -0.6252
    3TTP    C34 2380   7.531   2.917   0.267 -0.0062  0.1177  0.5830
    3TTP    C35 2381   7.416   3.018   0.284  0.4785 -0.5225  0.0376
    3TTP    C36 2382   7.438   3.154   0.355 -0.6010  0.0899  0.3177
    3TTP    C37 2383   7.511   3.167   0.490  0.8746  0.2764  0.2106
    3TTP    C38 2384   7.435   3.107   0.615 -0.3527 -0.1205 -0.6422
    3TTP    C39 2385   7.514   3.146   0.741  0.0950 -0.1377  0.5710
    3TTP    C40 2386   7.450   3.094   0.867 -0.0657  0.2038  0.0356
    3TTP    C41 2387   7.517   3.138   1.002 -0.0816 -0.1609  0.8690
    3TTP    C42 2388   7.469   3.065   1.127  0.7591  0.3128  0.2486
    4BIM     F1 2389   7.090   0.817   0.191  0.0695 -0.0343 -0.0762
    4BIM     F2 2390   7.215   0.607   0.312  0.0671 -0.0382 -0.0803
    4BIM     O1 2391   7.372   1.234   0.390 -0.0494 -0.0294  0.0821
    4BIM     N5 2392   7.596   0.604   0.627 -0.0211 -0.0403  0.0265
    4BIM     N6 2393   7.791   0.972   0.758 -0.1136 -0.0356  0.1510
    4BIM    C19 2394   7.592   1.182   0.576 -0.0939 -0.0313  0.1343
    4BIM    C20 2395   7.516   1.085   0.521 -0.0639 -0.0324  0.0947
    4BIM    C21 2396   7.404   1.120   0.426 -0.0424 -0.0313  0.0698
    4BIM    C22 2397   7.343   0.992   0.386 -0.0119 -0.0329  0.0283
    4BIM    C23 2398   7.236   0.973   0.299  0.0154 -0.0327 -0.0054
    4BIM    C24 2399   7.195   0.843   0.276  0.0416 -0.0345 -0.0416
    4BIM    C25 2400   7.260   0.735   0.338  0.0402 -0.0365 -0.0437
    4BIM    C26 2401   7.367   0.753   0.425  0.0131 -0.0368 -0.0101
    4BIM    C27 2402   7.409   0.885   0.450 -0.0135 -0.0350  0.0268
    4BIM    C28 2403   7.518   0.938   0.535 -0.0457 -0.0347  0.0675
    4BIM    C29 2404   7.605   0.864   0.613 -0.0563 -0.0363  0.0779
    4BIM    C30 2405   7.600   0.721   0.621 -0.0368 -0.0385  0.0496
    4BIM    C31 2406   7.707   0.924   0.692 -0.0876 -0.0359  0.1180
    5BIM     F1 2407   7.308   2.333  -0.801  0.4985 -0.0017 -0.1714
    5BIM     F2 2408   7.222   2.589  -0.835  0.0292 -0.1474 -0.0906
    5BIM     O1 2409   7.480   2.350  -0.287  0.3358  0.1143 -0.1204
    5BIM     N5 2410   7.221   2.969  -0.518 -0.7616 -0.2742  0.0622
    5BIM     N6 2411   7.372   2.931  -0.110 -0.7943 -0.1543  0.0856
    5BIM    C19 2412   7.459   2.601  -0.137 -0.1706  0.0163 -0.0252
    5BIM    C20 2413   7.419   2.587  -0.265 -0.1111 -0.0072 -0.0410
    5BIM    C21 2414   7.433   2.455  -0.336  0.1534  0.0466 -0.0906
    5BIM    C22 2415   7.380   2.474  -0.472  0.1522  0.0029 -0.0963
    5BIM    C23 2416   7.373   2.380  -0.574  0.3543  0.0286 -0.1364
    5BIM    C24 2417   7.319   2.421  -0.695  0.3075 -0.0233 -0.1332
    5BIM    C25 2418   7.275   2.553  -0.712  0.0653 -0.0982 -0.0914
    5BIM    C26 2419   7.282   2.648  -0.611 -0.1371 -0.1243 -0.0515
    5BIM    C27 2420   7.336   2.607  -0.488 -0.0933 -0.0726 -0.0539
    5BIM    C28 2421   7.358   2.682  -0.361 -0.2648 -0.0819 -0.0184
    5BIM    C29 2422   7.328   2.814  -0.338 -0.5176 -0.1471  0.0269
    5BIM    C30 2423   7.269   2.899  -0.437 -0.6509 -0.2168  0.0463
    5BIM    C31 2424   7.352   2.878  -0.213 -0.6684 -0.1507  0.0594
    1BTD     S2 2425   8.524   6.091   0.614  0.0978 -0.0661  0.1603
    1BTD     N1 2426   8.422   5.946   0.581  0.1013 -0.0516  0.0834
    1BTD     N2 2427   8.666   5.996   0.668  0.0527 -0.0871  0.2417
    1BTD     N3 2428   8.773   5.542   0.721 -0.0327 -0.1041  0.2689
    1BTD     N4 2429   8.471   5.481   0.614  0.0274 -0.0602  0.0739
    1BTD     C5 2430   8.451   5.704   0.599  0.0618 -0.0566  0.0808
    1BTD     C6 2431   8.495   5.840   0.611  0.0701 -0.0627  0.1205
    1BTD     C7 2432   8.632   5.868   0.660  0.0432 -0.0826  0.2091
    1BTD     C8 2433   8.718   5.758   0.695  0.0086 -0.0954  0.2536
    1BTD    C15 2434   8.671   5.626   0.682  0.0015 -0.0891  0.2121
    1BTD    C16 2435   8.539   5.600   0.634  0.0280 -0.0697  0.1268
    1BTD    C43 2436   8.536   5.355   0.567  0.2287 -0.3857 -0.3063
    1BTD    C44 2437   8.475   5.212   0.583 -0.4513 -0.3490 -0.0033
    1BTD    C45 2438   8.548   5.095   0.514  0.1001 -0.2787 -0.6296
    1BTD    C46 2439   8.575   5.131   0.368 -0.1761 -0.3061 -0.3670
    1BTD    C47 2440   8.440   5.178   0.733 -0.1902 -0.0702  0.1698
    1BTD    C48 2441   8.388   5.044   0.789  0.2432  1.1900 -0.7376
    1BTD    C49 2442   8.341   5.048   0.932  0.3216 -0.0991 -0.3376
    1BTD    C50 2443   8.309   4.907   0.984 -0.0654 -0.3536  0.3253
    1BTD    C75 2444   8.744   5.413   0.783 -0.2828  0.0769 -0.9600
    1BTD    C76 2445   8.854   5.297   0.808 -0.0889 -0.6383 -0.6304
    1BTD    C77 2446   8.895   5.224   0.676  0.5185  0.3029 -0.3861
    1BTD    C78 2447   8.999   5.110   0.681  0.0411 -0.1353  0.1519
    1BTD    C79 2448   8.812   5.202   0.920  0.7765 -0.1633  0.0116
    1BTD    C80 2449   8.817   5.259   1.057 -0.3572 -0.1627 -0.6048
    1BTD    C81 2450   8.764   5.147   1.150  0.4218 -0.4479 -0.2209
    1BTD    C82 2451   8.729   5.205   1.291 -0.3939 -0.1509  0.7667
    2TTP     S1 2452   8.160   5.704   0.529 -0.0813  0.0285  0.1307
    2TTP     S5 2453   8.159   5.278   0.587  0.2151  0.0081 -0.0097
    2TTP     C1 2454   7.987   5.334   0.564  0.1738 -0.1004  0.0326
    2TTP     C2 2455   7.978   5.469   0.545  0.0800 -0.1006  0.0785
    2TTP     C3 2456   8.105   5.533   0.547  0.0370 -0.0149  0.0819
    2TTP     C4 2457   8.332   5.648   0.552 -0.0401  0.1370  0.0884
    2TTP    C17 2458   8.342   5.513   0.571  0.0536  0.1372  0.0425
    2TTP    C18 2459   8.214   5.449   0.568  0.0966  0.0516  0.0392
    2TTP    C32 2460   7.853   5.556   0.526  0.5139  0.3377  0.7612
    2TTP    C33 2461   7.846   5.657   0.406 -0.2395  0.0861 -0.1239
    2TTP    C34 2462   7.848   5.590   0.264  0.1682 -0.4680 -0.3454
    2TTP    C35 2463   7.795   5.670   0.145 -0.2788 -0.1870  0.1003
    2TTP    C36 2464   7.657   5.722   0.161 -0.1388 -0.0457  0.2425
    2TTP    C37 2465   7.612   5.797   0.041  0.5764  0.2177  0.0122
    2TTP    C38 2466   7.462   5.788   0.024  0.2881  1.1557  0.4144
    2TTP    C39 2467   7.407   5.883  -0.084  0.3612 -0.2275  0.1807
    2TTP    C40 2468   7.255   5.886  -0.105  0.1640  0.1988  0.4329
    2TTP    C41 2469   7.226   5.969  -0.222  0.0287 -0.1815 -0.1211
    2TTP    C42 2470   7.094   5.944  -0.294  0.0423  0.1215 -0.1668
    3TTP     S1 2471   8.995   5.864   0.761  0.0387  0.1904 -0.1309
    3TTP     S5 2472   9.130   5.460   0.820 -0.4752  0.0564  0.1409
    3TTP     C1 2473   9.270   5.572   0.849 -0.3097 -0.1065 -0.0198
    3TTP     C2 2474   9.237   5.704   0.833 -0.1416 -0.0750 -0.1132
    3TTP     C3 2475   9.099   5.720   0.797 -0.1369  0.0794 -0.0612
    3TTP     C4 2476   8.855   5.751   0.733 -0.1271  0.3533  0.0298
    3TTP    C17 2477   8.889   5.620   0.749 -0.2952  0.3217  0.1232
    3TTP    C18 2478   9.026   5.603   0.785 -0.2997  0.1675  0.0712
    3TTP    C32 2479   9.323   5.825   0.853 -0.3610 -0.0364 -0.2039
    3TTP    C33 2480   9.368   5.889   0.725  0.2032 -0.0009  0.0045
    3TTP    C34 2481   9.431   6.024   0.750  0.2585 -0.5098 -0.0537
    3TTP    C35 2482   9.459   6.109   0.627 -0.2562  0.4269 -0.3875
    3TTP    C36 2483   9.537   6.037   0.509  0.0466  0.4354  0.3068
    3TTP    C37 2484   9.690   6.052   0.529 -0.2221 -0.0095  0.4919
    3TTP    C38 2485   9.797   6.001   0.427  0.6301 -0.7344  0.0595
    3TTP    C39 2486   9.789   6.026   0.278  0.2298  0.2457  0.2383
    3TTP    C40 2487   9.898   5.964   0.195  0.6550 -0.4004 -0.0964
    3TTP    C41 2488   9.956   5.826   0.219 -0.5906  0.2016 -0.3775
    3TTP    C42 2489   9.870   5.710   0.176  0.7863 -0.1221 -0.1420
    4BIM     F1 2490   7.806   4.555   0.755  0.0337 -0.0322 -0.1074
    4BIM     F2 2491   7.555   4.597   0.657 -0.0455  0.0660  0.1368
    4BIM     O1 2492   8.028   5.042   0.678  0.0446 -0.0223 -0.0124
    4BIM     N5 2493   7.353   5.005   0.462 -0.1514  0.2143  0.5555
    4BIM     N6 2494   7.578   5.377   0.422 -0.1272  0.2025  0.5805
    4BIM    C19 2495   7.868   5.256   0.558 -0.0273  0.0753  0.2546
    4BIM    C20 2496   7.822   5.131   0.581 -0.0269  0.0688  0.2212
    4BIM    C21 2497   7.910   5.027   0.643  0.0112  0.0174  0.0818
    4BIM    C22 2498   7.829   4.904   0.654  0.0011  0.0240  0.0798
    4BIM    C23 2499   7.868   4.781   0.705  0.0266 -0.0129 -0.0276
    4BIM    C24 2500   7.774   4.679   0.705  0.0101  0.0022 -0.0055
    4BIM    C25 2501   7.645   4.701   0.655 -0.0308  0.0529  0.1203
    4BIM    C26 2502   7.605   4.824   0.603 -0.0563  0.0900  0.2279
    4BIM    C27 2503   7.699   4.928   0.603 -0.0403  0.0753  0.2075
    4BIM    C28 2504   7.690   5.069   0.556 -0.0590  0.1049  0.2994
    4BIM    C29 2505   7.579   5.129   0.500 -0.0985  0.1560  0.4317
    4BIM    C30 2506   7.455   5.060   0.479 -0.1276  0.1879  0.4993
    4BIM    C31 2507   7.579   5.265   0.457 -0.1141  0.1813  0.5128
    5BIM     F1 2508   9.669   4.875   1.033  0.1490 -0.1678 -0.1837
    5BIM     F2 2509   9.887   5.024   1.100  0.0007 -0.1121  0.1836
    5BIM     O1 2510   9.325   5.262   0.875  0.1636 -0.2184 -0.3402
    5BIM     N5 2511   9.955   5.514   1.083 -0.2024 -0.0679  0.6002
    5BIM     N6 2512   9.643   5.786   0.946 -0.1609 -0.1187  0.4039
    5BIM    C19 2513   9.411   5.542   0.882  0.0271 -0.1831 -0.0448
    5BIM    C20 2514   9.489   5.439   0.919  0.0293 -0.1726 -0.0198
    5BIM    C21 2515   9.438   5.298   0.913  0.1018 -0.1922 -0.1785
    5BIM    C22 2516   9.547   5.211   0.960  0.0842 -0.1738 -0.1038
    5BIM    C23 2517   9.547   5.072   0.972  0.1333 -0.1822 -0.1988
    5BIM    C24 2518   9.662   5.012   1.019  0.1035 -0.1610 -0.0985
    5BIM    C25 2519   9.775   5.089   1.053  0.0268 -0.1323  0.0908
    5BIM    C26 2520   9.776   5.227   1.042 -0.0226 -0.1236  0.1864
    5BIM    C27 2521   9.660   5.290   0.994  0.0064 -0.1450  0.0872
    5BIM    C28 2522   9.628   5.433   0.971 -0.0300 -0.1429  0.1463
    5BIM    C29 2523   9.712   5.540   0.992 -0.1049 -0.1185  0.3216
    5BIM    C30 2524   9.846   5.525   1.042 -0.1583 -0.0907  0.4742
    5BIM    C31 2525   9.673   5.675   0.966 -0.1354 -0.1187  0.3659
    1BTD     S2 2526   5.449   4.046   9.433 -0.2747  0.1189 -0.1355
    1BTD     N1 2527   5.389   4.150   9.299 -0.1513  0.2191 -0.1140
    1BTD     N2 2528   5.550   4.175   9.507 -0.1286 -0.0134 -0.1016
    1BTD     N3 2529   5.646   4.626   9.416  0.3911 -0.1012  0.0069
    1BTD     N4 2530   5.448   4.594   9.159  0.3633  0.1854 -0.0083
    1BTD     C5 2531   5.422   4.382   9.229  0.1178  0.1980 -0.0587
    1BTD     C6 2532   5.444   4.269   9.315 -0.0149  0.1526 -0.0842
    1BTD     C7 2533   5.534   4.283   9.432 -0.0023  0.0223 -0.0770
    1BTD     C8 2534   5.597   4.410   9.457  0.1423 -0.0558 -0.0451
    1BTD    C15 2535   5.573   4.518   9.369  0.2691 -0.0071 -0.0209
    1BTD    C16 2536   5.487   4.504   9.257  0.2568  0.1183 -0.0275
    1BTD    C43 2537   5.524   4.699   9.090 -0.0819 -0.4796 -0.0542
    1BTD    C44 2538   5.594   4.671   8.957  0.4324 -0.4053 -0.4525
    1BTD    C45 2539   5.666   4.541   8.950 -0.6912  0.6710  0.2109
    1BTD    C46 2540   5.785   4.512   9.041 -0.2367  0.2921 -0.3835
    1BTD    C47 2541   5.666   4.794   8.891  0.1441  0.6494  0.1403
    1BTD    C48 2542   5.608   4.930   8.861  0.1266  0.2274  0.3441
    1BTD    C49 2543   5.473   4.937   8.789  0.3472  0.2784 -0.1747
    1BTD    C50 2544   5.453   5.077   8.741  0.2025 -0.5437  0.3455
    1BTD    C75 2545   5.619   4.766   9.379  0.3389  0.5531  0.2175
    1BTD    C76 2546   5.707   4.883   9.380 -0.6946  0.4289  0.6190
    1BTD    C77 2547   5.827   4.845   9.294 -0.8324 -0.1165 -0.6327
    1BTD    C78 2548   5.953   4.936   9.290  0.2314  0.1743  0.2995
    1BTD    C79 2549   5.657   5.027   9.359 -0.6527 -0.1122 -0.1097
    1BTD    C80 2550   5.605   5.069   9.216 -0.8111  0.1686 -0.2037
    1BTD    C81 2551   5.524   5.197   9.214 -0.1752  0.3464  0.3166
    1BTD    C82 2552   5.503   5.251   9.073  0.4680  0.4376 -0.8290
    2TTP     S1 2553   5.207   4.312   9.024 -0.1744  0.1115  0.0214
    2TTP     S5 2554   5.208   4.725   8.905 -0.3128  0.1013 -0.0162
    2TTP     C1 2555   5.073   4.640   8.818 -0.3561  0.0730  0.0778
    2TTP     C2 2556   5.065   4.507   8.849 -0.3159  0.0746  0.0949
    2TTP     C3 2557   5.165   4.468   8.944 -0.2495  0.0981  0.0346
    2TTP     C4 2558   5.342   4.397   9.111 -0.1312  0.1397 -0.0730
    2TTP    C17 2559   5.350   4.529   9.080 -0.1714  0.1383 -0.0897
    2TTP    C18 2560   5.250   4.569   8.985 -0.2377  0.1147 -0.0293
    2TTP    C32 2561   4.956   4.409   8.811  0.3914  0.2772  0.7192
    2TTP    C33 2562   4.997   4.289   8.725  0.0646 -0.7489 -0.2958
    2TTP    C34 2563   4.885   4.190   8.697 -0.0665 -0.6174  0.1637
    2TTP    C35 2564   4.933   4.079   8.611  0.2409  0.3943 -0.5063
    2TTP    C36 2565   4.830   3.972   8.582  0.5698  0.8237  0.3248
    2TTP    C37 2566   4.880   3.838   8.519  0.3913 -0.0193  0.3324
    2TTP    C38 2567   4.969   3.741   8.603 -0.2058  0.4378  0.1850
    2TTP    C39 2568   4.892   3.664   8.711  0.2116  0.2977 -0.7460
    2TTP    C40 2569   4.987   3.584   8.807  0.5439 -0.4718  0.3771
    2TTP    C41 2570   4.931   3.496   8.920 -0.0893 -0.2609  0.4443
    2TTP    C42 2571   5.037   3.456   9.016  0.4403 -0.4355  0.1074
    3TTP     S1 2572   5.774   4.391   9.700  0.2637  0.0076 -0.1040
    3TTP     S5 2573   5.870   4.807   9.648 -0.2838  0.1489 -0.0022
    3TTP     C1 2574   5.961   4.744   9.793 -0.1476  0.2149 -0.0585
    3TTP     C2 2575   5.937   4.612   9.818  0.0296  0.1752 -0.0933
    3TTP     C3 2576   5.845   4.556   9.723  0.0640  0.0911 -0.0767
    3TTP     C4 2577   5.683   4.454   9.556  0.1274 -0.0585 -0.0477
    3TTP    C17 2578   5.708   4.587   9.531 -0.0498 -0.0188 -0.0130
    3TTP    C18 2579   5.799   4.643   9.626 -0.0842  0.0653 -0.0295
    3TTP    C32 2580   5.988   4.511   9.926 -0.1027 -0.2732 -0.1509
    3TTP    C33 2581   5.903   4.516  10.057  0.6172 -0.4835  0.1113
    3TTP    C34 2582   5.960   4.411  10.153 -0.7125 -0.6011  0.3833
    3TTP    C35 2583   5.908   4.398  10.291 -0.4585  0.4485  1.0779
    3TTP    C36 2584   5.763   4.353  10.309  0.0137  0.2346 -0.4945
    3TTP    C37 2585   5.720   4.220  10.261 -0.1525  0.0536  0.0365
    3TTP    C38 2586   5.566   4.180  10.270 -0.4244 -0.0914 -0.8139
    3TTP    C39 2587   5.465   4.293  10.246 -0.1674 -0.0532  0.1834
    3TTP    C40 2588   5.316   4.249  10.246 -0.0333 -0.3824  0.1198
    3TTP    C41 2589   5.222   4.361  10.199  0.4509 -0.7062  0.0647
    3TTP    C42 2590   5.072   4.332  10.230 -0.2111 -0.1047 -0.0922
    4BIM     F1 2591   4.820   5.407   8.681 -0.5901 -0.0929  0.3884
    4BIM     F2 2592   4.652   5.311   8.491  0.4088  0.0849 -0.6068
    4BIM     O1 2593   5.058   4.951   8.850 -0.9079 -0.1607  0.6526
    4BIM     N5 2594   4.579   4.846   8.337  1.6189  0.2919 -1.8497
    4BIM     N6 2595   4.798   4.509   8.507  1.1692  0.2030 -1.4427
    4BIM    C19 2596   4.981   4.696   8.728 -0.0662 -0.0151 -0.2046
    4BIM    C20 2597   4.928   4.815   8.693 -0.0254 -0.0050 -0.2322
    4BIM    C21 2598   4.972   4.941   8.760 -0.4753 -0.0832  0.2253
    4BIM    C22 2599   4.895   5.051   8.698 -0.3003 -0.0490  0.0646
    4BIM    C23 2600   4.902   5.187   8.728 -0.5825 -0.0966  0.3569
    4BIM    C24 2601   4.819   5.272   8.657 -0.3338 -0.0500  0.1214
    4BIM    C25 2602   4.732   5.222   8.559  0.1807  0.0417 -0.3920
    4BIM    C26 2603   4.725   5.086   8.528  0.4647  0.0895 -0.6859
    4BIM    C27 2604   4.808   4.999   8.600  0.2197  0.0434 -0.4537
    4BIM    C28 2605   4.825   4.852   8.592  0.4091  0.0743 -0.6566
    4BIM    C29 2606   4.757   4.766   8.508  0.8944  0.1596 -1.1439
    4BIM    C30 2607   4.659   4.810   8.414  1.2910  0.2321 -1.5302
    4BIM    C31 2608   4.780   4.625   8.508  1.0428  0.1830 -1.3053
    5BIM     F1 2609   6.185   5.539   9.808 -0.3213  0.1281  0.3727
    5BIM     F2 2610   6.320   5.490  10.039  0.1515 -0.1757  0.0355
    5BIM     O1 2611   5.987   5.047   9.698 -0.6036  0.2871  0.1689
    5BIM     N5 2612   6.373   5.068  10.293  0.6303 -0.4992 -0.5945
    5BIM     N6 2613   6.190   4.694  10.161  0.3142 -0.3139 -0.6858
    5BIM    C19 2614   6.045   4.826   9.880 -0.2521  0.0530 -0.2256
    5BIM    C20 2615   6.090   4.951   9.899 -0.1997  0.0252 -0.1612
    5BIM    C21 2616   6.056   5.060   9.801 -0.3902  0.1513  0.0437
    5BIM    C22 2617   6.120   5.183   9.851 -0.2729  0.0819  0.0653
    5BIM    C23 2618   6.116   5.310   9.793 -0.3772  0.1538  0.2298
    5BIM    C24 2619   6.185   5.411   9.859 -0.2300  0.0645  0.2155
    5BIM    C25 2620   6.254   5.385   9.978  0.0137 -0.0921  0.0417
    5BIM    C26 2621   6.258   5.259  10.036  0.1187 -0.1646 -0.1230
    5BIM    C27 2622   6.189   5.155   9.971 -0.0273 -0.0759 -0.1113
    5BIM    C28 2623   6.174   5.012  10.005  0.0274 -0.1171 -0.2575
    5BIM    C29 2624   6.227   4.948  10.114  0.2465 -0.2598 -0.4459
    5BIM    C30 2625   6.307   5.014  10.212  0.4567 -0.3910 -0.5270
    5BIM    C31 2626   6.207   4.808  10.139  0.2825 -0.2888 -0.5768
    1BTD     S2 2627   1.455   8.603   6.928  0.1189  0.0810  0.1107
    1BTD     N1 2628   1.588   8.498   6.987  0.1230 -0.0081 -0.0572
    1BTD     N2 2629   1.340   8.467   6.901 -0.0034  0.1562  0.2451
    1BTD     N3 2630   1.348   8.000   6.952 -0.2450  0.1488  0.2162
    1BTD     N4 2631   1.654   8.038   7.058 -0.0893 -0.0539 -0.1564
    1BTD     C5 2632   1.619   8.257   7.023  0.0103 -0.0296 -0.1044
    1BTD     C6 2633   1.543   8.373   6.983  0.0375  0.0210 -0.0069
    1BTD     C7 2634   1.404   8.356   6.935 -0.0333  0.1130  0.1625
    1BTD     C8 2635   1.348   8.224   6.929 -0.1276  0.1500  0.2255
    1BTD    C15 2636   1.426   8.113   6.968 -0.1511  0.0977  0.1256
    1BTD    C16 2637   1.560   8.130   7.014 -0.0829  0.0091 -0.0374
    1BTD    C43 2638   1.685   7.909   6.987  0.1552  0.2017 -0.7021
    1BTD    C44 2639   1.764   7.798   7.050 -0.2754  0.6015  0.4626
    1BTD    C45 2640   1.819   7.694   6.955  0.5960 -0.6461 -0.2879
    1BTD    C46 2641   1.933   7.753   6.864  0.4705  0.2928 -0.1740
    1BTD    C47 2642   1.688   7.733   7.159  0.3053  0.0099 -0.0675
    1BTD    C48 2643   1.752   7.626   7.252 -0.0462 -0.7061 -0.5233
    1BTD    C49 2644   1.718   7.488   7.211  0.2881  0.5024  0.2720
    1BTD    C50 2645   1.780   7.390   7.310  0.1299 -0.0864  0.6359
    1BTD    C75 2646   1.362   7.875   7.036 -0.2704  0.4324  0.1121
    1BTD    C76 2647   1.287   7.737   7.014 -0.5913  0.3477 -0.2173
    1BTD    C77 2648   1.320   7.662   6.876  0.6903  0.4043 -0.3550
    1BTD    C78 2649   1.465   7.617   6.856  0.5821 -0.2430  0.1800
    1BTD    C79 2650   1.315   7.652   7.136 -0.0640 -0.0711 -0.0635
    1BTD    C80 2651   1.239   7.524   7.165  0.3053  0.3959 -0.2879
    1BTD    C81 2652   1.089   7.552   7.194 -1.2018  0.0566 -0.0686
    1BTD    C82 2653   1.006   7.427   7.214 -0.0599  0.2461  0.5048
    2TTP     S1 2654   1.888   8.351   7.121  0.3202 -0.0264  0.0349
    2TTP     S5 2655   1.993   7.944   7.211  0.0851 -0.0384  0.2557
    2TTP     C1 2656   2.131   8.051   7.259  0.1444 -0.0916  0.2040
    2TTP     C2 2657   2.107   8.184   7.234  0.2205 -0.0911  0.1328
    2TTP     C3 2658   1.978   8.205   7.176  0.2348 -0.0482  0.1165
    2TTP     C4 2659   1.749   8.244   7.073  0.2609  0.0269  0.0864
    2TTP    C17 2660   1.773   8.111   7.098  0.1848  0.0263  0.1577
    2TTP    C18 2661   1.902   8.090   7.156  0.1706 -0.0160  0.1742
    2TTP    C32 2662   2.205   8.298   7.264  0.2392 -0.3483  0.0233
    2TTP    C33 2663   2.183   8.444   7.203 -0.6382  0.2448 -0.3049
    2TTP    C34 2664   2.286   8.546   7.238 -0.0396 -0.3134  0.6974
    2TTP    C35 2665   2.428   8.531   7.190 -0.3298 -0.1272 -0.2236
    2TTP    C36 2666   2.535   8.629   7.239 -0.0017 -0.1882  0.5367
    2TTP    C37 2667   2.671   8.582   7.191 -0.1563  0.0394 -1.0860
    2TTP    C38 2668   2.743   8.453   7.246 -0.2840 -0.1296  0.1394
    2TTP    C39 2669   2.792   8.457   7.390 -0.4651 -0.2658  0.3158
    2TTP    C40 2670   2.830   8.334   7.462  0.2428  0.2499  0.5291
    2TTP    C41 2671   2.884   8.359   7.603 -0.0192  0.5377 -0.2517
    2TTP    C42 2672   2.943   8.239   7.682  0.1736  0.3178  0.2194
    3TTP     S1 2673   1.063   8.251   6.836  0.0827 -0.0169  0.0806
    3TTP     S5 2674   1.020   7.824   6.867 -0.2340  0.0015 -0.0921
    3TTP     C1 2675   0.861   7.894   6.813 -0.0724  0.1025 -0.4419
    3TTP     C2 2676   0.865   8.030   6.801  0.0349  0.1028 -0.4094
    3TTP     C3 2677   0.993   8.084   6.833 -0.0066  0.0231 -0.1067
    3TTP     C4 2678   1.222   8.180   6.890 -0.0789 -0.1178  0.4306
    3TTP    C17 2679   1.218   8.044   6.903 -0.1861 -0.1176  0.3978
    3TTP    C18 2680   1.089   7.991   6.871 -0.1447 -0.0386  0.0952
    3TTP    C32 2681   0.755   8.122   6.752  0.2964 -0.4181  0.0051
    3TTP    C33 2682   0.704   8.244   6.844  0.0480  0.0555 -0.3335
    3TTP    C34 2683   0.604   8.331   6.767 -0.0819  0.1076 -0.2624
    3TTP    C35 2684   0.480   8.262   6.716 -0.5508  0.2645  0.0578
    3TTP    C36 2685   0.394   8.359   6.625  0.2940  0.4588 -0.2737
    3TTP    C37 2686   0.256   8.296   6.578 -0.1951 -1.2397  0.7187
    3TTP    C38 2687   0.172   8.382   6.486 -0.7486 -0.1732 -0.8803
    3TTP    C39 2688   0.105   8.510   6.529 -0.0538 -0.4075 -0.1225
    3TTP    C40 2689   0.021   8.590   6.428 -0.2879 -0.2153  0.7352
    3TTP    C41 2690   0.096   8.636   6.296  0.1231  0.0983  0.4944
    3TTP    C42 2691   0.006   8.696   6.190 -0.1281 -0.1792  0.1780
    4BIM     F1 2692   2.490   7.331   7.443  0.2907 -0.0969  0.0485
    4BIM     F2 2693   2.716   7.468   7.510  0.1041  0.1435  0.1873
    4BIM     O1 2694   2.161   7.736   7.301 -0.0495 -0.4488 -0.1712
    4BIM     N5 2695   2.805   7.955   7.504 -0.4069  0.2391  0.2303
    4BIM     N6 2696   2.502   8.244   7.379 -0.6352 -0.0844  0.0309
    4BIM    C19 2697   2.259   8.011   7.314 -0.3488 -0.3438 -0.1165
    4BIM    C20 2698   2.333   7.904   7.347 -0.2559 -0.2648 -0.0668
    4BIM    C21 2699   2.276   7.766   7.338 -0.1037 -0.3262 -0.0993
    4BIM    C22 2700   2.382   7.673   7.381 -0.0327 -0.2124 -0.0293
    4BIM    C23 2701   2.376   7.534   7.389  0.1090 -0.2192 -0.0294
    4BIM    C24 2702   2.490   7.468   7.433  0.1521 -0.0979  0.0443
    4BIM    C25 2703   2.606   7.539   7.467  0.0557  0.0262  0.1156
    4BIM    C26 2704   2.613   7.677   7.459 -0.0858  0.0336  0.1162
    4BIM    C27 2705   2.499   7.746   7.415 -0.1314 -0.0885  0.0421
    4BIM    C28 2706   2.473   7.891   7.395 -0.2725 -0.1155  0.0221
    4BIM    C29 2707   2.562   7.994   7.418 -0.3948 -0.0205  0.0756
    4BIM    C30 2708   2.695   7.972   7.465 -0.4010  0.1220  0.1603
    4BIM    C31 2709   2.529   8.131   7.396 -0.5264 -0.0560  0.0507
    5BIM     F1 2710   0.663   7.112   6.997 -0.0549  0.0265  0.1043
    5BIM     F2 2711   0.424   7.150   6.873 -0.0259  0.1216  0.0771
    5BIM     O1 2712   0.887   7.602   6.938  0.2044 -0.1043  0.0035
    5BIM     N5 2713   0.239   7.554   6.654  0.2005  0.1652 -0.0339
    5BIM     N6 2714   0.462   7.928   6.633  0.3973  0.0441 -0.1074
    5BIM    C19 2715   0.738   7.812   6.799  0.3242 -0.0596 -0.0585
    5BIM    C20 2716   0.691   7.687   6.819  0.2578 -0.0305 -0.0319
    5BIM    C21 2717   0.774   7.585   6.891  0.1990 -0.0563 -0.0011
    5BIM    C22 2718   0.693   7.461   6.895  0.1344 -0.0135  0.0226
    5BIM    C23 2719   0.728   7.339   6.952  0.0665 -0.0180  0.0548
    5BIM    C24 2720   0.635   7.236   6.943  0.0136  0.0281  0.0725
    5BIM    C25 2721   0.512   7.256   6.879  0.0286  0.0770  0.0584
    5BIM    C26 2722   0.477   7.378   6.823  0.0963  0.0819  0.0265
    5BIM    C27 2723   0.569   7.483   6.830  0.1505  0.0356  0.0081
    5BIM    C28 2724   0.563   7.623   6.781  0.2270  0.0269 -0.0261
    5BIM    C29 2725   0.458   7.681   6.713  0.2623  0.0656 -0.0480
    5BIM    C30 2726   0.338   7.611   6.681  0.2282  0.1203 -0.0402
    5BIM    C31 2727   0.461   7.817   6.670  0.3364  0.0534 -0.0805
    1BTD     S2 2728   2.162   7.560   9.193 -0.1594 -0.1122 -0.2918
    1BTD     N1 2729   2.127   7.394   9.254 -0.1926 -0.0428 -0.1190
    1BTD     N2 2730   2.307   7.583   9.298 -0.1138 -0.0590 -0.3667
    1BTD     N3 2731   2.538   7.331   9.619 -0.0811  0.1749 -0.2062
    1BTD     N4 2732   2.317   7.098   9.565 -0.1780  0.1950  0.0992
    1BTD     C5 2733   2.229   7.243   9.417 -0.1838  0.0811 -0.0086
    1BTD     C6 2734   2.220   7.366   9.344 -0.1692  0.0136 -0.1254
    1BTD     C7 2735   2.321   7.472   9.368 -0.1252  0.0044 -0.2639
    1BTD     C8 2736   2.425   7.449   9.465 -0.0979  0.0632 -0.2789
    1BTD    C15 2737   2.429   7.326   9.534 -0.1135  0.1284 -0.1622
    1BTD    C16 2738   2.333   7.224   9.510 -0.1560  0.1372 -0.0284
    1BTD    C43 2739   2.425   7.017   9.630  0.1404  0.5086 -0.3080
    1BTD    C44 2740   2.390   6.928   9.754  0.5312 -0.4194 -0.0909
    1BTD    C45 2741   2.318   7.004   9.867  0.3941  0.0911  0.1006
    1BTD    C46 2742   2.278   6.941   9.997  0.0829 -0.1529  0.2195
    1BTD    C47 2743   2.506   6.843   9.788 -0.3887  1.1225 -0.2754
    1BTD    C48 2744   2.584   6.764   9.676 -0.3681  0.2571 -0.2690
    1BTD    C49 2745   2.713   6.717   9.738 -0.4756 -0.5787  0.3457
    1BTD    C50 2746   2.705   6.606   9.840  0.3520 -0.0497  0.2771
    1BTD    C75 2747   2.539   7.273   9.760  0.0538  0.0864  0.0935
    1BTD    C76 2748   2.665   7.233   9.833 -1.3580 -0.3393 -0.1213
    1BTD    C77 2749   2.748   7.123   9.761  0.3633 -0.1576 -0.2194
    1BTD    C78 2750   2.894   7.109   9.811 -0.2464  0.6231 -0.8046
    1BTD    C79 2751   2.636   7.206   9.984 -0.2391  0.6470  0.5146
    1BTD    C80 2752   2.566   7.310  10.061  0.3196 -0.1513 -0.4617
    1BTD    C81 2753   2.553   7.240  10.198  0.5138 -0.0201 -0.2086
    1BTD    C82 2754   2.481   7.328  10.306  0.3310 -0.1850 -0.2409
    2TTP     S1 2755   2.007   7.052   9.334  0.0229 -0.0343  0.1445
    2TTP     S5 2756   2.194   6.739   9.562  0.5201  0.0677 -0.1206
    2TTP     C1 2757   2.051   6.669   9.474  0.5082 -0.0385 -0.0178
    2TTP     C2 2758   1.985   6.762   9.398  0.3540 -0.0762  0.0701
    2TTP     C3 2759   2.044   6.891   9.407  0.2396 -0.0225  0.0596
    2TTP     C4 2760   2.149   7.122   9.423  0.0348  0.0720  0.0417
    2TTP    C17 2761   2.216   7.030   9.498  0.1891  0.1098 -0.0461
    2TTP    C18 2762   2.156   6.900   9.489  0.3034  0.0560 -0.0358
    2TTP    C32 2763   1.845   6.746   9.317 -0.4980 -0.0122 -0.0674
    2TTP    C33 2764   1.726   6.837   9.356 -0.0964  0.1667  0.1096
    2TTP    C34 2765   1.690   6.846   9.504  0.4753 -0.0613 -0.3303
    2TTP    C35 2766   1.627   6.723   9.572  1.0608 -0.3313  0.0802
    2TTP    C36 2767   1.487   6.681   9.519 -0.3664  0.2459  0.4502
    2TTP    C37 2768   1.430   6.557   9.581 -0.1957 -0.0484 -0.4139
    2TTP    C38 2769   1.293   6.498   9.554  0.3107 -0.1023 -0.0999
    2TTP    C39 2770   1.245   6.454   9.410 -0.0447  0.9947 -0.2136
    2TTP    C40 2771   1.097   6.483   9.382 -0.0967  0.3587 -0.8265
    2TTP    C41 2772   1.064   6.626   9.345  0.2095  0.1227 -0.3200
    2TTP    C42 2773   0.922   6.630   9.294 -0.3167 -0.5441  0.0083
    3TTP     S1 2774   2.618   7.687   9.464 -0.1699  0.1390  0.0251
    3TTP     S5 2775   2.862   7.486   9.756 -0.4777  0.1866  0.3154
    3TTP     C1 2776   2.943   7.643   9.710 -0.3577  0.1105  0.2682
    3TTP     C2 2777   2.873   7.714   9.617 -0.2555  0.0916  0.1760
    3TTP     C3 2778   2.752   7.647   9.579 -0.2684  0.1360  0.1392
    3TTP     C4 2779   2.537   7.530   9.509 -0.2899  0.2148  0.0725
    3TTP    C17 2780   2.608   7.459   9.603 -0.3921  0.2340  0.1646
    3TTP    C18 2781   2.728   7.526   9.641 -0.3793  0.1894  0.2015
    3TTP    C32 2782   2.902   7.847   9.554  0.4696  0.0564  0.0824
    3TTP    C33 2783   2.970   7.824   9.419 -0.3378  0.1566 -0.4940
    3TTP    C34 2784   2.995   7.944   9.336 -0.2113  0.5745  0.5374
    3TTP    C35 2785   3.094   7.913   9.234  0.6788 -0.2900  0.5115
    3TTP    C36 2786   3.137   8.033   9.152 -0.7873  0.2943 -1.3905
    3TTP    C37 2787   3.248   8.009   9.052  0.5607 -0.0339 -0.0158
    3TTP    C38 2788   3.292   8.122   8.969  0.3367  0.1257 -0.1578
    3TTP    C39 2789   3.421   8.094   8.894 -0.3905 -0.0951  0.5012
    3TTP    C40 2790   3.453   8.193   8.775  0.0664 -0.0089 -0.4926
    3TTP    C41 2791   3.363   8.196   8.654  0.0126  0.5037 -0.0314
    3TTP    C42 2792   3.387   8.070   8.569 -0.6481 -0.1318  0.1273
    4BIM     F1 2793   2.418   5.962   9.668  0.2809  0.2429  0.2637
    4BIM     F2 2794   2.183   5.834   9.616  0.4083  0.0708  0.1099
    4BIM     O1 2795   2.281   6.474   9.561 -0.0286  0.1450  0.1876
    4BIM     N5 2796   1.749   6.016   9.465  0.3709 -0.2462 -0.1659
    4BIM     N6 2797   1.689   6.442   9.391  0.1034 -0.2880 -0.1943
    4BIM    C19 2798   2.009   6.534   9.473 -0.0168 -0.0541  0.0133
    4BIM    C20 2799   2.052   6.410   9.502  0.0560 -0.0228  0.0386
    4BIM    C21 2800   2.194   6.387   9.546  0.0445  0.0808  0.1292
    4BIM    C22 2801   2.208   6.242   9.570  0.1367  0.0902  0.1345
    4BIM    C23 2802   2.321   6.173   9.612  0.1606  0.1727  0.2062
    4BIM    C24 2803   2.310   6.036   9.627  0.2525  0.1641  0.1958
    4BIM    C25 2804   2.189   5.970   9.600  0.3180  0.0754  0.1165
    4BIM    C26 2805   2.075   6.039   9.558  0.2946 -0.0072  0.0448
    4BIM    C27 2806   2.085   6.178   9.542  0.2019  0.0000  0.0539
    4BIM    C28 2807   1.984   6.278   9.499  0.1550 -0.0727 -0.0081
    4BIM    C29 2808   1.854   6.254   9.464  0.1955 -0.1684 -0.0932
    4BIM    C30 2809   1.796   6.123   9.465  0.2918 -0.2108 -0.1328
    4BIM    C31 2810   1.764   6.358   9.424  0.1446 -0.2338 -0.1483
    5BIM     F1 2811   3.620   7.259   9.983  0.2339  0.1652  0.2237
    5BIM     F2 2812   3.738   7.502  10.014  0.0787  0.2422  0.2151
    5BIM     O1 2813   3.137   7.403   9.786  0.2321 -0.1655 -0.0155
    5BIM     N5 2814   3.563   7.955   9.917 -0.1457  0.1171  0.0321
    5BIM     N6 2815   3.162   8.019   9.756 -0.1159 -0.1566 -0.1530
    5BIM    C19 2816   3.078   7.687   9.745  0.0831 -0.2095 -0.1087
    5BIM    C20 2817   3.195   7.641   9.793  0.0897 -0.1292 -0.0482
    5BIM    C21 2818   3.217   7.494   9.812  0.1683 -0.1117 -0.0031
    5BIM    C22 2819   3.354   7.479   9.866  0.1544 -0.0186  0.0582
    5BIM    C23 2820   3.420   7.361   9.899  0.2096  0.0278  0.1145
    5BIM    C24 2821   3.549   7.372   9.948  0.1825  0.1156  0.1665
    5BIM    C25 2822   3.609   7.497   9.964  0.1024  0.1549  0.1619
    5BIM    C26 2823   3.544   7.615   9.931  0.0470  0.1090  0.1059
    5BIM    C27 2824   3.413   7.606   9.881  0.0734  0.0201  0.0528
    5BIM    C28 2825   3.318   7.711   9.837  0.0305 -0.0461 -0.0128
    5BIM    C29 2826   3.340   7.847   9.837 -0.0489 -0.0333 -0.0362
    5BIM    C30 2827   3.462   7.906   9.881 -0.1019  0.0492  0.0014
    5BIM    C31 2828   3.242   7.941   9.793 -0.0853 -0.1012 -0.1003
    1BTD     S2 2829   1.403   3.137   8.556 -0.2252  0.0373 -0.0044
    1BTD     N1 2830   1.339   3.293   8.494 -0.1226  0.0284 -0.1314
    1BTD     N2 2831   1.276   3.037   8.478 -0.2634  0.0526  0.0379
    1BTD     N3 2832   0.902   3.115   8.204 -0.1561  0.0675 -0.1047
    1BTD     N4 2833   0.980   3.431   8.224  0.0173  0.0378 -0.3130
    1BTD     C5 2834   1.151   3.361   8.353 -0.0516  0.0337 -0.2236
    1BTD     C6 2835   1.232   3.264   8.421 -0.1222  0.0368 -0.1352
    1BTD     C7 2836   1.196   3.121   8.412 -0.2010  0.0503 -0.0405
    1BTD     C8 2837   1.081   3.082   8.335 -0.2052  0.0600 -0.0391
    1BTD    C15 2838   1.005   3.180   8.270 -0.1346  0.0565 -0.1275
    1BTD    C16 2839   1.039   3.319   8.278 -0.0587  0.0434 -0.2188
    1BTD    C43 2840   0.841   3.449   8.198  0.4186 -0.0249 -0.3956
    1BTD    C44 2841   0.760   3.534   8.097 -0.0724 -0.1673  0.1970
    1BTD    C45 2842   0.819   3.533   7.948  0.2820  0.6374 -0.2058
    1BTD    C46 2843   0.762   3.441   7.848  0.1426  0.4803  0.0256
    1BTD    C47 2844   0.617   3.565   8.142  0.1738 -0.2930  0.5265
    1BTD    C48 2845   0.585   3.715   8.123 -0.3745  0.0569  0.1292
    1BTD    C49 2846   0.454   3.772   8.174  0.5423 -0.3084 -0.2350
    1BTD    C50 2847   0.445   3.925   8.158  0.2767 -0.0607 -0.9367
    1BTD    C75 2848   0.857   3.160   8.074  0.8169  0.1484  0.5088
    1BTD    C76 2849   0.719   3.112   8.014  0.1439 -1.0409  0.1082
    1BTD    C77 2850   0.735   3.102   7.863 -0.4065  0.3649  0.0252
    1BTD    C78 2851   0.632   3.036   7.771  0.2892 -0.3576 -0.4587
    1BTD    C79 2852   0.594   3.181   8.066  0.4573  0.1069 -0.2450
    1BTD    C80 2853   0.563   3.190   8.217 -0.3469 -0.6963  0.0853
    1BTD    C81 2854   0.423   3.261   8.236 -0.7927  0.2616 -0.4203
    1BTD    C82 2855   0.381   3.288   8.381 -0.6656  0.3369 -0.0064
    2TTP     S1 2856   1.263   3.644   8.396  0.2953  0.0339 -0.1668
    2TTP     S5 2857   0.963   3.801   8.132  0.0791 -0.2981 -0.1187
    2TTP     C1 2858   1.068   3.938   8.188  0.2049 -0.2458 -0.4785
    2TTP     C2 2859   1.167   3.898   8.273  0.2790 -0.1402 -0.5145
    2TTP     C3 2860   1.163   3.757   8.297  0.2392 -0.0967 -0.2596
    2TTP     C4 2861   1.158   3.507   8.340  0.1695 -0.0182  0.1929
    2TTP    C17 2862   1.059   3.547   8.255  0.0954 -0.1239  0.2289
    2TTP    C18 2863   1.063   3.688   8.231  0.1352 -0.1673 -0.0262
    2TTP    C32 2864   1.263   3.995   8.347  0.8072  0.0484 -0.3194
    2TTP    C33 2865   1.216   4.043   8.487  0.3055  0.6239  0.8002
    2TTP    C34 2866   1.301   4.161   8.534 -0.2228 -0.4560 -0.0184
    2TTP    C35 2867   1.283   4.297   8.470 -0.1543  0.1546  0.0868
    2TTP    C36 2868   1.140   4.348   8.460  0.2845  0.7289 -0.4168
    2TTP    C37 2869   1.118   4.444   8.346  0.3893  0.3169  0.3655
    2TTP    C38 2870   0.979   4.509   8.345  0.2085 -0.1292 -0.7525
    2TTP    C39 2871   0.852   4.420   8.325  0.1180  0.3894 -0.0264
    2TTP    C40 2872   0.727   4.498   8.345 -0.3264  0.3218 -1.4847
    2TTP    C41 2873   0.611   4.399   8.337 -0.3440  0.5234 -0.7773
    2TTP    C42 2874   0.526   4.400   8.459 -0.0537  0.2635 -0.0423
    3TTP     S1 2875   1.043   2.782   8.350 -0.1003 -0.0036  0.3300
    3TTP     S5 2876   0.655   2.828   8.170 -0.1479 -0.5469  0.2923
    3TTP     C1 2877   0.677   2.653   8.217  0.0635 -0.5025  0.3598
    3TTP     C2 2878   0.798   2.629   8.275  0.0906 -0.3321  0.3753
    3TTP     C3 2879   0.878   2.747   8.285 -0.0545 -0.2304  0.3347
    3TTP     C4 2880   1.020   2.957   8.303 -0.3116 -0.0479  0.2623
    3TTP    C17 2881   0.899   2.981   8.245 -0.3388 -0.2182  0.2471
    3TTP    C18 2882   0.820   2.863   8.235 -0.1937 -0.3200  0.2878
    3TTP    C32 2883   0.850   2.495   8.320  0.2669 -0.2408 -0.2740
    3TTP    C33 2884   0.976   2.445   8.257 -0.1462  0.7235  0.1259
    3TTP    C34 2885   1.054   2.366   8.356  0.0066  0.1578  0.0794
    3TTP    C35 2886   1.183   2.307   8.308  0.1522 -0.9206  0.2266
    3TTP    C36 2887   1.262   2.247   8.418 -0.4165  0.9652 -0.0700
    3TTP    C37 2888   1.408   2.202   8.383 -0.0254 -0.6189  0.5115
    3TTP    C38 2889   1.437   2.110   8.267  0.1001  0.6537 -0.0382
    3TTP    C39 2890   1.587   2.072   8.264 -0.3656  0.7975 -0.1457
    3TTP    C40 2891   1.691   2.180   8.245  0.0850  0.6690 -0.2395
    3TTP    C41 2892   1.841   2.146   8.282  0.3111  0.6306 -0.2731
    3TTP    C42 2893   1.927   2.249   8.217 -0.1529 -0.2256 -0.5181
    4BIM     F1 2894   0.482   4.364   7.797 -0.1312  0.1650  0.1889
    4BIM     F2 2895   0.665   4.561   7.753 -0.0773  0.0784  0.0217
    4BIM     O1 2896   0.780   4.009   8.076 -0.0556  0.0453 -0.0439
    4BIM     N5 2897   1.139   4.592   7.890  0.0540 -0.1314 -0.3846
    4BIM     N6 2898   1.336   4.275   8.117  0.1022 -0.2075 -0.5326
    4BIM    C19 2899   1.061   4.071   8.134  0.0227 -0.0801 -0.2857
    4BIM    C20 2900   0.978   4.153   8.065  0.0016 -0.0465 -0.2210
    4BIM    C21 2901   0.836   4.114   8.039 -0.0385  0.0176 -0.0970
    4BIM    C22 2902   0.775   4.224   7.963 -0.0531  0.0408 -0.0521
    4BIM    C23 2903   0.644   4.234   7.916 -0.0889  0.0980  0.0587
    4BIM    C24 2904   0.610   4.348   7.846 -0.0963  0.1095  0.0811
    4BIM    C25 2905   0.704   4.450   7.823 -0.0685  0.0647 -0.0052
    4BIM    C26 2906   0.835   4.441   7.870 -0.0326  0.0075 -0.1162
    4BIM    C27 2907   0.871   4.326   7.941 -0.0247 -0.0050 -0.1403
    4BIM    C28 2908   1.000   4.286   8.003  0.0100 -0.0603 -0.2475
    4BIM    C29 2909   1.117   4.359   8.003  0.0435 -0.1141 -0.3517
    4BIM    C30 2910   1.129   4.487   7.941  0.0492 -0.1234 -0.3692
    4BIM    C31 2911   1.237   4.312   8.066  0.0757 -0.1652 -0.4504
    5BIM     F1 2912   0.022   2.552   7.725  0.0070 -0.0452 -0.0913
    5BIM     F2 2913  -0.012   2.305   7.833 -0.4414  0.2726  0.5083
    5BIM     O1 2914   0.461   2.723   7.991  0.3152 -0.1910 -0.5035
    5BIM     N5 2915   0.254   2.071   8.179 -0.8665  0.6254  1.0767
    5BIM     N6 2916   0.604   2.254   8.365 -0.5353  0.4475  0.6337
    5BIM    C19 2917   0.585   2.547   8.189 -0.0037  0.0607 -0.0773
    5BIM    C20 2918   0.476   2.514   8.118 -0.0637  0.0849  0.0031
    5BIM    C21 2919   0.418   2.610   8.018  0.1100 -0.0504 -0.2289
    5BIM    C22 2920   0.301   2.542   7.959 -0.0116  0.0169 -0.0664
    5BIM    C23 2921   0.215   2.592   7.861  0.0782 -0.0629 -0.1864
    5BIM    C24 2922   0.110   2.510   7.821 -0.0704  0.0262  0.0122
    5BIM    C25 2923   0.094   2.382   7.877 -0.3013  0.1898  0.3212
    5BIM    C26 2924   0.179   2.332   7.974 -0.3921  0.2702  0.4425
    5BIM    C27 2925   0.285   2.414   8.016 -0.2443  0.1820  0.2446
    5BIM    C28 2926   0.392   2.391   8.117 -0.2856  0.2304  0.2999
    5BIM    C29 2927   0.410   2.278   8.193 -0.4902  0.3812  0.5736
    5BIM    C30 2928   0.324   2.165   8.185 -0.6964  0.5150  0.8495
    5BIM    C31 2929   0.517   2.266   8.287 -0.5138  0.4168  0.6051
    1BTD     S2 2930   4.478   5.465   6.370 -0.1719  0.1119  0.2006
    1BTD     N1 2931   4.363   5.575   6.286 -0.1317 -0.0739 -0.0988
    1BTD     N2 2932   4.355   5.339   6.405 -0.2104  0.2339  0.5141
    1BTD     N3 2933   3.896   5.280   6.324 -0.2168  0.1466  0.6123
    1BTD     N4 2934   3.906   5.571   6.177 -0.1198 -0.2327 -0.1429
    1BTD     C5 2935   4.125   5.570   6.231 -0.1267 -0.1522 -0.1127
    1BTD     C6 2936   4.245   5.515   6.288 -0.1483 -0.0374  0.0429
    1BTD     C7 2937   4.240   5.383   6.355 -0.1925  0.1348  0.3860
    1BTD     C8 2938   4.115   5.312   6.361 -0.2126  0.1838  0.5562
    1BTD    C15 2939   4.000   5.369   6.303 -0.1901  0.0672  0.3939
    1BTD    C16 2940   4.005   5.496   6.239 -0.1477 -0.0987  0.0634
    1BTD    C43 2941   3.769   5.540   6.140 -0.0721 -0.4503  0.5879
    1BTD    C44 2942   3.746   5.462   6.006 -0.2183 -0.0118 -0.2044
    1BTD    C45 2943   3.606   5.466   5.949 -0.0901 -0.3344 -0.0194
    1BTD    C46 2944   3.534   5.604   5.942  0.2812  0.7961  0.4035
    1BTD    C47 2945   3.826   5.338   5.987  0.4256  0.3440  0.2604
    1BTD    C48 2946   3.858   5.292   5.841 -0.2829 -0.2298 -0.1917
    1BTD    C49 2947   3.924   5.390   5.742 -0.4516 -0.3186 -0.0505
    1BTD    C50 2948   4.063   5.436   5.790 -0.0446  0.4294 -0.6387
    1BTD    C75 2949   3.763   5.324   6.377 -0.1955 -0.4052 -0.6595
    1BTD    C76 2950   3.645   5.226   6.374 -0.0157 -0.6573 -0.6042
    1BTD    C77 2951   3.545   5.256   6.484 -0.3918 -0.0776  0.5311
    1BTD    C78 2952   3.461   5.383   6.489 -0.1209 -0.0037 -0.1261
    1BTD    C79 2953   3.598   5.193   6.229 -0.0904 -0.1367 -0.5822
    1BTD    C80 2954   3.482   5.092   6.208  0.1383  0.0383  0.0924
    1BTD    C81 2955   3.475   5.036   6.070  0.1328  0.2051  0.1303
    1BTD    C82 2956   3.337   4.980   6.035  0.5506 -0.0588 -0.1875
    2TTP     S1 2957   4.186   5.833   6.087 -0.0737  0.0934 -0.0207
    2TTP     S5 2958   3.774   5.863   5.969 -0.0749 -0.0350 -0.0495
    2TTP     C1 2959   3.863   6.008   5.905 -0.0703 -0.1165 -0.2295
    2TTP     C2 2960   3.996   6.007   5.938 -0.0696 -0.0819 -0.2310
    2TTP     C3 2961   4.032   5.892   6.015 -0.0726  0.0105 -0.0905
    2TTP     C4 2962   4.097   5.688   6.151 -0.0784  0.1749  0.1591
    2TTP    C17 2963   3.964   5.689   6.118 -0.0789  0.1402  0.1608
    2TTP    C18 2964   3.928   5.804   6.042 -0.0759  0.0478  0.0201
    2TTP    C32 2965   4.099   6.107   5.896  0.3035  0.2274 -0.0992
    2TTP    C33 2966   4.196   6.062   5.784 -0.0353 -0.5133 -0.4689
    2TTP    C34 2967   4.307   6.160   5.756  0.0662 -0.5679  0.0704
    2TTP    C35 2968   4.434   6.152   5.846 -0.1940 -0.1144 -0.2250
    2TTP    C36 2969   4.522   6.028   5.856  0.4717  0.1001  0.1813
    2TTP    C37 2970   4.649   6.038   5.942  0.0704  0.0457 -0.6032
    2TTP    C38 2971   4.761   6.122   5.881 -0.4042 -0.1512 -0.6224
    2TTP    C39 2972   4.902   6.099   5.937  0.0512 -0.1641 -0.4534
    2TTP    C40 2973   4.997   6.180   5.863 -1.1060 -0.7178 -0.1535
    2TTP    C41 2974   5.142   6.168   5.908 -0.1581 -0.2106 -0.1432
    2TTP    C42 2975   5.245   6.251   5.838 -0.1145 -0.5294  0.0030
    3TTP     S1 2976   4.181   5.035   6.434 -0.1249  0.2519 -0.0304
    3TTP     S5 2977   3.784   4.924   6.311 -0.1698  0.2019  0.1597
    3TTP     C1 2978   3.881   4.772   6.338 -0.0914  0.2158 -0.0362
    3TTP     C2 2979   4.009   4.798   6.378 -0.0728  0.2320 -0.1065
    3TTP     C3 2980   4.035   4.938   6.388 -0.1202  0.2340 -0.0081
    3TTP     C4 2981   4.084   5.187   6.406 -0.2035  0.2381  0.1656
    3TTP    C17 2982   3.956   5.161   6.366 -0.2220  0.2217  0.2358
    3TTP    C18 2983   3.929   5.021   6.356 -0.1749  0.2197  0.1373
    3TTP    C32 2984   4.117   4.695   6.388 -0.1978 -0.0700 -0.4697
    3TTP    C33 2985   4.184   4.684   6.528  0.7543  0.2781  0.2066
    3TTP    C34 2986   4.271   4.564   6.520 -0.2794  0.1769 -0.4786
    3TTP    C35 2987   4.337   4.533   6.661  0.0522 -0.1300  0.1324
    3TTP    C36 2988   4.441   4.421   6.671  0.0193 -0.6054 -0.6833
    3TTP    C37 2989   4.526   4.428   6.800  0.0605 -0.1066 -0.1404
    3TTP    C38 2990   4.623   4.549   6.818  0.3921  0.1716  0.2259
    3TTP    C39 2991   4.736   4.573   6.717 -0.1093 -0.2305  0.4144
    3TTP    C40 2992   4.797   4.449   6.637  0.1046 -0.3925 -0.5786
    3TTP    C41 2993   4.903   4.487   6.538  0.4763  0.2712 -0.0014
    3TTP    C42 2994   4.969   4.371   6.473 -0.2457  0.2622  0.0870
    4BIM     F1 2995   3.147   6.159   5.517  0.2736  0.0194 -0.4663
    4BIM     F2 2996   3.238   6.410   5.465  0.0439  0.2526  0.2422
    4BIM     O1 2997   3.571   5.950   5.782  0.1907 -0.1123 -0.4376
    4BIM     N5 2998   3.669   6.623   5.580 -0.3457  0.4938  1.2811
    4BIM     N6 2999   3.982   6.409   5.798 -0.3642  0.3438  1.1609
    4BIM    C19 3000   3.807   6.116   5.827 -0.0583  0.0635  0.2495
    4BIM    C20 3001   3.697   6.159   5.763 -0.0284  0.0876  0.2146
    4BIM    C21 3002   3.579   6.068   5.743  0.1016 -0.0074 -0.1478
    4BIM    C22 3003   3.478   6.145   5.670  0.1019  0.0483 -0.0895
    4BIM    C23 3004   3.352   6.103   5.629  0.2016 -0.0046 -0.3463
    4BIM    C24 3005   3.273   6.194   5.560  0.1793  0.0662 -0.2268
    4BIM    C25 3006   3.320   6.324   5.534  0.0608  0.1863  0.1383
    4BIM    C26 3007   3.446   6.366   5.574 -0.0390  0.2397  0.3958
    4BIM    C27 3008   3.527   6.275   5.644 -0.0184  0.1694  0.2801
    4BIM    C28 3009   3.663   6.289   5.700 -0.1031  0.1984  0.4815
    4BIM    C29 3010   3.743   6.401   5.695 -0.2272  0.3070  0.8459
    4BIM    C30 3011   3.702   6.523   5.632 -0.2919  0.4092  1.0839
    4BIM    C31 3012   3.874   6.405   5.752 -0.3018  0.3266  1.0171
    5BIM     F1 3013   3.239   4.435   5.942  0.2911 -0.0347 -0.3661
    5BIM     F2 3014   3.299   4.198   6.061 -0.0440  0.0293 -0.0679
    5BIM     O1 3015   3.632   4.751   6.138  0.3906 -0.2003 -0.2986
    5BIM     N5 3016   3.665   4.082   6.372 -0.4546  0.0032  0.4086
    5BIM     N6 3017   3.961   4.377   6.501 -0.3093 -0.1392  0.4015
    5BIM    C19 3018   3.830   4.636   6.321  0.1059 -0.1984  0.0103
    5BIM    C20 3019   3.728   4.566   6.267  0.0941 -0.1590 -0.0185
    5BIM    C21 3020   3.631   4.632   6.174  0.2460 -0.1631 -0.1802
    5BIM    C22 3021   3.534   4.528   6.134  0.1892 -0.1141 -0.1701
    5BIM    C23 3022   3.425   4.542   6.048  0.2853 -0.0998 -0.2905
    5BIM    C24 3023   3.348   4.429   6.025  0.2036 -0.0511 -0.2528
    5BIM    C25 3024   3.379   4.307   6.087  0.0309 -0.0183 -0.0989
    5BIM    C26 3025   3.487   4.293   6.173 -0.0659 -0.0323  0.0215
    5BIM    C27 3026   3.567   4.406   6.197  0.0148 -0.0813 -0.0144
    5BIM    C28 3027   3.687   4.424   6.281 -0.0506 -0.1075  0.0850
    5BIM    C29 3028   3.749   4.328   6.358 -0.2137 -0.0881  0.2426
    5BIM    C30 3029   3.703   4.193   6.366 -0.3458 -0.0379  0.3333
    5BIM    C31 3030   3.865   4.355   6.436 -0.2654 -0.1163  0.3290
    1BTD     S2 3031   1.209   2.705   5.366 -0.1965  0.1875 -0.0223
    1BTD     N1 3032   1.202   2.534   5.310 -0.1417  0.1523  0.0784
    1BTD     N2 3033   1.069   2.758   5.266 -0.1445  0.1085 -0.1379
    1BTD     N3 3034   0.772   2.559   4.962  0.0604 -0.1158 -0.1918
    1BTD     N4 3035   0.935   2.282   5.017  0.0638 -0.0619  0.0747
    1BTD     C5 3036   1.061   2.406   5.156 -0.0345  0.0398  0.0733
    1BTD     C6 3037   1.101   2.526   5.225 -0.0902  0.0870  0.0235
    1BTD     C7 3038   1.027   2.651   5.200 -0.0917  0.0624 -0.0976
    1BTD     C8 3039   0.916   2.651   5.108 -0.0375 -0.0079 -0.1630
    1BTD    C15 3040   0.880   2.531   5.044  0.0160 -0.0523 -0.1104
    1BTD    C16 3041   0.951   2.410   5.068  0.0175 -0.0285  0.0061
    1BTD    C43 3042   0.806   2.211   4.989  0.5244 -0.1463  0.6648
    1BTD    C44 3043   0.786   2.095   4.883 -0.2778  0.2742  0.0770
    1BTD    C45 3044   0.648   2.028   4.886  0.1552 -0.7607  0.1454
    1BTD    C46 3045   0.629   1.930   4.990 -0.0232  0.2197 -0.3986
    1BTD    C47 3046   0.817   2.124   4.732 -0.8870  0.4252  0.1510
    1BTD    C48 3047   0.934   2.210   4.693  0.4449  0.5822  0.3169
    1BTD    C49 3048   0.955   2.205   4.538  0.0055  0.2343  0.4302
    1BTD    C50 3049   1.073   2.287   4.469  0.0692 -0.6575 -0.7585
    1BTD    C75 3050   0.736   2.488   4.837 -0.4922  0.3044  0.3727
    1BTD    C76 3051   0.596   2.476   4.774  0.2407 -0.5815 -0.5040
    1BTD    C77 3052   0.583   2.430   4.631 -0.1580 -0.1529 -0.0091
    1BTD    C78 3053   0.677   2.495   4.531 -0.5606  0.0385  0.2993
    1BTD    C79 3054   0.505   2.401   4.875  0.1383 -0.2679  0.3569
    1BTD    C80 3055   0.354   2.412   4.841  0.1763  0.1369  0.1513
    1BTD    C81 3056   0.262   2.340   4.946 -0.1671 -0.6950 -0.2034
    1BTD    C82 3057   0.298   2.207   5.005  0.4948 -0.3059 -0.0314
    2TTP     S1 3058   1.248   2.184   5.230 -0.0292 -0.1257 -0.2744
    2TTP     S5 3059   0.996   1.907   5.020 -0.2249 -0.1096 -0.0625
    2TTP     C1 3060   1.124   1.813   5.108 -0.0901 -0.1111 -0.2576
    2TTP     C2 3061   1.210   1.893   5.179 -0.0216 -0.1162 -0.3345
    2TTP     C3 3062   1.177   2.031   5.165 -0.0733 -0.1191 -0.2422
    2TTP     C4 3063   1.120   2.278   5.142 -0.1641 -0.1243 -0.0794
    2TTP    C17 3064   1.035   2.198   5.071 -0.2325 -0.1193 -0.0025
    2TTP    C18 3065   1.068   2.059   5.085 -0.1808 -0.1163 -0.0949
    2TTP    C32 3066   1.325   1.853   5.274  0.4129  0.0884  0.4012
    2TTP    C33 3067   1.463   1.883   5.225  0.0573  0.7139 -0.5419
    2TTP    C34 3068   1.575   1.837   5.325  0.1095  0.2084  0.1627
    2TTP    C35 3069   1.722   1.849   5.284 -0.3845  0.4352 -0.3367
    2TTP    C36 3070   1.825   1.769   5.369 -0.2162 -0.5764  0.1673
    2TTP    C37 3071   1.963   1.831   5.364  0.0445 -0.5359 -0.3600
    2TTP    C38 3072   2.071   1.776   5.464  0.1199 -0.1568  0.2890
    2TTP    C39 3073   2.034   1.808   5.611 -0.3405  0.1427  0.0761
    2TTP    C40 3074   2.037   1.955   5.658 -0.4532  0.1775  0.1512
    2TTP    C41 3075   2.168   2.029   5.662  0.0998  0.5529 -0.5133
    2TTP    C42 3076   2.137   2.167   5.711 -0.3244  0.1880  0.6294
    3TTP     S1 3077   0.776   2.923   5.116  0.0601 -0.1341  0.0693
    3TTP     S5 3078   0.503   2.778   4.817  0.0194 -0.0304  0.0560
    3TTP     C1 3079   0.461   2.951   4.855  0.2818  0.0846 -0.1755
    3TTP     C2 3080   0.543   3.006   4.949  0.3098  0.0594 -0.1851
    3TTP     C3 3081   0.641   2.913   4.996  0.1251 -0.0517 -0.0099
    3TTP     C4 3082   0.817   2.750   5.079 -0.2023 -0.2491  0.3006
    3TTP    C17 3083   0.735   2.695   4.984 -0.2303 -0.2238  0.3102
    3TTP    C18 3084   0.637   2.787   4.938 -0.0456 -0.1128  0.1351
    3TTP    C32 3085   0.524   3.143   5.021  0.3034  0.3563  0.5974
    3TTP    C33 3086   0.608   3.256   4.959  0.2754  0.2593  0.0152
    3TTP    C34 3087   0.561   3.402   4.993  0.1110  0.2189  0.2485
    3TTP    C35 3088   0.542   3.440   5.140 -0.5227  0.2071 -0.1002
    3TTP    C36 3089   0.671   3.433   5.225 -0.1375  0.2678 -0.2110
    3TTP    C37 3090   0.684   3.501   5.360  0.0058 -0.0879 -0.5149
    3TTP    C38 3091   0.813   3.475   5.438  0.4224 -0.1423  0.1796
    3TTP    C39 3092   0.836   3.554   5.565 -0.2644  0.4520  0.4423
    3TTP    C40 3093   0.964   3.520   5.641  0.7612 -0.0154  0.3804
    3TTP    C41 3094   0.999   3.613   5.755 -0.0779 -0.2023 -0.1079
    3TTP    C42 3095   1.100   3.545   5.843 -0.5124  0.2458  0.7090
    4BIM     F1 3096   0.900   1.205   4.604 -0.0559  0.2800  0.0064
    4BIM     F2 3097   1.013   1.028   4.777  0.0668  0.2187 -0.1354
    4BIM     O1 3098   1.004   1.673   4.855 -0.0900  0.1742  0.2180
    4BIM     N5 3099   1.248   1.107   5.205  0.2187  0.0553 -0.1884
    4BIM     N6 3100   1.306   1.508   5.366  0.1673 -0.0151  0.0056
    4BIM    C19 3101   1.148   1.670   5.110  0.0150  0.0780  0.1578
    4BIM    C20 3102   1.117   1.559   5.040  0.0188  0.1071  0.1100
    4BIM    C21 3103   1.043   1.569   4.909 -0.0372  0.1560  0.1456
    4BIM    C22 3104   1.027   1.431   4.860 -0.0170  0.1778  0.0775
    4BIM    C23 3105   0.964   1.389   4.743 -0.0527  0.2230  0.0805
    4BIM    C24 3106   0.961   1.253   4.718 -0.0233  0.2358  0.0079
    4BIM    C25 3107   1.019   1.162   4.807  0.0399  0.2042 -0.0652
    4BIM    C26 3108   1.081   1.203   4.924  0.0758  0.1591 -0.0684
    4BIM    C27 3109   1.086   1.340   4.952  0.0468  0.1455  0.0042
    4BIM    C28 3110   1.144   1.416   5.065  0.0714  0.1007  0.0215
    4BIM    C29 3111   1.210   1.362   5.174  0.1313  0.0610 -0.0341
    4BIM    C30 3112   1.231   1.222   5.190  0.1791  0.0580 -0.1186
    4BIM    C31 3113   1.262   1.443   5.279  0.1508  0.0193 -0.0119
    5BIM     F1 3114  -0.266   2.711   4.576 -0.1786  0.0586  0.0560
    5BIM     F2 3115  -0.315   2.965   4.492 -0.0215  0.0267 -0.1332
    5BIM     O1 3116   0.223   2.768   4.801 -0.1776 -0.0596  0.0846
    5BIM     N5 3117  -0.036   3.372   4.532  0.2055 -0.1034 -0.3843
    5BIM     N6 3118   0.356   3.366   4.724  0.1746 -0.1895 -0.3237
    5BIM    C19 3119   0.350   3.032   4.801 -0.0270 -0.1322 -0.0857
    5BIM    C20 3120   0.229   3.008   4.747 -0.0334 -0.1011 -0.0854
    5BIM    C21 3121   0.170   2.869   4.751 -0.1129 -0.0649  0.0050
    5BIM    C22 3122   0.039   2.878   4.685 -0.0986 -0.0372 -0.0199
    5BIM    C23 3123  -0.053   2.775   4.665 -0.1545  0.0005  0.0403
    5BIM    C24 3124  -0.171   2.807   4.599 -0.1267  0.0213  0.0004
    5BIM    C25 3125  -0.196   2.938   4.556 -0.0456  0.0047 -0.0969
    5BIM    C26 3126  -0.105   3.041   4.576  0.0103 -0.0327 -0.1578
    5BIM    C27 3127   0.015   3.011   4.642 -0.0166 -0.0543 -0.1184
    5BIM    C28 3128   0.131   3.096   4.679  0.0267 -0.0942 -0.1626
    5BIM    C29 3129   0.145   3.230   4.654  0.1072 -0.1199 -0.2569
    5BIM    C30 3130   0.046   3.308   4.587  0.1610 -0.1108 -0.3266
    5BIM    C31 3131   0.261   3.304   4.693  0.1438 -0.1580 -0.2930
    1BTD     S2 3132   7.352   6.906   4.938  0.3063 -0.0112  0.0164
    1BTD     N1 3133   7.273   6.754   4.992  0.2427 -0.0643 -0.2257
    1BTD     N2 3134   7.198   6.985   4.888  0.3387  0.1359  0.1500
    1BTD     N3 3135   6.743   6.872   4.883  0.2893  0.3397 -0.0151
    1BTD     N4 3136   6.834   6.587   5.011  0.1709  0.0931 -0.4778
    1BTD     C5 3137   7.043   6.670   5.000  0.2066  0.0207 -0.3517
    1BTD     C6 3138   7.143   6.769   4.971  0.2484  0.0256 -0.1961
    1BTD     C7 3139   7.101   6.899   4.913  0.3023  0.1378  0.0142
    1BTD     C8 3140   6.962   6.923   4.887  0.3114  0.2394  0.0582
    1BTD    C15 3141   6.867   6.823   4.918  0.2694  0.2306 -0.0990
    1BTD    C16 3142   6.907   6.698   4.974  0.2178  0.1225 -0.3016
    1BTD    C43 3143   6.698   6.594   5.076  0.1704  0.8178  0.2713
    1BTD    C44 3144   6.602   6.469   5.096 -0.4778  0.4824  0.7837
    1BTD    C45 3145   6.511   6.487   5.214 -0.5989  0.3293 -0.0635
    1BTD    C46 3146   6.581   6.492   5.349 -0.2277  0.0343  0.3076
    1BTD    C47 3147   6.547   6.419   4.959  0.2452 -0.2854  0.5380
    1BTD    C48 3148   6.459   6.294   4.959 -0.6618 -0.0466 -0.5783
    1BTD    C49 3149   6.419   6.261   4.816  0.0291  0.4704 -0.1985
    1BTD    C50 3150   6.325   6.146   4.808 -0.1225  0.2082  0.0792
    1BTD    C75 3151   6.647   6.789   4.805 -0.3369  0.1271  0.0261
    1BTD    C76 3152   6.498   6.816   4.809  0.1643  0.7609  0.4030
    1BTD    C77 3153   6.422   6.769   4.683 -0.5396  0.4256 -0.7970
    1BTD    C78 3154   6.417   6.620   4.649 -0.6513  0.6220  0.0461
    1BTD    C79 3155   6.434   6.776   4.941 -0.4577  0.1191 -0.2100
    1BTD    C80 3156   6.279   6.799   4.961 -0.1570 -0.1171  0.0118
    1BTD    C81 3157   6.184   6.753   5.074  0.5005  0.0554 -0.4882
    1BTD    C82 3158   6.238   6.737   5.217  0.4008  0.2078  0.2555
    2TTP     S1 3159   7.179   6.417   5.088 -0.0682  0.1756 -0.3152
    2TTP     S5 3160   6.802   6.212   5.063  0.1090 -0.2577  0.4656
    2TTP     C1 3161   6.932   6.090   5.096  0.3570 -0.1411 -0.0477
    2TTP     C2 3162   7.056   6.146   5.106  0.3171 -0.0004 -0.3190
    2TTP     C3 3163   7.053   6.287   5.088  0.0889  0.0205 -0.1312
    2TTP     C4 3164   7.049   6.539   5.055 -0.3161  0.0588  0.1980
    2TTP    C17 3165   6.924   6.483   5.045 -0.2762 -0.0818  0.4696
    2TTP    C18 3166   6.928   6.342   5.063 -0.0480 -0.1025  0.2818
    2TTP    C32 3167   7.188   6.072   5.142 -0.5674 -0.7327  0.4022
    2TTP    C33 3168   7.263   6.115   5.271  0.2268 -0.5689  0.6049
    2TTP    C34 3169   7.387   6.041   5.287  0.0160 -0.2697 -1.2220
    2TTP    C35 3170   7.378   5.906   5.362  0.3227 -0.2819  0.4873
    2TTP    C36 3171   7.509   5.845   5.408  0.1553 -0.1916  0.1197
    2TTP    C37 3172   7.614   5.936   5.473  0.2065  0.4475 -0.2762
    2TTP    C38 3173   7.741   5.855   5.489 -0.1520  0.3140  0.0236
    2TTP    C39 3174   7.831   5.916   5.595 -0.1342 -0.3030  0.0100
    2TTP    C40 3175   7.973   5.856   5.608  0.8761 -0.3480 -0.0252
    2TTP    C41 3176   7.956   5.713   5.663 -0.2921 -0.4109  0.2160
    2TTP    C42 3177   8.098   5.653   5.686 -0.1674  0.6430 -0.1628
    3TTP     S1 3178   6.918   7.201   4.770  0.1303 -0.1165 -0.1345
    3TTP     S5 3179   6.494   7.139   4.800  0.1433 -0.2005 -0.1255
    3TTP     C1 3180   6.523   7.306   4.737  0.1097 -0.1721 -0.0665
    3TTP     C2 3181   6.656   7.336   4.724  0.1038 -0.1445 -0.0660
    3TTP     C3 3182   6.739   7.226   4.763  0.1255 -0.1450 -0.1119
    3TTP     C4 3183   6.889   7.033   4.833  0.1639 -0.1447 -0.1934
    3TTP    C17 3184   6.756   7.004   4.847  0.1699 -0.1724 -0.1940
    3TTP    C18 3185   6.673   7.113   4.807  0.1482 -0.1723 -0.1482
    3TTP    C32 3186   6.724   7.470   4.680 -0.3137 -0.0408  0.9899
    3TTP    C33 3187   6.829   7.473   4.564  0.1976  0.3535 -0.4904
    3TTP    C34 3188   6.877   7.615   4.533 -0.4462  0.7206 -0.2142
    3TTP    C35 3189   6.975   7.626   4.421 -0.3578 -0.4955 -0.1672
    3TTP    C36 3190   7.014   7.780   4.407  0.6080  0.6700  0.1257
    3TTP    C37 3191   7.130   7.802   4.319 -0.1919 -0.5010 -0.2853
    3TTP    C38 3192   7.135   7.944   4.264  0.0225 -0.2898  0.1694
    3TTP    C39 3193   7.247   7.965   4.172  0.0141 -0.7222 -0.1050
    3TTP    C40 3194   7.272   8.105   4.105  0.0078 -0.1986 -0.0554
    3TTP    C41 3195   7.392   8.111   4.009 -0.0399  0.3729  0.2336
    3TTP    C42 3196   7.349   8.132   3.863  0.1271  0.2643  0.0613
    4BIM     F1 3197   6.291   5.577   5.039 -0.0489 -0.1807  0.0293
    4BIM     F2 3198   6.466   5.369   5.025  0.0188 -0.1053 -0.2536
    4BIM     O1 3199   6.632   5.994   5.095 -0.1682 -0.1067  0.2083
    4BIM     N5 3200   6.960   5.367   5.044  0.0310  0.0557 -0.5326
    4BIM     N6 3201   7.192   5.735   5.091 -0.0762  0.0985 -0.3358
    4BIM    C19 3202   6.920   5.943   5.102 -0.1461 -0.0084  0.0016
    4BIM    C20 3203   6.828   5.846   5.088 -0.1187 -0.0299 -0.0324
    4BIM    C21 3204   6.681   5.880   5.086 -0.1324 -0.0806  0.0799
    4BIM    C22 3205   6.609   5.753   5.070 -0.0951 -0.0929  0.0072
    4BIM    C23 3206   6.471   5.734   5.062 -0.0925 -0.1360  0.0672
    4BIM    C24 3207   6.426   5.603   5.047 -0.0537 -0.1392 -0.0231
    4BIM    C25 3208   6.516   5.496   5.040 -0.0190 -0.1002 -0.1688
    4BIM    C26 3209   6.654   5.515   5.047 -0.0215 -0.0571 -0.2294
    4BIM    C27 3210   6.701   5.646   5.062 -0.0602 -0.0532 -0.1397
    4BIM    C28 3211   6.839   5.699   5.073 -0.0734 -0.0131 -0.1698
    4BIM    C29 3212   6.956   5.626   5.070 -0.0484  0.0315 -0.3002
    4BIM    C30 3213   6.958   5.484   5.056 -0.0050  0.0446 -0.4275
    4BIM    C31 3214   7.085   5.686   5.082 -0.0638  0.0681 -0.3190
    5BIM     F1 3215   5.704   7.307   4.689  0.0036  0.0787  0.0839
    5BIM     F2 3216   5.717   7.554   4.577 -0.0017  0.0863  0.1010
    5BIM     O1 3217   6.229   7.201   4.768  0.0135  0.0267 -0.0504
    5BIM     N5 3218   6.111   7.836   4.473 -0.0023  0.0603  0.0297
    5BIM     N6 3219   6.519   7.704   4.557  0.0066  0.0180 -0.0788
    5BIM    C19 3220   6.428   7.401   4.689  0.0120  0.0155 -0.0818
    5BIM    C20 3221   6.296   7.418   4.674  0.0098  0.0284 -0.0489
    5BIM    C21 3222   6.199   7.310   4.716  0.0106  0.0334 -0.0343
    5BIM    C22 3223   6.064   7.361   4.685  0.0075  0.0476  0.0020
    5BIM    C23 3224   5.943   7.297   4.707  0.0073  0.0564  0.0259
    5BIM    C24 3225   5.828   7.364   4.670  0.0041  0.0693  0.0590
    5BIM    C25 3226   5.835   7.492   4.612  0.0013  0.0733  0.0676
    5BIM    C26 3227   5.956   7.556   4.590  0.0017  0.0646  0.0440
    5BIM    C27 3228   6.073   7.490   4.628  0.0049  0.0513  0.0104
    5BIM    C28 3229   6.216   7.530   4.618  0.0061  0.0396 -0.0204
    5BIM    C29 3230   6.264   7.648   4.567  0.0041  0.0395 -0.0225
    5BIM    C30 3231   6.180   7.751   4.515  0.0006  0.0509  0.0062
    5BIM    C31 3232   6.404   7.678   4.562  0.0055  0.0278 -0.0533
    1BTD     S2 3233   8.088   1.593   7.980  0.0530  0.1168 -0.0168
    1BTD     N1 3234   8.169   1.444   8.040  0.1302 -0.0672 -0.5620
    1BTD     N2 3235   8.233   1.697   7.999 -0.0615  0.1719  0.5615
    1BTD     N3 3236   8.674   1.642   8.149 -0.1550 -0.0483  0.7558
    1BTD     N4 3237   8.595   1.330   8.199  0.0815 -0.3429 -0.6282
    1BTD     C5 3238   8.392   1.388   8.123  0.1020 -0.2076 -0.5798
    1BTD     C6 3239   8.293   1.478   8.070  0.0699 -0.0776 -0.2983
    1BTD     C7 3240   8.329   1.620   8.048 -0.0374  0.0562  0.3304
    1BTD     C8 3241   8.462   1.664   8.078 -0.1073  0.0534  0.6464
    1BTD    C15 3242   8.556   1.573   8.129 -0.0728 -0.0764  0.3525
    1BTD    C16 3243   8.522   1.436   8.151  0.0307 -0.2053 -0.2532
    1BTD    C43 3244   8.705   1.329   8.301 -0.4121 -0.3369 -0.1585
    1BTD    C44 3245   8.670   1.311   8.446  0.7866  0.1098  0.1563
    1BTD    C45 3246   8.567   1.417   8.489  0.0077 -0.1851 -0.1654
    1BTD    C46 3247   8.486   1.401   8.617  0.6931  0.1515 -0.3014
    1BTD    C47 3248   8.801   1.317   8.532  0.5236  0.3160 -0.6028
    1BTD    C48 3249   8.880   1.187   8.502 -0.5135  0.2244  0.0088
    1BTD    C49 3250   8.992   1.173   8.595 -0.1481 -0.3620 -0.6076
    1BTD    C50 3251   9.080   1.057   8.583 -0.3422  0.6264  0.1360
    1BTD    C75 3252   8.811   1.589   8.122 -0.0556 -0.0279  0.6725
    1BTD    C76 3253   8.941   1.642   8.191  0.3735  0.1467  0.3191
    1BTD    C77 3254   8.924   1.637   8.341 -0.0657 -0.1519 -0.0854
    1BTD    C78 3255   9.042   1.692   8.422 -0.4435  0.5881 -0.1736
    1BTD    C79 3256   9.076   1.585   8.141  0.1859  0.3151  0.6676
    1BTD    C80 3257   9.100   1.595   7.989  0.0167 -0.1094 -0.0414
    1BTD    C81 3258   9.200   1.494   7.926  0.1805 -0.6916 -0.4264
    1BTD    C82 3259   9.341   1.514   7.977 -0.3256 -0.8560 -0.9312
    2TTP     S1 3260   8.291   1.097   8.128 -0.1114  0.0230  0.0875
    2TTP     S5 3261   8.690   0.966   8.221  0.0319  0.0319 -0.5107
    2TTP     C1 3262   8.587   0.820   8.192 -0.0348  0.0263 -0.2515
    2TTP     C2 3263   8.457   0.851   8.161 -0.0834  0.0232 -0.0517
    2TTP     C3 3264   8.435   0.992   8.160 -0.0689  0.0252 -0.0958
    2TTP     C4 3265   8.395   1.243   8.158 -0.0443  0.0285 -0.1717
    2TTP    C17 3266   8.524   1.212   8.188  0.0041  0.0316 -0.3715
    2TTP    C18 3267   8.546   1.070   8.189 -0.0103  0.0297 -0.3273
    2TTP    C32 3268   8.348   0.757   8.107 -0.1052 -0.4654 -0.2130
    2TTP    C33 3269   8.299   0.679   8.225 -0.2293  0.6764 -0.7179
    2TTP    C34 3270   8.199   0.567   8.210 -0.0370  0.0772  0.4203
    2TTP    C35 3271   8.054   0.615   8.181  0.1215  0.3036  0.4095
    2TTP    C36 3272   7.959   0.505   8.151 -0.1095  0.6791  0.4057
    2TTP    C37 3273   7.812   0.533   8.120  0.9999  0.2342 -0.0219
    2TTP    C38 3274   7.737   0.624   8.213 -0.0002 -0.3766  0.4035
    2TTP    C39 3275   7.589   0.625   8.178 -0.3519 -0.0899 -0.0320
    2TTP    C40 3276   7.510   0.696   8.287  0.4618  0.1854 -0.4813
    2TTP    C41 3277   7.374   0.644   8.312 -0.3008  0.1087  0.1282
    2TTP    C42 3278   7.299   0.734   8.415 -0.1235 -0.4002  0.5572
    3TTP     S1 3279   8.470   1.963   8.054 -0.0514  0.2458  0.3783
    3TTP     S5 3280   8.847   1.955   8.261  0.0796 -0.1707  0.1242
    3TTP     C1 3281   8.791   2.127   8.251  0.1871 -0.1244  0.3005
    3TTP     C2 3282   8.671   2.140   8.187  0.1531  0.0069  0.3889
    3TTP     C3 3283   8.620   2.014   8.143  0.0405  0.0758  0.3214
    3TTP     C4 3284   8.527   1.791   8.065 -0.1590  0.1995  0.2019
    3TTP    C17 3285   8.647   1.778   8.129 -0.1251  0.0681  0.1135
    3TTP    C18 3286   8.698   1.904   8.173 -0.0126 -0.0007  0.1812
    3TTP    C32 3287   8.599   2.265   8.151 -0.5951 -0.2173  0.8633
    3TTP    C33 3288   8.634   2.310   8.008 -1.2406  0.1140 -0.6947
    3TTP    C34 3289   8.571   2.433   7.950 -0.2257  0.7082 -0.0315
    3TTP    C35 3290   8.427   2.412   7.898 -0.8332 -0.8341  0.2758
    3TTP    C36 3291   8.376   2.519   7.809  0.3788 -0.5469 -0.5472
    3TTP    C37 3292   8.233   2.475   7.761  0.2433  0.1982 -0.1871
    3TTP    C38 3293   8.235   2.395   7.630 -0.3721  0.0416  0.2173
    3TTP    C39 3294   8.107   2.414   7.550 -0.0476 -0.5400  0.1373
    3TTP    C40 3295   8.136   2.409   7.397  0.0768 -0.3622  0.4423
    3TTP    C41 3296   8.007   2.397   7.314  0.3446 -0.5071  0.0028
    3TTP    C42 3297   8.022   2.421   7.167 -0.4645 -0.2279 -0.3617
    4BIM     F1 3298   9.318   0.528   7.961 -0.0899  0.2453 -0.1438
    4BIM     F2 3299   9.245   0.285   8.060  0.0348  0.1230 -0.3481
    4BIM     O1 3300   8.872   0.818   8.058 -0.1545 -0.0047  0.3159
    4BIM     N5 3301   8.820   0.143   8.271  0.1686 -0.2309 -0.3142
    4BIM     N6 3302   8.486   0.419   8.327  0.0932 -0.4015  0.0861
    4BIM    C19 3303   8.642   0.689   8.186 -0.0580 -0.2103  0.2839
    4BIM    C20 3304   8.758   0.626   8.158 -0.0467 -0.1426  0.1764
    4BIM    C21 3305   8.871   0.699   8.092 -0.0987 -0.0383  0.2012
    4BIM    C22 3306   8.980   0.601   8.076 -0.0706  0.0153  0.0629
    4BIM    C23 3307   9.106   0.622   8.020 -0.1001  0.1141  0.0327
    4BIM    C24 3308   9.193   0.514   8.016 -0.0639  0.1483 -0.1065
    4BIM    C25 3309   9.154   0.389   8.067  0.0008  0.0852 -0.2116
    4BIM    C26 3310   9.029   0.367   8.123  0.0308 -0.0135 -0.1824
    4BIM    C27 3311   8.940   0.476   8.128 -0.0057 -0.0495 -0.0422
    4BIM    C28 3312   8.802   0.486   8.181  0.0117 -0.1490  0.0234
    4BIM    C29 3313   8.729   0.385   8.239  0.0703 -0.2313 -0.0446
    4BIM    C30 3314   8.779   0.253   8.256  0.1242 -0.2308 -0.1926
    4BIM    C31 3315   8.595   0.404   8.287  0.0827 -0.3245  0.0274
    5BIM     F1 3316   9.282   2.262   8.901 -0.2148  0.1357  0.2041
    5BIM     F2 3317   9.326   2.514   8.808  0.1411 -0.0562 -0.1562
    5BIM     O1 3318   8.941   2.072   8.527 -0.2511 -0.0159  0.3135
    5BIM     N5 3319   9.144   2.741   8.407  0.6278 -0.4400 -0.5956
    5BIM     N6 3320   8.868   2.541   8.133  0.5276 -0.5197 -0.4373
    5BIM    C19 3321   8.860   2.245   8.305  0.0767 -0.2530  0.0086
    5BIM    C20 3322   8.945   2.283   8.402  0.0718 -0.2074 -0.0050
    5BIM    C21 3323   8.981   2.188   8.513 -0.1018 -0.0848  0.1578
    5BIM    C22 3324   9.074   2.261   8.602 -0.0596 -0.0632  0.0961
    5BIM    C23 3325   9.135   2.214   8.718 -0.1776  0.0383  0.1991
    5BIM    C24 3326   9.219   2.302   8.785 -0.1060  0.0381  0.1107
    5BIM    C25 3327   9.241   2.431   8.737  0.0773 -0.0608 -0.0754
    5BIM    C26 3328   9.181   2.479   8.621  0.1957 -0.1623 -0.1786
    5BIM    C27 3329   9.095   2.392   8.552  0.1264 -0.1639 -0.0913
    5BIM    C28 3330   9.017   2.410   8.427  0.2143 -0.2564 -0.1607
    5BIM    C29 3331   9.012   2.524   8.350  0.3932 -0.3664 -0.3362
    5BIM    C30 3332   9.084   2.643   8.382  0.5217 -0.4065 -0.4780
    5BIM    C31 3333   8.933   2.533   8.231  0.4663 -0.4501 -0.3905
    1BTD     S2 3334   6.338   6.678   6.422 -0.0377 -0.0236 -0.1624
    1BTD     N1 3335   6.396   6.843   6.380 -0.0960  0.0175 -0.0800
    1BTD     N2 3336   6.502   6.605   6.424 -0.0156  0.0226 -0.2459
    1BTD     N3 3337   6.942   6.754   6.354 -0.0763  0.1917 -0.2673
    1BTD     N4 3338   6.811   7.048   6.300 -0.1752  0.1855 -0.0627
    1BTD     C5 3339   6.614   6.946   6.339 -0.1361  0.1053 -0.0734
    1BTD     C6 3340   6.528   6.836   6.371 -0.0961  0.0615 -0.1169
    1BTD     C7 3341   6.587   6.702   6.395 -0.0511  0.0643 -0.2100
    1BTD     C8 3342   6.730   6.686   6.387 -0.0485  0.1109 -0.2548
    1BTD    C15 3343   6.811   6.798   6.355 -0.0887  0.1527 -0.2093
    1BTD    C16 3344   6.753   6.926   6.332 -0.1319  0.1500 -0.1199
    1BTD    C43 3345   6.951   7.092   6.336  0.2014 -0.0995  0.2873
    1BTD    C44 3346   7.024   7.193   6.247  0.1547 -0.2471  0.4998
    1BTD    C45 3347   7.140   7.268   6.312 -0.5326  0.0961  0.3987
    1BTD    C46 3348   7.279   7.191   6.336  0.5574 -0.5681 -0.1677
    1BTD    C47 3349   7.024   7.150   6.095 -0.0564  0.1953 -0.3780
    1BTD    C48 3350   7.091   7.249   5.996  0.2345  0.0728 -0.3214
    1BTD    C49 3351   7.026   7.387   5.980 -0.5287 -0.7452 -0.4267
    1BTD    C50 3352   7.115   7.470   5.889 -0.3342  0.6917 -0.0189
    1BTD    C75 3353   7.050   6.798   6.251  0.1147  0.4116 -0.0979
    1BTD    C76 3354   7.197   6.777   6.269 -0.5410  0.5416  0.0528
    1BTD    C77 3355   7.245   6.854   6.392  0.0382 -0.5953 -0.1063
    1BTD    C78 3356   7.393   6.852   6.428 -0.4741 -0.1182  0.0839
    1BTD    C79 3357   7.277   6.811   6.141 -0.4804 -0.1265  0.2066
    1BTD    C80 3358   7.246   6.719   6.023  0.3653  0.0621 -0.1781
    1BTD    C81 3359   7.327   6.733   5.894 -0.5268  0.3012  0.3905
    1BTD    C82 3360   7.482   6.746   5.904 -0.1603  0.0610  0.3933
    2TTP     S1 3361   6.452   7.201   6.279 -0.0067  0.2679  0.0997
    2TTP     S5 3362   6.819   7.424   6.271 -0.1526  0.4820 -0.8026
    2TTP     C1 3363   6.681   7.539   6.244 -0.2857  0.4002 -0.4702
    2TTP     C2 3364   6.559   7.477   6.245 -0.2483  0.3295 -0.1720
    2TTP     C3 3365   6.571   7.336   6.267 -0.1135  0.3370 -0.1951
    2TTP     C4 3366   6.591   7.086   6.305  0.1262  0.3495 -0.2327
    2TTP    C17 3367   6.712   7.148   6.304  0.0889  0.4204 -0.5308
    2TTP    C18 3368   6.700   7.289   6.283 -0.0459  0.4128 -0.5076
    2TTP    C32 3369   6.427   7.540   6.194 -0.3181  0.6690 -0.1301
    2TTP    C33 3370   6.368   7.484   6.059 -0.3654 -0.3421 -0.0518
    2TTP    C34 3371   6.465   7.454   5.944  0.1221  0.0625  0.7466
    2TTP    C35 3372   6.512   7.574   5.853 -0.2332  0.1177 -0.1385
    2TTP    C36 3373   6.641   7.557   5.767 -0.6716  0.3807 -0.1289
    2TTP    C37 3374   6.727   7.687   5.764 -0.4689  0.8306  0.0329
    2TTP    C38 3375   6.725   7.759   5.637 -0.3474 -0.3643  0.1747
    2TTP    C39 3376   6.821   7.875   5.642 -0.1535 -0.1175  0.0870
    2TTP    C40 3377   6.821   7.951   5.513  0.2509 -0.4147 -0.1333
    2TTP    C41 3378   6.863   8.091   5.510  0.1081 -0.2481  0.2431
    2TTP    C42 3379   6.846   8.166   5.381 -0.4432  0.2810 -0.5649
    3TTP     S1 3380   6.808   6.404   6.473 -0.2008  0.0451 -0.0675
    3TTP     S5 3381   7.222   6.508   6.421 -0.2285  0.0374 -0.3051
    3TTP     C1 3382   7.212   6.336   6.479 -0.1974  0.0494 -0.2635
    3TTP     C2 3383   7.084   6.294   6.498 -0.1870  0.0527 -0.1875
    3TTP     C3 3384   6.988   6.396   6.468 -0.2034  0.0455 -0.1596
    3TTP     C4 3385   6.817   6.577   6.416 -0.2319  0.0331 -0.1091
    3TTP    C17 3386   6.946   6.619   6.397 -0.2424  0.0300 -0.1849
    3TTP    C18 3387   7.041   6.517   6.426 -0.2261  0.0371 -0.2129
    3TTP    C32 3388   7.033   6.159   6.549  0.0389  0.3449 -0.3567
    3TTP    C33 3389   6.991   6.053   6.441  0.0886 -0.3209 -0.2632
    3TTP    C34 3390   6.879   5.963   6.500 -0.1039  0.3086 -0.4356
    3TTP    C35 3391   6.843   5.841   6.427 -0.1915  0.3163  0.1294
    3TTP    C36 3392   6.956   5.742   6.404 -0.3973  0.5281 -0.5440
    3TTP    C37 3393   7.033   5.673   6.521 -0.8371  0.0959  0.3215
    3TTP    C38 3394   7.160   5.603   6.472  0.1294 -0.2842  0.1797
    3TTP    C39 3395   7.236   5.524   6.579  0.0737 -0.5445  0.0697
    3TTP    C40 3396   7.367   5.452   6.550 -0.5772  0.2662 -0.0080
    3TTP    C41 3397   7.492   5.544   6.528 -0.0199  0.3756 -0.6206
    3TTP    C42 3398   7.610   5.472   6.469 -0.7230 -0.0811  0.1034
    4BIM     F1 3399   7.303   8.066   6.136  0.2139 -0.1142  0.0287
    4BIM     F2 3400   7.125   8.272   6.155  0.1426 -0.1361 -0.3831
    4BIM     O1 3401   6.973   7.640   6.189  0.2865 -0.1343  0.3233
    4BIM     N5 3402   6.635   8.263   6.220  0.0918 -0.1817 -0.7652
    4BIM     N6 3403   6.413   7.889   6.258  0.1628 -0.1930 -0.4520
    4BIM    C19 3404   6.686   7.685   6.226  0.2442 -0.1623  0.0344
    4BIM    C20 3405   6.776   7.784   6.212  0.2288 -0.1564 -0.0236
    4BIM    C21 3406   6.922   7.753   6.193  0.2522 -0.1421  0.1340
    4BIM    C22 3407   6.991   7.883   6.181  0.2267 -0.1389  0.0193
    4BIM    C23 3408   7.127   7.905   6.163  0.2357 -0.1267  0.0992
    4BIM    C24 3409   7.170   8.037   6.154  0.2070 -0.1261 -0.0398
    4BIM    C25 3410   7.078   8.143   6.164  0.1701 -0.1374 -0.2518
    4BIM    C26 3411   6.942   8.121   6.183  0.1609 -0.1495 -0.3327
    4BIM    C27 3412   6.897   7.988   6.191  0.1899 -0.1502 -0.1944
    4BIM    C28 3413   6.761   7.932   6.211  0.1895 -0.1615 -0.2290
    4BIM    C29 3414   6.644   8.003   6.225  0.1589 -0.1743 -0.4162
    4BIM    C30 3415   6.640   8.146   6.222  0.1221 -0.1781 -0.6074
    4BIM    C31 3416   6.518   7.940   6.243  0.1613 -0.1844 -0.4348
    5BIM     F1 3417   8.000   6.482   6.630 -0.0458 -0.0055 -0.3211
    5BIM     F2 3418   8.050   6.217   6.590 -0.0355 -0.0052 -0.3109
    5BIM     O1 3419   7.462   6.496   6.565 -0.0751 -0.0694 -0.0914
    5BIM     N5 3420   7.738   5.847   6.486 -0.0416 -0.0502 -0.1321
    5BIM     N6 3421   7.308   5.911   6.443 -0.0669 -0.1003  0.0453
    5BIM    C19 3422   7.319   6.248   6.504 -0.0759 -0.0918  0.0002
    5BIM    C20 3423   7.452   6.255   6.521 -0.0688 -0.0757 -0.0581
    5BIM    C21 3424   7.519   6.386   6.553 -0.0690 -0.0651 -0.1025
    5BIM    C22 3425   7.663   6.358   6.566 -0.0604 -0.0483 -0.1612
    5BIM    C23 3426   7.765   6.448   6.594 -0.0575 -0.0342 -0.2161
    5BIM    C24 3427   7.894   6.398   6.602 -0.0490 -0.0199 -0.2657
    5BIM    C25 3428   7.919   6.261   6.581 -0.0436 -0.0198 -0.2601
    5BIM    C26 3429   7.818   6.171   6.553 -0.0466 -0.0339 -0.2056
    5BIM    C27 3430   7.687   6.220   6.545 -0.0551 -0.0485 -0.1550
    5BIM    C28 3431   7.558   6.151   6.517 -0.0601 -0.0653 -0.0914
    5BIM    C29 3432   7.541   6.017   6.491 -0.0573 -0.0702 -0.0677
    5BIM    C30 3433   7.650   5.924   6.488 -0.0488 -0.0592 -0.1032
    5BIM    C31 3434   7.413   5.959   6.465 -0.0625 -0.0868 -0.0056
    1BTD     S2 3435   8.225   8.918   9.341 -0.1257 -0.0016  0.3369
    1BTD     N1 3436   8.281   9.075   9.273 -0.0184 -0.1452  0.0904
    1BTD     N2 3437   8.058   8.932   9.274 -0.1464  0.0536  0.3991
    1BTD     N3 3438   7.820   9.242   9.015  0.0063 -0.0937  0.0801
    1BTD     N4 3439   8.094   9.419   9.014  0.1645 -0.3390 -0.2997
    1BTD     C5 3440   8.180   9.252   9.138  0.0753 -0.2434 -0.1087
    1BTD     C6 3441   8.178   9.127   9.207 -0.0036 -0.1450  0.0684
    1BTD     C7 3442   8.053   9.046   9.208 -0.0756 -0.0336  0.2408
    1BTD     C8 3443   7.937   9.096   9.139 -0.0648 -0.0265  0.2282
    1BTD    C15 3444   7.944   9.220   9.072  0.0138 -0.1252  0.0515
    1BTD    C16 3445   8.064   9.297   9.071  0.0828 -0.2325 -0.1145
    1BTD    C43 3446   8.000   9.536   8.993 -0.1029  0.4483  0.1449
    1BTD    C44 3447   8.023   9.637   8.876  0.6047  0.0459  0.8291
    1BTD    C45 3448   8.020   9.561   8.744  0.3666  0.0560 -0.0962
    1BTD    C46 3449   8.063   9.657   8.632 -0.2759 -0.9178 -0.2512
    1BTD    C47 3450   7.931   9.765   8.887  0.2768  0.1399  0.4278
    1BTD    C48 3451   7.950   9.857   9.008  0.2650  0.5723  0.1046
    1BTD    C49 3452   8.077   9.879   9.080 -0.1501  0.4142  0.9959
    1BTD    C50 3453   8.177   9.967   9.002  0.2880  0.8231  0.8547
    1BTD    C75 3454   7.798   9.304   8.886  0.7360  0.2842  0.1566
    1BTD    C76 3455   7.669   9.369   8.828  0.0459 -0.2477  0.1154
    1BTD    C77 3456   7.691   9.433   8.688 -0.1197  0.4663  0.1801
    1BTD    C78 3457   7.730   9.347   8.567  0.1257 -0.2396  0.1322
    1BTD    C79 3458   7.608   9.474   8.933 -0.2418 -0.3543  0.4401
    1BTD    C80 3459   7.469   9.540   8.903 -0.6528 -0.2317 -0.2616
    1BTD    C81 3460   7.494   9.678   8.861 -0.0324 -0.1169 -0.1977
    1BTD    C82 3461   7.363   9.747   8.830 -0.1672 -0.6786 -0.3392
    2TTP     S1 3462   8.458   9.359   9.152  0.0526 -0.0798  0.0082
    2TTP     S5 3463   8.349   9.674   8.880 -0.1347 -0.2320 -0.0935
    2TTP     C1 3464   8.528   9.684   8.912 -0.1874  0.0563  0.1211
    2TTP     C2 3465   8.572   9.587   8.997 -0.1326  0.1204  0.1652
    2TTP     C3 3466   8.466   9.502   9.041 -0.0472 -0.0563  0.0310
    2TTP     C4 3467   8.279   9.349   9.120  0.1056 -0.3681 -0.2065
    2TTP    C17 3468   8.235   9.446   9.034  0.0505 -0.4320 -0.2501
    2TTP    C18 3469   8.341   9.531   8.991 -0.0350 -0.2561 -0.1161
    2TTP    C32 3470   8.720   9.558   9.046  0.2106  0.0441 -0.2774
    2TTP    C33 3471   8.739   9.544   9.199  0.3911 -0.3114 -0.4384
    2TTP    C34 3472   8.882   9.525   9.245 -0.4239 -0.4575 -0.1350
    2TTP    C35 3473   8.885   9.472   9.392  0.4815  0.2536  0.8149
    2TTP    C36 3474   9.026   9.467   9.445  0.1584  0.4272  0.0685
    2TTP    C37 3475   9.094   9.604   9.460 -0.2173  0.9136 -0.2807
    2TTP    C38 3476   9.246   9.611   9.469 -0.0336 -0.1224 -0.3715
    2TTP    C39 3477   9.298   9.756   9.468  0.3502 -0.3161  0.1955
    2TTP    C40 3478   9.447   9.764   9.433  0.3161 -0.5367  0.4011
    2TTP    C41 3479   9.509   9.903   9.430  0.3452 -0.5576  0.4739
    2TTP    C42 3480   9.518   9.988   9.556 -0.0068 -0.1703 -0.7813
    3TTP     S1 3481   7.711   8.896   9.164  0.2540  0.0104 -0.0332
    3TTP     S5 3482   7.449   9.158   8.945 -0.3115 -0.1659  0.4251
    3TTP     C1 3483   7.356   9.009   8.991 -0.1047 -0.2689  0.5116
    3TTP     C2 3484   7.432   8.919   9.061  0.0823 -0.2203  0.3750
    3TTP     C3 3485   7.565   8.965   9.082  0.0688 -0.1004  0.1974
    3TTP     C4 3486   7.803   9.046   9.119  0.0473  0.1135 -0.1197
    3TTP    C17 3487   7.728   9.136   9.049 -0.1396  0.0646  0.0169
    3TTP    C18 3488   7.594   9.090   9.028 -0.1261 -0.0551  0.1945
    3TTP    C32 3489   7.393   8.783   9.121  0.0626 -0.1105 -0.2920
    3TTP    C33 3490   7.443   8.661   9.044 -0.3564 -0.2018  0.4398
    3TTP    C34 3491   7.399   8.524   9.102  0.5019 -0.1196  0.2066
    3TTP    C35 3492   7.471   8.474   9.230 -0.5413 -0.2540 -0.0652
    3TTP    C36 3493   7.431   8.328   9.261 -0.1303 -1.1390  0.0360
    3TTP    C37 3494   7.505   8.263   9.371 -0.1255  0.5768  0.1619
    3TTP    C38 3495   7.658   8.254   9.358 -0.1342  0.5103 -0.6282
    3TTP    C39 3496   7.741   8.167   9.466 -0.2772 -0.0384  0.6658
    3TTP    C40 3497   7.889   8.144   9.454 -0.1821  0.1860 -0.2603
    3TTP    C41 3498   7.934   8.111   9.320  0.3016  0.1607 -0.1075
    3TTP    C42 3499   8.086   8.088   9.328  0.1311 -0.3284  0.1656
    4BIM     F1 3500   8.475  10.397   8.497 -0.0691 -0.1812 -0.0422
    4BIM     F2 3501   8.747  10.402   8.487 -0.0701 -0.0121  0.0141
    4BIM     O1 3502   8.392   9.938   8.772  0.1638 -0.1392  0.0992
    4BIM     N5 3503   9.079  10.082   8.668  0.0949  0.2610  0.1957
    4BIM     N6 3504   8.959   9.722   8.885  0.2773  0.2597  0.2949
    4BIM    C19 3505   8.622   9.780   8.860  0.2458  0.0373  0.2031
    4BIM    C20 3506   8.632   9.895   8.791  0.1874  0.0201  0.1657
    4BIM    C21 3507   8.509   9.971   8.750  0.1478 -0.0724  0.1130
    4BIM    C22 3508   8.556  10.090   8.677  0.0873 -0.0676  0.0815
    4BIM    C23 3509   8.479  10.190   8.620  0.0355 -0.1367  0.0300
    4BIM    C24 3510   8.546  10.294   8.556 -0.0168 -0.1161  0.0084
    4BIM    C25 3511   8.686  10.296   8.551 -0.0169 -0.0289  0.0374
    4BIM    C26 3512   8.764  10.197   8.608  0.0346  0.0403  0.0889
    4BIM    C27 3513   8.698  10.091   8.673  0.0880  0.0208  0.1113
    4BIM    C28 3514   8.750   9.971   8.743  0.1493  0.0781  0.1640
    4BIM    C29 3515   8.882   9.937   8.759  0.1674  0.1679  0.2041
    4BIM    C30 3516   8.990  10.017   8.709  0.1276  0.2187  0.1993
    4BIM    C31 3517   8.924   9.819   8.828  0.2279  0.2178  0.2537
    5BIM     F1 3518   6.719   9.441   8.696  0.0275 -0.1333  0.2463
    5BIM     F2 3519   6.579   9.209   8.676  0.1881 -0.1969 -0.1688
    5BIM     O1 3520   7.187   9.261   8.901 -0.0257 -0.1066  0.3912
    5BIM     N5 3521   6.710   8.746   8.794  0.3810 -0.2689 -0.6621
    5BIM     N6 3522   7.104   8.652   8.958  0.3070 -0.2351 -0.4654
    5BIM    C19 3523   7.219   8.975   8.955  0.1088 -0.1575  0.0465
    5BIM    C20 3524   7.106   9.029   8.904  0.1160 -0.1619  0.0260
    5BIM    C21 3525   7.098   9.177   8.879  0.0440 -0.1345  0.2108
    5BIM    C22 3526   6.963   9.202   8.824  0.0727 -0.1473  0.1347
    5BIM    C23 3527   6.909   9.324   8.785  0.0277 -0.1311  0.2489
    5BIM    C24 3528   6.779   9.324   8.736  0.0682 -0.1482  0.1426
    5BIM    C25 3529   6.707   9.204   8.726  0.1510 -0.1812 -0.0711
    5BIM    C26 3530   6.761   9.082   8.764  0.1961 -0.1974 -0.1860
    5BIM    C27 3531   6.892   9.080   8.814  0.1563 -0.1805 -0.0813
    5BIM    C28 3532   6.977   8.969   8.863  0.1862 -0.1907 -0.1566
    5BIM    C29 3533   6.942   8.836   8.869  0.2639 -0.2208 -0.3572
    5BIM    C30 3534   6.815   8.787   8.828  0.3279 -0.2475 -0.5243
    5BIM    C31 3535   7.031   8.736   8.918  0.2874 -0.2284 -0.4156
    1BTD     S2 3536   1.892   4.695   5.955 -0.3636 -0.2006 -0.2804
    1BTD     N1 3537   1.771   4.819   5.907 -0.2456 -0.2732 -0.7727
    1BTD     N2 3538   2.033   4.807   5.946 -0.3892 -0.1189  0.2803
    1BTD     N3 3539   2.101   5.260   5.841 -0.2284 -0.0836  0.5339
    1BTD     N4 3540   1.779   5.275   5.793 -0.0516 -0.2739 -0.7637
    1BTD     C5 3541   1.779   5.057   5.848 -0.1464 -0.2713 -0.7523
    1BTD     C6 3542   1.838   4.932   5.888 -0.2321 -0.2350 -0.5075
    1BTD     C7 3543   1.985   4.925   5.910 -0.3124 -0.1484  0.0820
    1BTD     C8 3544   2.064   5.044   5.891 -0.3030 -0.1028  0.3970
    1BTD    C15 3545   2.002   5.164   5.852 -0.2179 -0.1408  0.1401
    1BTD    C16 3546   1.861   5.170   5.830 -0.1405 -0.2243 -0.4280
    1BTD    C43 3547   1.797   5.413   5.847 -0.0795  0.7152 -0.1363
    1BTD    C44 3548   1.750   5.542   5.773 -0.1200  0.6173 -0.3218
    1BTD    C45 3549   1.748   5.667   5.857  0.4191 -0.1198  0.5230
    1BTD    C46 3550   1.675   5.651   5.994  0.0463  0.2532  0.0219
    1BTD    C47 3551   1.813   5.553   5.634 -0.2580  0.1217  0.7405
    1BTD    C48 3552   1.759   5.667   5.536 -1.0348  0.5716 -0.3662
    1BTD    C49 3553   1.612   5.661   5.504  1.1664  0.2703  0.1877
    1BTD    C50 3554   1.562   5.782   5.426  0.1134  0.0063 -0.2994
    1BTD    C75 3555   2.101   5.361   5.733  0.0230  0.3989  0.3396
    1BTD    C76 3556   2.185   5.490   5.732 -0.2301  0.2968 -0.3809
    1BTD    C77 3557   2.198   5.551   5.588  0.0474 -0.4819  0.4073
    1BTD    C78 3558   2.274   5.471   5.477  0.2391  0.4644  0.2897
    1BTD    C79 3559   2.139   5.579   5.844 -0.7575  0.1125  0.5709
    1BTD    C80 3560   2.198   5.719   5.875  0.0937  0.5761  0.6587
    1BTD    C81 3561   2.344   5.718   5.913 -0.3463 -0.5096  0.9486
    1BTD    C82 3562   2.382   5.862   5.871  0.7315 -0.3920 -0.3237
    2TTP     S1 3563   1.483   5.022   5.826  0.0968  0.0371 -0.0498
    2TTP     S5 3564   1.437   5.440   5.737  0.1351  0.0036 -0.2290
    2TTP     C1 3565   1.272   5.363   5.739  0.1303  0.0139 -0.2232
    2TTP     C2 3566   1.277   5.229   5.767  0.1181  0.0252 -0.1675
    2TTP     C3 3567   1.411   5.183   5.787  0.1122  0.0255 -0.1273
    2TTP     C4 3568   1.648   5.099   5.824  0.1016  0.0267 -0.0556
    2TTP    C17 3569   1.643   5.233   5.796  0.1137  0.0157 -0.1112
    2TTP    C18 3570   1.509   5.279   5.776  0.1197  0.0151 -0.1513
    2TTP    C32 3571   1.163   5.130   5.802  0.2546 -0.0768 -0.2261
    2TTP    C33 3572   1.121   5.045   5.685 -0.1849  0.4728  0.4213
    2TTP    C34 3573   0.988   4.982   5.714  0.7178 -0.6453 -0.2403
    2TTP    C35 3574   0.927   4.892   5.607  0.8381 -0.2294  0.6628
    2TTP    C36 3575   0.863   4.969   5.488 -0.0818 -0.8058 -0.4494
    2TTP    C37 3576   0.773   4.877   5.406 -0.5513 -0.1311 -0.1617
    2TTP    C38 3577   0.724   4.956   5.285 -0.1027 -0.0436 -0.3807
    2TTP    C39 3578   0.636   4.878   5.191  0.4755  0.1502  0.0470
    2TTP    C40 3579   0.672   4.735   5.139  0.1838  0.2064  0.6199
    2TTP    C41 3580   0.574   4.690   5.027 -0.4377 -0.1755 -0.0994
    2TTP    C42 3581   0.588   4.542   4.988 -0.5584  0.3114  0.1954
    3TTP     S1 3582   2.356   4.980   5.939 -0.0127  0.0449  0.1081
    3TTP     S5 3583   2.455   5.390   5.858 -0.0625  0.0874  0.2607
    3TTP     C1 3584   2.607   5.302   5.906 -0.0544  0.0915  0.2431
    3TTP     C2 3585   2.585   5.170   5.934 -0.0386  0.0787  0.1950
    3TTP     C3 3586   2.448   5.134   5.918 -0.0321  0.0652  0.1701
    3TTP     C4 3587   2.204   5.068   5.891 -0.0207  0.0408  0.1258
    3TTP    C17 3588   2.226   5.200   5.863 -0.0365  0.0537  0.1739
    3TTP    C18 3589   2.363   5.236   5.879 -0.0429  0.0672  0.1986
    3TTP    C32 3590   2.690   5.070   5.987  0.0507  0.0340  0.7624
    3TTP    C33 3591   2.689   4.924   5.932  0.1552 -0.2328 -0.2879
    3TTP    C34 3592   2.807   4.845   5.997 -0.6975 -0.0645  0.3552
    3TTP    C35 3593   2.797   4.694   5.997  0.1526  0.6203  0.6419
    3TTP    C36 3594   2.923   4.607   6.021  0.0631  0.2650 -0.3676
    3TTP    C37 3595   2.892   4.459   6.001 -0.2764 -0.0152  0.7085
    3TTP    C38 3596   2.770   4.396   6.067  0.1686 -0.0962  0.5408
    3TTP    C39 3597   2.725   4.275   5.992  0.5984  0.1949 -0.0304
    3TTP    C40 3598   2.578   4.243   6.007  0.1588  0.2700 -0.2166
    3TTP    C41 3599   2.531   4.130   5.910 -0.1376 -0.2699 -0.7217
    3TTP    C42 3600   2.377   4.114   5.897  0.0765 -1.1614 -0.3528
    4BIM     F1 3601   1.020   6.027   5.320 -0.1499  0.0690 -0.1047
    4BIM     F2 3602   0.766   5.979   5.406 -0.1709 -0.1445 -0.2831
    4BIM     O1 3603   1.285   5.617   5.554  0.0323  0.2955  0.0862
    4BIM     N5 3604   0.590   5.619   5.696 -0.0712 -0.2905 -0.4038
    4BIM     N6 3605   0.849   5.308   5.862  0.0753 -0.0706 -0.2187
    4BIM    C19 3606   1.137   5.426   5.719  0.0770  0.1718 -0.0166
    4BIM    C20 3607   1.080   5.531   5.657  0.0319  0.1233 -0.0575
    4BIM    C21 3608   1.163   5.625   5.574  0.0114  0.1924  0.0000
    4BIM    C22 3609   1.071   5.727   5.521 -0.0378  0.1138 -0.0662
    4BIM    C23 3610   1.101   5.835   5.439 -0.0709  0.1390 -0.0455
    4BIM    C24 3611   0.997   5.918   5.402 -0.1154  0.0502 -0.1199
    4BIM    C25 3612   0.866   5.893   5.446 -0.1262 -0.0597 -0.2119
    4BIM    C26 3613   0.835   5.786   5.528 -0.0933 -0.0855 -0.2328
    4BIM    C27 3614   0.939   5.700   5.567 -0.0480  0.0032 -0.1584
    4BIM    C28 3615   0.940   5.579   5.652 -0.0056  0.0046 -0.1569
    4BIM    C29 3616   0.831   5.522   5.715 -0.0019 -0.0867 -0.2329
    4BIM    C30 3617   0.699   5.576   5.704 -0.0401 -0.1985 -0.3265
    4BIM    C31 3618   0.842   5.405   5.795  0.0406 -0.0771 -0.2247
    5BIM     F1 3619   2.972   5.978   5.626 -0.0091 -0.0731  0.0647
    5BIM     F2 3620   3.187   5.919   5.782 -0.0486 -0.0422  0.1315
    5BIM     O1 3621   2.646   5.561   5.739 -0.1100  0.0422  0.2002
    5BIM     N5 3622   3.264   5.536   6.086 -0.1771  0.0843  0.3238
    5BIM     N6 3623   2.965   5.222   6.143 -0.2480  0.1682  0.4163
    5BIM    C19 3624   2.735   5.356   5.928 -0.1835  0.1127  0.3121
    5BIM    C20 3625   2.809   5.463   5.893 -0.1566  0.0824  0.2754
    5BIM    C21 3626   2.756   5.564   5.796 -0.1194  0.0473  0.2185
    5BIM    C22 3627   2.861   5.667   5.781 -0.0969  0.0201  0.1895
    5BIM    C23 3628   2.857   5.781   5.701 -0.0606 -0.0166  0.1358
    5BIM    C24 3629   2.968   5.864   5.703 -0.0449 -0.0368  0.1174
    5BIM    C25 3630   3.079   5.833   5.783 -0.0653 -0.0207  0.1519
    5BIM    C26 3631   3.083   5.720   5.864 -0.1016  0.0157  0.2055
    5BIM    C27 3632   2.971   5.634   5.862 -0.1180  0.0366  0.2248
    5BIM    C28 3633   2.944   5.508   5.935 -0.1554  0.0757  0.2789
    5BIM    C29 3634   3.028   5.445   6.023 -0.1835  0.1006  0.3237
    5BIM    C30 3635   3.157   5.495   6.058 -0.1799  0.0916  0.3235
    5BIM    C31 3636   2.993   5.323   6.089 -0.2189  0.1377  0.3742
    1BTD     S2 3637   6.922   3.765   9.028  0.1133 -0.1982  0.0574
    1BTD     N1 3638   6.836   3.844   8.891  0.0204 -0.1444  0.1469
    1BTD     N2 3639   7.037   3.901   9.052  0.1725 -0.2365 -0.0110
    1BTD     N3 3640   7.118   4.319   8.855  0.1252 -0.2170  0.0107
    1BTD     N4 3641   6.869   4.250   8.656 -0.0623 -0.1036  0.2055
    1BTD     C5 3642   6.856   4.057   8.771 -0.0206 -0.1246  0.1752
    1BTD     C6 3643   6.895   3.961   8.871  0.0373 -0.1570  0.1225
    1BTD     C7 3644   7.007   3.993   8.962  0.1227 -0.2085  0.0341
    1BTD     C8 3645   7.076   4.118   8.947  0.1457 -0.2248  0.0029
    1BTD    C15 3646   7.035   4.209   8.847  0.0868 -0.1917  0.0566
    1BTD    C16 3647   6.927   4.178   8.760  0.0047 -0.1420  0.1419
    1BTD    C43 3648   6.939   4.337   8.561 -0.2007 -0.2574 -0.2971
    1BTD    C44 3649   6.883   4.437   8.459 -0.3921 -0.2818  0.0133
    1BTD    C45 3650   6.977   4.463   8.338 -0.2249 -0.3423 -0.4500
    1BTD    C46 3651   7.115   4.529   8.363 -0.2546 -0.2186  0.5658
    1BTD    C47 3652   6.838   4.568   8.525  0.4338  0.3419 -0.0293
    1BTD    C48 3653   6.790   4.683   8.439  0.6538 -0.4008  0.4554
    1BTD    C49 3654   6.728   4.790   8.528  0.3557 -0.1734 -0.2582
    1BTD    C50 3655   6.679   4.902   8.443 -0.3905 -0.0436  0.1644
    1BTD    C75 3656   7.069   4.456   8.822  0.5214 -0.3522  0.0168
    1BTD    C76 3657   7.142   4.593   8.816 -0.1665 -0.2086  0.1278
    1BTD    C77 3658   7.051   4.717   8.803  0.5750 -0.0432 -0.0190
    1BTD    C78 3659   6.933   4.740   8.905 -0.3589  0.5920  0.3381
    1BTD    C79 3660   7.247   4.587   8.700  0.0552  0.6623  0.0822
    1BTD    C80 3661   7.347   4.694   8.692  0.5230 -0.7794  0.0976
    1BTD    C81 3662   7.436   4.683   8.571 -0.0468 -0.0290  0.6480
    1BTD    C82 3663   7.538   4.803   8.566  0.1361  0.1282 -0.4271
    2TTP     S1 3664   6.591   3.981   8.665  0.2006 -0.1481  0.1316
    2TTP     S5 3665   6.557   4.365   8.474  0.1730 -0.3399 -0.2515
    2TTP     C1 3666   6.395   4.282   8.468  0.1676 -0.3395 -0.1289
    2TTP     C2 3667   6.396   4.159   8.526  0.1756 -0.2803 -0.0033
    2TTP     C3 3668   6.524   4.125   8.578  0.1866 -0.2331  0.0005
    2TTP     C4 3669   6.753   4.064   8.672  0.2060 -0.1485  0.0088
    2TTP    C17 3670   6.752   4.187   8.613  0.1979 -0.2078 -0.1164
    2TTP    C18 3671   6.623   4.221   8.561  0.1869 -0.2550 -0.1204
    2TTP    C32 3672   6.272   4.067   8.530 -0.3582  0.3000 -0.4553
    2TTP    C33 3673   6.287   3.932   8.464  0.0023  0.3092  0.6336
    2TTP    C34 3674   6.170   3.876   8.399 -0.2407 -0.3219  0.8530
    2TTP    C35 3675   6.050   3.840   8.485 -0.5093  0.0104 -0.3074
    2TTP    C36 3676   5.926   3.786   8.413  0.8514 -1.0084  0.3622
    2TTP    C37 3677   5.839   3.681   8.485  0.3720  0.2489 -0.5411
    2TTP    C38 3678   5.802   3.717   8.626 -0.4900  0.7895  0.1843
    2TTP    C39 3679   5.689   3.619   8.679 -1.3557 -0.8424  0.5276
    2TTP    C40 3680   5.623   3.675   8.799 -0.2121 -0.0069  0.1458
    2TTP    C41 3681   5.495   3.599   8.838  0.0442 -0.1512 -0.5249
    2TTP    C42 3682   5.433   3.656   8.965  0.0282  0.2617 -0.5026
    3TTP     S1 3683   7.300   4.126   9.140 -0.0931  0.3257  0.0606
    3TTP     S5 3684   7.433   4.505   8.987 -0.2618  0.4493  0.2179
    3TTP     C1 3685   7.549   4.451   9.116 -0.1034  0.3313  0.0292
    3TTP     C2 3686   7.514   4.331   9.171 -0.0422  0.2863 -0.0305
    3TTP     C3 3687   7.395   4.277   9.113 -0.1178  0.3432  0.0708
    3TTP     C4 3688   7.184   4.180   9.010 -0.2515  0.4437  0.2491
    3TTP    C17 3689   7.219   4.300   8.955 -0.3127  0.4887  0.3090
    3TTP    C18 3690   7.337   4.354   9.014 -0.2370  0.4317  0.2079
    3TTP    C32 3691   7.595   4.264   9.286  0.0882 -0.6788  0.2956
    3TTP    C33 3692   7.552   4.143   9.356  0.0850  0.2822 -0.1709
    3TTP    C34 3693   7.647   4.097   9.467 -0.1914  0.6114 -0.1675
    3TTP    C35 3694   7.622   3.959   9.535  0.0461 -0.6690 -0.1762
    3TTP    C36 3695   7.633   3.829   9.458  0.0709 -0.1053  0.3368
    3TTP    C37 3696   7.568   3.707   9.526 -0.4372  0.1156  0.1362
    3TTP    C38 3697   7.601   3.572   9.471 -0.5065  0.0899 -0.3242
    3TTP    C39 3698   7.532   3.463   9.548 -0.3814  0.3157 -0.2103
    3TTP    C40 3699   7.575   3.317   9.534 -1.0171  0.1036  0.0699
    3TTP    C41 3700   7.594   3.272   9.395  0.2397  0.8059  0.3229
    3TTP    C42 3701   7.639   3.125   9.390  0.0012  0.5264 -0.2201
    4BIM     F1 3702   6.186   5.067   8.372 -0.0973  0.0159  0.2663
    4BIM     F2 3703   5.971   4.986   8.226  0.0640 -0.0018  0.0365
    4BIM     O1 3704   6.402   4.591   8.510 -0.1274  0.0347  0.3777
    4BIM     N5 3705   5.815   4.529   8.116  0.2744 -0.0137 -0.2139
    4BIM     N6 3706   6.027   4.173   8.254  0.2184  0.0046 -0.0808
    4BIM    C19 3707   6.273   4.344   8.421  0.0160  0.0246  0.1979
    4BIM    C20 3708   6.227   4.467   8.392  0.0173  0.0205  0.1788
    4BIM    C21 3709   6.299   4.589   8.441 -0.0590  0.0262  0.2756
    4BIM    C22 3710   6.223   4.705   8.392 -0.0361  0.0197  0.2253
    4BIM    C23 3711   6.251   4.840   8.412 -0.0863  0.0216  0.2816
    4BIM    C24 3712   6.164   4.932   8.355 -0.0510  0.0143  0.2159
    4BIM    C25 3713   6.053   4.890   8.280  0.0319  0.0052  0.0978
    4BIM    C26 3714   6.025   4.756   8.260  0.0826  0.0032  0.0410
    4BIM    C27 3715   6.111   4.661   8.316  0.0478  0.0106  0.1061
    4BIM    C28 3716   6.110   4.513   8.313  0.0840  0.0107  0.0727
    4BIM    C29 3717   6.017   4.433   8.250  0.1640  0.0032 -0.0358
    4BIM    C30 3718   5.906   4.486   8.177  0.2245 -0.0061 -0.1335
    4BIM    C31 3719   6.023   4.291   8.253  0.1935  0.0041 -0.0596
    5BIM     F1 3720   7.851   5.204   8.968 -0.0602 -0.1419 -0.1929
    5BIM     F2 3721   8.014   5.175   9.184 -0.0966 -0.0343 -0.1507
    5BIM     O1 3722   7.594   4.727   8.969 -0.0367 -0.1544 -0.0179
    5BIM     N5 3723   8.065   4.794   9.496 -0.1314  0.1115  0.0341
    5BIM     N6 3724   7.832   4.427   9.453 -0.1057  0.0799  0.1624
    5BIM    C19 3725   7.659   4.530   9.176 -0.0627 -0.0562  0.0846
    5BIM    C20 3726   7.717   4.651   9.167 -0.0672 -0.0571  0.0386
    5BIM    C21 3727   7.679   4.747   9.058 -0.0532 -0.1092 -0.0122
    5BIM    C22 3728   7.760   4.868   9.078 -0.0626 -0.0961 -0.0536
    5BIM    C23 3729   7.760   4.984   9.001 -0.0551 -0.1312 -0.1075
    5BIM    C24 3730   7.846   5.086   9.040 -0.0668 -0.1093 -0.1394
    5BIM    C25 3731   7.930   5.071   9.151 -0.0853 -0.0539 -0.1174
    5BIM    C26 3732   7.931   4.955   9.228 -0.0930 -0.0187 -0.0639
    5BIM    C27 3733   7.844   4.851   9.191 -0.0812 -0.0399 -0.0315
    5BIM    C28 3734   7.821   4.717   9.250 -0.0849 -0.0139  0.0267
    5BIM    C29 3735   7.884   4.665   9.360 -0.1016  0.0401  0.0618
    5BIM    C30 3736   7.984   4.736   9.434 -0.1180  0.0792  0.0463
    5BIM    C31 3737   7.855   4.534   9.410 -0.1037  0.0618  0.1168
    1BTD     S2 3738   6.626   0.498   0.757  0.1131  0.1262  0.1699
    1BTD     N1 3739   6.640   0.672   0.802  0.1547  0.1549  0.0473
    1BTD     N2 3740   6.776   0.449   0.844  0.0941  0.1488  0.2156
    1BTD     N3 3741   7.106   0.662   1.101  0.1310  0.2466  0.0876
    1BTD     N4 3742   6.938   0.936   1.050  0.2059  0.2541 -0.1198
    1BTD     C5 3743   6.798   0.807   0.932  0.1806  0.2066 -0.0375
    1BTD     C6 3744   6.750   0.684   0.876  0.1527  0.1786  0.0468
    1BTD     C7 3745   6.826   0.559   0.899  0.1187  0.1752  0.1411
    1BTD     C8 3746   6.946   0.563   0.977  0.1142  0.1999  0.1463
    1BTD    C15 3747   6.989   0.686   1.031  0.1423  0.2269  0.0619
    1BTD    C16 3748   6.916   0.806   1.009  0.1751  0.2302 -0.0289
    1BTD    C43 3749   7.025   0.977   1.160 -0.9947 -1.0652 -0.6107
    1BTD    C44 3750   7.009   1.103   1.246  0.6324 -0.3494  0.3882
    1BTD    C45 3751   6.875   1.095   1.324  0.4532 -0.3210  0.2608
    1BTD    C46 3752   6.819   1.227   1.347  0.2648 -0.4450 -0.3962
    1BTD    C47 3753   7.132   1.153   1.315 -0.0446  0.1400 -0.0878
    1BTD    C48 3754   7.198   1.061   1.425  0.3093 -0.2072 -0.1118
    1BTD    C49 3755   7.331   1.109   1.488 -0.6491  0.0913  0.2431
    1BTD    C50 3756   7.457   1.133   1.404 -0.3558  0.0604  0.0159
    1BTD    C75 3757   7.235   0.736   1.089 -0.1285 -0.5400 -0.4619
    1BTD    C76 3758   7.367   0.721   1.167  0.2431 -1.1168 -0.6809
    1BTD    C77 3759   7.490   0.805   1.108  0.4486 -0.3160  0.2004
    1BTD    C78 3760   7.518   0.782   0.965  0.4137 -0.3781  0.3067
    1BTD    C79 3761   7.355   0.758   1.322 -0.0065  0.6901  0.1208
    1BTD    C80 3762   7.478   0.728   1.412 -0.3843 -0.6499  0.0027
    1BTD    C81 3763   7.441   0.749   1.555 -0.0134 -0.1415 -0.9171
    1BTD    C82 3764   7.568   0.743   1.641  0.2009 -0.0592 -0.3418
    2TTP     S1 3765   6.632   1.033   0.821  0.0621 -0.0502  0.0355
    2TTP     S5 3766   6.914   1.312   0.988 -0.3625  0.0477  0.5928
    2TTP     C1 3767   6.797   1.403   0.882 -0.0928 -0.0145  0.2396
    2TTP     C2 3768   6.704   1.322   0.824  0.0540 -0.0485  0.0467
    2TTP     C3 3769   6.720   1.185   0.862 -0.0408 -0.0265  0.1709
    2TTP     C4 3770   6.749   0.941   0.927 -0.2077  0.0120  0.3886
    2TTP    C17 3771   6.842   1.022   0.985 -0.3546  0.0459  0.5815
    2TTP    C18 3772   6.826   1.159   0.948 -0.2594  0.0240  0.4574
    2TTP    C32 3773   6.584   1.358   0.733 -0.7018 -0.8534  0.1839
    2TTP    C33 3774   6.446   1.345   0.790  0.9658 -0.6470  0.1704
    2TTP    C34 3775   6.330   1.435   0.736 -0.3050 -0.5352  0.0736
    2TTP    C35 3776   6.340   1.587   0.741 -0.1264 -0.5242  0.6857
    2TTP    C36 3777   6.347   1.653   0.874 -0.0186  0.4499 -0.9019
    2TTP    C37 3778   6.333   1.803   0.864  0.5564 -0.1469  0.2222
    2TTP    C38 3779   6.297   1.881   0.992 -0.4072  0.1829  0.3085
    2TTP    C39 3780   6.234   2.019   0.966  0.8327 -0.1774  0.2318
    2TTP    C40 3781   6.196   2.105   1.086  0.1255  0.0264 -0.9775
    2TTP    C41 3782   6.120   2.232   1.063 -0.7809 -0.6596 -0.1584
    2TTP    C42 3783   6.196   2.340   0.981  0.5559  0.0469  0.5351
    3TTP     S1 3784   7.020   0.284   1.031 -0.0461 -0.0608 -0.1397
    3TTP     S5 3785   7.304   0.418   1.325 -0.0836  0.2637 -0.2507
    3TTP     C1 3786   7.292   0.237   1.334 -0.0575  0.2703 -0.0772
    3TTP     C2 3787   7.204   0.185   1.244 -0.0445  0.1705 -0.0327
    3TTP     C3 3788   7.143   0.286   1.164 -0.0544  0.0852 -0.1341
    3TTP     C4 3789   7.032   0.465   1.022 -0.0721 -0.0674 -0.3133
    3TTP    C17 3790   7.120   0.518   1.112 -0.0852  0.0324 -0.3578
    3TTP    C18 3791   7.182   0.416   1.192 -0.0752  0.1177 -0.2564
    3TTP    C32 3792   7.186   0.035   1.213  0.5281  0.0634  0.3184
    3TTP    C33 3793   7.044  -0.015   1.239  0.3450  0.4437  0.1072
    3TTP    C34 3794   7.021  -0.163   1.196 -0.0672 -0.6160  0.2872
    3TTP    C35 3795   7.004  -0.190   1.046 -0.6586  0.1360 -0.0575
    3TTP    C36 3796   7.010  -0.343   1.018 -0.0079 -0.0885  0.1311
    3TTP    C37 3797   6.881  -0.395   0.944 -0.3313 -0.2160  0.0628
    3TTP    C38 3798   6.890  -0.542   0.928  0.2620 -0.1811 -0.0101
    3TTP    C39 3799   6.749  -0.578   0.883  0.4483  0.4210 -0.1377
    3TTP    C40 3800   6.680  -0.531   0.754  0.0244  0.2206  0.4755
    3TTP    C41 3801   6.762  -0.563   0.624  0.2922 -0.5065  0.6165
    3TTP    C42 3802   6.695  -0.523   0.494  0.0934 -0.4951  0.1580
    4BIM     F1 3803   7.282   2.029   1.101 -0.2413 -0.0249  0.2286
    4BIM     F2 3804   7.164   2.181   0.908  0.0941 -0.1066 -0.0432
    4BIM     O1 3805   7.014   1.563   1.045 -0.4628  0.0970  0.2723
    4BIM     N5 3806   6.803   2.065   0.591  0.4185 -0.1371 -0.4029
    4BIM     N6 3807   6.617   1.670   0.585  0.1777 -0.0254 -0.3140
    4BIM    C19 3808   6.806   1.541   0.840 -0.2209  0.0622  0.0281
    4BIM    C20 3809   6.878   1.653   0.862 -0.1783  0.0347  0.0277
    4BIM    C21 3810   6.983   1.656   0.969 -0.3099  0.0552  0.1575
    4BIM    C22 3811   7.042   1.791   0.966 -0.2214  0.0160  0.1209
    4BIM    C23 3812   7.144   1.842   1.047 -0.2905  0.0177  0.2072
    4BIM    C24 3813   7.183   1.973   1.025 -0.1814 -0.0241  0.1492
    4BIM    C25 3814   7.122   2.051   0.926 -0.0086 -0.0661  0.0091
    4BIM    C26 3815   7.020   2.001   0.845  0.0614 -0.0681 -0.0776
    4BIM    C27 3816   6.979   1.868   0.865 -0.0472 -0.0261 -0.0207
    4BIM    C28 3817   6.876   1.786   0.797 -0.0139 -0.0162 -0.0836
    4BIM    C29 3818   6.794   1.827   0.694  0.1397 -0.0483 -0.2190
    4BIM    C30 3819   6.799   1.958   0.638  0.2924 -0.0970 -0.3197
    4BIM    C31 3820   6.697   1.740   0.635  0.1600 -0.0355 -0.2705
    5BIM     F1 3821   7.899   0.359   1.874  0.6714 -0.2987 -0.4517
    5BIM     F2 3822   7.905   0.091   1.921 -0.3474 -0.1721  0.4767
    5BIM     O1 3823   7.506   0.390   1.504  0.9363 -0.1053 -0.7172
    5BIM     N5 3824   7.632  -0.272   1.724 -1.6237  0.1478  1.6223
    5BIM     N6 3825   7.323  -0.193   1.425 -1.2115  0.2735  1.2277
    5BIM    C19 3826   7.371   0.146   1.417  0.0567  0.0844  0.0756
    5BIM    C20 3827   7.470   0.148   1.508  0.0299  0.0307  0.1061
    5BIM    C21 3828   7.534   0.278   1.548  0.4989 -0.0661 -0.3172
    5BIM    C22 3829   7.637   0.245   1.648  0.3357 -0.1046 -0.1622
    5BIM    C23 3830   7.723   0.333   1.714  0.6367 -0.1923 -0.4311
    5BIM    C24 3831   7.812   0.278   1.805  0.3966 -0.2132 -0.2068
    5BIM    C25 3832   7.814   0.140   1.829 -0.1285 -0.1478  0.2716
    5BIM    C26 3833   7.729   0.052   1.764 -0.4311 -0.0602  0.5419
    5BIM    C27 3834   7.638   0.105   1.671 -0.1949 -0.0378  0.3211
    5BIM    C28 3835   7.536   0.040   1.586 -0.4036  0.0480  0.5050
    5BIM    C29 3836   7.507  -0.094   1.580 -0.9032  0.1280  0.9583
    5BIM    C30 3837   7.576  -0.192   1.659 -1.2977  0.1385  1.3217
    5BIM    C31 3838   7.406  -0.148   1.495 -1.0700  0.2074  1.1038
    1BTD     S2 3839   2.875   4.692   0.705  0.1605  0.1745  0.2255
    1BTD     N1 3840   3.016   4.626   0.794  0.1470  0.3146  0.3494
    1BTD     N2 3841   2.954   4.848   0.665  0.1559  0.1247  0.0179
    1BTD     N3 3842   3.371   5.049   0.747  0.1224  0.2762 -0.1817
    1BTD     N4 3843   3.447   4.775   0.906  0.1114  0.5101  0.2269
    1BTD     C5 3844   3.240   4.707   0.851  0.1286  0.4138  0.2805
    1BTD     C6 3845   3.110   4.720   0.791  0.1402  0.3169  0.2355
    1BTD     C7 3846   3.076   4.844   0.718  0.1452  0.2106  0.0499
    1BTD     C8 3847   3.173   4.950   0.709  0.1383  0.2067 -0.0814
    1BTD    C15 3848   3.299   4.933   0.770  0.1269  0.3035 -0.0312
    1BTD    C16 3849   3.332   4.814   0.840  0.1221  0.4060  0.1476
    1BTD    C43 3850   3.582   4.830   0.885 -0.4049  0.2727  0.7027
    1BTD    C44 3851   3.717   4.776   0.946  0.1599  0.0130  0.3265
    1BTD    C45 3852   3.773   4.647   0.903 -0.2063  0.1659  0.9891
    1BTD    C46 3853   3.774   4.628   0.749  0.2924  0.3301  0.1010
    1BTD    C47 3854   3.836   4.875   0.956  0.1390  0.0451  0.0468
    1BTD    C48 3855   3.829   5.000   1.043 -0.3647 -0.2212  0.2153
    1BTD    C49 3856   3.826   4.966   1.193 -0.4199  0.5355  0.4654
    1BTD    C50 3857   3.825   5.090   1.279  0.1491 -0.1395  0.5041
    1BTD    C75 3858   3.453   5.108   0.858 -0.2267  0.0272  0.1563
    1BTD    C76 3859   3.557   5.219   0.831 -0.2917 -0.2839 -0.3299
    1BTD    C77 3860   3.624   5.271   0.960  0.2500  0.2339 -0.5289
    1BTD    C78 3861   3.547   5.326   1.083  0.4315 -0.1148 -0.7604
    1BTD    C79 3862   3.662   5.175   0.724 -0.3940  0.4582 -0.5660
    1BTD    C80 3863   3.769   5.270   0.680  0.1675 -0.4614 -0.0479
    1BTD    C81 3864   3.880   5.223   0.586  0.1335 -0.5491 -0.5333
    1BTD    C82 3865   3.974   5.113   0.632  0.0803 -0.0087 -0.1461
    2TTP     S1 3866   3.222   4.495   1.056 -0.0714  0.2635  0.1918
    2TTP     S5 3867   3.596   4.634   1.218  0.0461  0.0490  0.1054
    2TTP     C1 3868   3.518   4.523   1.339  0.1061 -0.0655  0.0398
    2TTP     C2 3869   3.398   4.474   1.296  0.0733 -0.0058  0.0626
    2TTP     C3 3870   3.363   4.522   1.166 -0.0003  0.1323  0.1327
    2TTP     C4 3871   3.300   4.606   0.935 -0.1314  0.3780  0.2573
    2TTP    C17 3872   3.420   4.656   0.978 -0.0986  0.3185  0.2345
    2TTP    C18 3873   3.455   4.608   1.108 -0.0250  0.1804  0.1644
    2TTP    C32 3874   3.310   4.370   1.363 -0.7893  0.1913 -0.0895
    2TTP    C33 3875   3.164   4.409   1.394 -0.1188  0.1292 -0.9628
    2TTP    C34 3876   3.074   4.293   1.429 -0.0539 -0.8898  0.3666
    2TTP    C35 3877   3.113   4.213   1.554 -0.2859 -0.3818  0.2104
    2TTP    C36 3878   3.106   4.297   1.680 -0.4219  0.4654  0.1319
    2TTP    C37 3879   3.147   4.214   1.800  0.1286  0.0871 -0.1101
    2TTP    C38 3880   3.193   4.288   1.925  0.3633 -0.0331 -0.0105
    2TTP    C39 3881   3.327   4.372   1.919  0.7705 -0.3194  1.3492
    2TTP    C40 3882   3.350   4.476   2.020 -0.3877 -0.3900  0.7181
    2TTP    C41 3883   3.469   4.561   1.981 -0.3157 -0.7305 -0.0862
    2TTP    C42 3884   3.472   4.697   2.057 -0.8363 -0.5351 -0.2457
    3TTP     S1 3885   3.064   5.169   0.536 -0.0760  0.0581 -0.0029
    3TTP     S5 3886   3.431   5.385   0.596  0.0858 -0.1881 -0.0994
    3TTP     C1 3887   3.325   5.481   0.483  0.1341 -0.1331 -0.0982
    3TTP     C2 3888   3.205   5.419   0.458  0.0870 -0.0536 -0.0683
    3TTP     C3 3889   3.193   5.295   0.527  0.0110 -0.0337 -0.0453
    3TTP     C4 3890   3.170   5.073   0.649 -0.1243  0.0031 -0.0042
    3TTP    C17 3891   3.289   5.135   0.675 -0.0772 -0.0764 -0.0340
    3TTP    C18 3892   3.301   5.259   0.606 -0.0012 -0.0966 -0.0570
    3TTP    C32 3893   3.093   5.475   0.373  0.2606  0.2120 -0.1098
    3TTP    C33 3894   2.952   5.462   0.426 -0.0594 -0.5027 -1.0701
    3TTP    C34 3895   2.847   5.527   0.344  0.3635  0.2042  0.3658
    3TTP    C35 3896   2.707   5.520   0.406  0.1570 -0.7800  0.0698
    3TTP    C36 3897   2.591   5.590   0.342 -0.0019 -0.1226  0.0125
    3TTP    C37 3898   2.536   5.550   0.203 -0.1980  0.1442 -0.3267
    3TTP    C38 3899   2.491   5.404   0.185 -0.8267 -0.1910 -0.9676
    3TTP    C39 3900   2.384   5.352   0.285 -0.3660 -0.0283  0.0927
    3TTP    C40 3901   2.326   5.219   0.253 -0.2316 -0.0597  1.0390
    3TTP    C41 3902   2.196   5.182   0.319  0.5156 -1.0046 -0.4993
    3TTP    C42 3903   2.144   5.043   0.293  0.1150 -0.0005  0.2428
    4BIM     F1 3904   4.063   4.868   1.846  0.0449  0.0238 -0.4010
    4BIM     F2 3905   4.044   4.649   2.006 -0.1148  0.2104 -0.1633
    4BIM     O1 3906   3.708   4.742   1.456  0.0306 -0.1860 -0.3204
    4BIM     N5 3907   3.764   4.244   1.958 -0.3545  0.3288  0.2357
    4BIM     N6 3908   3.490   4.189   1.622 -0.3333  0.1271  0.2508
    4BIM    C19 3909   3.564   4.488   1.471 -0.1268 -0.0826 -0.0648
    4BIM    C20 3910   3.654   4.528   1.563 -0.1170 -0.0370 -0.0943
    4BIM    C21 3911   3.724   4.660   1.548 -0.0340 -0.0952 -0.2280
    4BIM    C22 3912   3.814   4.672   1.664 -0.0452 -0.0234 -0.2269
    4BIM    C23 3913   3.900   4.778   1.694  0.0144 -0.0426 -0.3287
    4BIM    C24 3914   3.976   4.767   1.810 -0.0108  0.0376 -0.3045
    4BIM    C25 3915   3.966   4.654   1.892 -0.0932  0.1335 -0.1821
    4BIM    C26 3916   3.881   4.548   1.863 -0.1529  0.1531 -0.0800
    4BIM    C27 3917   3.803   4.558   1.746 -0.1286  0.0730 -0.1026
    4BIM    C28 3918   3.704   4.464   1.687 -0.1760  0.0685 -0.0163
    4BIM    C29 3919   3.666   4.342   1.738 -0.2587  0.1470  0.1116
    4BIM    C30 3920   3.720   4.288   1.859 -0.3111  0.2466  0.1794
    4BIM    C31 3921   3.570   4.259   1.674 -0.2993  0.1355  0.1874
    5BIM     F1 3922   3.984   5.968   0.406 -0.0268  0.3229  0.6478
    5BIM     F2 3923   3.822   6.160   0.300  0.1466  0.0323 -0.1539
    5BIM     O1 3924   3.627   5.572   0.498 -0.0473  0.2880  0.4184
    5BIM     N5 3925   3.335   6.152   0.213  0.3812 -0.4107 -1.4701
    5BIM     N6 3926   3.089   5.804   0.306  0.3303 -0.3793 -1.4878
    5BIM    C19 3927   3.345   5.614   0.429  0.1110 -0.0021 -0.4291
    5BIM    C20 3928   3.442   5.706   0.410  0.1094  0.0180 -0.3400
    5BIM    C21 3929   3.584   5.677   0.448  0.0254  0.1707  0.1036
    5BIM    C22 3930   3.662   5.798   0.415  0.0468  0.1528  0.0889
    5BIM    C23 3931   3.798   5.818   0.432 -0.0098  0.2633  0.4231
    5BIM    C24 3932   3.850   5.941   0.392  0.0255  0.2194  0.3322
    5BIM    C25 3933   3.766   6.040   0.337  0.1149  0.0696 -0.0812
    5BIM    C26 3934   3.630   6.020   0.320  0.1718 -0.0411 -0.4161
    5BIM    C27 3935   3.576   5.896   0.359  0.1372  0.0011 -0.3302
    5BIM    C28 3936   3.437   5.844   0.355  0.1792 -0.0877 -0.6102
    5BIM    C29 3937   3.326   5.910   0.308  0.2661 -0.2393 -1.0381
    5BIM    C30 3938   3.332   6.043   0.256  0.3292 -0.3328 -1.2741
    5BIM    C31 3939   3.196   5.852   0.307  0.3009 -0.3153 -1.2830
    1BTD     S2 3940   7.167   3.258   6.488  0.0249  0.2283 -0.2578
    1BTD     N1 3941   7.314   3.271   6.592  0.0376  0.1447 -0.2648
    1BTD     N2 3942   7.178   3.080   6.470 -0.1175  0.2132 -0.2016
    1BTD     N3 3943   7.466   2.740   6.619 -0.3843  0.0315 -0.1004
    1BTD     N4 3944   7.632   2.976   6.769 -0.1931 -0.0530 -0.1781
    1BTD     C5 3945   7.478   3.114   6.683 -0.0851  0.0424 -0.2186
    1BTD     C6 3946   7.361   3.148   6.606 -0.0597  0.1115 -0.2271
    1BTD     C7 3947   7.285   3.041   6.538 -0.1466  0.1498 -0.1917
    1BTD     C8 3948   7.330   2.905   6.550 -0.2545  0.1172 -0.1496
    1BTD    C15 3949   7.446   2.876   6.625 -0.2756  0.0496 -0.1428
    1BTD    C16 3950   7.519   2.980   6.691 -0.1919  0.0126 -0.1772
    1BTD    C43 3951   7.692   2.858   6.831  0.7137 -0.2615  0.0739
    1BTD    C44 3952   7.827   2.832   6.888 -1.2834 -0.0519  0.2205
    1BTD    C45 3953   7.928   2.847   6.772  0.1052 -0.0400 -0.0308
    1BTD    C46 3954   8.080   2.834   6.794  0.8544 -0.2806 -0.1713
    1BTD    C47 3955   7.839   2.709   6.982  0.5959 -0.3122  0.5991
    1BTD    C48 3956   7.768   2.722   7.114  0.3202  0.5826  1.0942
    1BTD    C49 3957   7.813   2.811   7.221 -0.3227 -0.0237 -0.2460
    1BTD    C50 3958   7.961   2.781   7.269 -0.3785  0.7538  0.5819
    1BTD    C75 3959   7.593   2.666   6.615 -0.8446 -0.3634 -0.3997
    1BTD    C76 3960   7.672   2.622   6.485  1.0168  0.0916 -0.1057
    1BTD    C77 3961   7.681   2.738   6.377 -0.1455 -0.0252  0.1525
    1BTD    C78 3962   7.729   2.699   6.238 -0.0845  0.4856  0.1316
    1BTD    C79 3963   7.804   2.543   6.518 -0.0061  0.2481  0.0625
    1BTD    C80 3964   7.815   2.427   6.616  0.6280 -0.1137 -0.2540
    1BTD    C81 3965   7.718   2.311   6.585  0.0672 -0.8502  0.5717
    1BTD    C82 3966   7.765   2.184   6.656 -0.4710 -0.1326 -0.5610
    2TTP     S1 3967   7.582   3.363   6.813 -0.2698 -0.0710  0.0998
    2TTP     S5 3968   7.896   3.131   6.993 -0.4305 -0.1563  0.2701
    2TTP     C1 3969   7.911   3.303   7.050 -0.4243 -0.1638  0.2909
    2TTP     C2 3970   7.815   3.385   6.998 -0.3744 -0.1377  0.2394
    2TTP     C3 3971   7.726   3.315   6.911 -0.3390 -0.1112  0.1820
    2TTP     C4 3972   7.567   3.191   6.756 -0.2760 -0.0635  0.0792
    2TTP    C17 3973   7.664   3.110   6.808 -0.3260 -0.0894  0.1306
    2TTP    C18 3974   7.752   3.180   6.895 -0.3612 -0.1162  0.1880
    2TTP    C32 3975   7.798   3.536   7.033  0.3274  0.2094 -0.0447
    2TTP    C33 3976   7.750   3.638   6.928  0.1572 -0.8506  0.1738
    2TTP    C34 3977   7.850   3.674   6.820  0.8225  0.0549  0.4466
    2TTP    C35 3978   7.798   3.769   6.705  0.7296 -0.0621 -0.3379
    2TTP    C36 3979   7.891   3.808   6.594  0.3231 -0.0784 -1.0648
    2TTP    C37 3980   7.821   3.894   6.496  0.2980  0.0276  0.0794
    2TTP    C38 3981   7.907   3.959   6.390 -0.3579 -1.0321 -0.0420
    2TTP    C39 3982   7.823   4.001   6.274  0.1596 -0.0951  0.2403
    2TTP    C40 3983   7.921   4.074   6.181  0.2290  0.3884  0.4341
    2TTP    C41 3984   7.852   4.112   6.054 -0.3003 -0.0616 -0.0223
    2TTP    C42 3985   7.939   4.184   5.948 -0.1254  0.3198  0.5527
    3TTP     S1 3986   7.137   2.721   6.402 -0.1455 -0.0595  0.3446
    3TTP     S5 3987   7.347   2.381   6.560  0.0387 -0.0397  0.1429
    3TTP     C1 3988   7.206   2.321   6.462  0.1180 -0.0605  0.0405
    3TTP     C2 3989   7.132   2.423   6.408  0.0658 -0.0678  0.0969
    3TTP     C3 3990   7.185   2.551   6.441 -0.0387 -0.0573  0.2228
    3TTP     C4 3991   7.278   2.781   6.500 -0.2248 -0.0387  0.4470
    3TTP    C17 3992   7.351   2.679   6.555 -0.1725 -0.0314  0.3907
    3TTP    C18 3993   7.299   2.550   6.521 -0.0682 -0.0419  0.2646
    3TTP    C32 3994   7.016   2.411   6.305  0.2830  0.0798  0.0899
    3TTP    C33 3995   7.034   2.465   6.165 -0.7677 -0.0717  0.2187
    3TTP    C34 3996   6.907   2.449   6.083 -0.2225  0.0184 -0.4644
    3TTP    C35 3997   6.916   2.521   5.955  0.1318 -0.5133  1.3117
    3TTP    C36 3998   6.917   2.674   5.938 -0.9780  0.0198 -0.3784
    3TTP    C37 3999   6.832   2.753   6.038 -0.1332 -0.4228  0.6491
    3TTP    C38 4000   6.823   2.899   5.997  0.3321 -0.2635  0.8152
    3TTP    C39 4001   6.731   2.990   6.080 -0.1811 -0.3167  0.4077
    3TTP    C40 4002   6.578   2.961   6.056 -0.3973  0.4457 -0.5905
    3TTP    C41 4003   6.514   2.985   5.923 -0.8337  0.0680  0.5975
    3TTP    C42 4004   6.366   2.978   5.912  0.6148  0.3157 -0.5466
    4BIM     F1 4005   8.384   2.946   7.616 -0.2735 -0.0312 -0.0854
    4BIM     F2 4006   8.515   3.183   7.649 -0.2840 -0.0601  0.1624
    4BIM     O1 4007   8.013   3.085   7.248 -0.0074  0.2317 -0.2551
    4BIM     N5 4008   8.437   3.622   7.435 -0.1094  0.0860  0.3973
    4BIM     N6 4009   8.120   3.683   7.141  0.1006  0.2972  0.2148
    4BIM    C19 4010   8.005   3.360   7.149  0.0771  0.2976 -0.0788
    4BIM    C20 4011   8.093   3.316   7.240  0.0105  0.2325 -0.0459
    4BIM    C21 4012   8.091   3.173   7.286 -0.0296  0.2022 -0.1419
    4BIM    C22 4013   8.200   3.159   7.385 -0.0997  0.1313 -0.0747
    4BIM    C23 4014   8.236   3.045   7.455 -0.1550  0.0830 -0.1245
    4BIM    C24 4015   8.343   3.055   7.543 -0.2164  0.0190 -0.0425
    4BIM    C25 4016   8.410   3.177   7.560 -0.2219  0.0043  0.0851
    4BIM    C26 4017   8.374   3.292   7.491 -0.1667  0.0522  0.1354
    4BIM    C27 4018   8.266   3.283   7.401 -0.1040  0.1173  0.0538
    4BIM    C28 4019   8.204   3.384   7.313 -0.0365  0.1789  0.0768
    4BIM    C29 4020   8.241   3.516   7.301 -0.0207  0.1850  0.1897
    4BIM    C30 4021   8.348   3.574   7.375 -0.0696  0.1305  0.3035
    4BIM    C31 4022   8.174   3.607   7.213  0.0458  0.2467  0.2028
    5BIM     F1 4023   7.569   1.605   6.638  0.1358 -0.0553  0.0753
    5BIM     F2 4024   7.356   1.476   6.530  0.2823 -0.1388 -0.1153
    5BIM     O1 4025   7.424   2.121   6.567 -0.0559 -0.1122  0.0522
    5BIM     N5 4026   6.945   1.658   6.323  0.3566 -0.2995 -0.4058
    5BIM     N6 4027   6.875   2.088   6.289  0.1774 -0.3272 -0.3853
    5BIM    C19 4028   7.168   2.182   6.438  0.0162 -0.2122 -0.1380
    5BIM    C20 4029   7.213   2.057   6.460  0.0587 -0.1947 -0.1247
    5BIM    C21 4030   7.346   2.034   6.527  0.0174 -0.1428 -0.0246
    5BIM    C22 4031   7.364   1.888   6.535  0.0807 -0.1358 -0.0362
    5BIM    C23 4032   7.471   1.818   6.590  0.0714 -0.0935  0.0361
    5BIM    C24 4033   7.466   1.680   6.586  0.1405 -0.0956  0.0072
    5BIM    C25 4034   7.356   1.613   6.530  0.2159 -0.1388 -0.0907
    5BIM    C26 4035   7.248   1.682   6.476  0.2254 -0.1810 -0.1636
    5BIM    C27 4036   7.252   1.822   6.478  0.1564 -0.1795 -0.1359
    5BIM    C28 4037   7.155   1.924   6.430  0.1458 -0.2175 -0.1940
    5BIM    C29 4038   7.034   1.899   6.369  0.2055 -0.2647 -0.2934
    5BIM    C30 4039   6.986   1.767   6.344  0.2885 -0.2837 -0.3548
    5BIM    C31 4040   6.947   2.003   6.325  0.1898 -0.2987 -0.3434
    1BTD     S2 4041   8.468   5.850   9.382  0.1519  0.0861 -0.2163
    1BTD     N1 4042   8.537   5.685   9.403 -0.1307  0.0221  0.2420
    1BTD     N2 4043   8.616   5.935   9.438  0.3002 -0.0130 -0.4594
    1BTD     N3 4044   9.043   5.812   9.588  0.0918 -0.3306 -0.1264
    1BTD     N4 4045   8.946   5.504   9.546 -0.4392 -0.2873  0.7381
    1BTD     C5 4046   8.751   5.594   9.478 -0.2851 -0.1400  0.4907
    1BTD     C6 4047   8.661   5.702   9.448 -0.1018 -0.0653  0.1931
    1BTD     C7 4048   8.705   5.841   9.467  0.1395 -0.0850 -0.1996
    1BTD     C8 4049   8.838   5.867   9.516  0.1848 -0.1782 -0.2751
    1BTD    C15 4050   8.924   5.759   9.544 -0.0003 -0.2493  0.0250
    1BTD    C16 4051   8.881   5.624   9.525 -0.2329 -0.2302  0.4033
    1BTD    C43 4052   9.087   5.466   9.524 -0.1442 -0.3258  0.2736
    1BTD    C44 4053   9.122   5.415   9.379  0.8316 -0.1683 -0.1177
    1BTD    C45 4054   9.088   5.521   9.271  0.2884  0.2681  0.0410
    1BTD    C46 4055   9.189   5.631   9.250 -0.2698  0.2021 -0.0237
    1BTD    C47 4056   9.240   5.329   9.344 -0.2639 -0.2511 -0.1091
    1BTD    C48 4057   9.272   5.203   9.426  0.8665 -0.9330 -0.2059
    1BTD    C49 4058   9.392   5.120   9.382  0.1325 -0.0419  0.4051
    1BTD    C50 4059   9.411   4.995   9.460  0.0402  0.1013 -0.7085
    1BTD    C75 4060   9.128   5.740   9.683  0.4728  0.0579 -0.6153
    1BTD    C76 4061   9.271   5.776   9.711  0.5054 -0.0344  0.5287
    1BTD    C77 4062   9.363   5.742   9.593  0.1241  0.3428  0.2618
    1BTD    C78 4063   9.506   5.779   9.593  0.0052  0.6354  0.1292
    1BTD    C79 4064   9.309   5.737   9.851 -0.2110 -0.2329 -0.3980
    1BTD    C80 4065   9.322   5.588   9.902 -0.4304  0.2874 -0.0766
    1BTD    C81 4066   9.430   5.577  10.013 -0.1551  0.2703  0.6915
    1BTD    C82 4067   9.576   5.568   9.947  0.0656 -0.2772  0.1842
    2TTP     S1 4068   8.607   5.317   9.464 -0.1579  0.0046  0.0381
    2TTP     S5 4069   8.970   5.131   9.602  0.0939 -0.0565 -0.6988
    2TTP     C1 4070   8.843   5.002   9.580  0.0604 -0.0496 -0.5453
    2TTP     C2 4071   8.724   5.052   9.537 -0.0193 -0.0303 -0.3088
    2TTP     C3 4072   8.728   5.194   9.518 -0.0570 -0.0204 -0.2403
    2TTP     C4 4073   8.733   5.446   9.486 -0.1242 -0.0024 -0.1156
    2TTP    C17 4074   8.853   5.396   9.529 -0.0446 -0.0216 -0.3521
    2TTP    C18 4075   8.849   5.254   9.548 -0.0072 -0.0315 -0.4208
    2TTP    C32 4076   8.596   4.978   9.520  0.8952 -0.3469 -0.3459
    2TTP    C33 4077   8.539   4.979   9.380 -0.2526 -0.3224  0.0671
    2TTP    C34 4078   8.426   4.885   9.360 -0.1426  0.2805  0.3886
    2TTP    C35 4079   8.365   4.896   9.217 -0.2056  0.3954 -0.2197
    2TTP    C36 4080   8.244   4.820   9.180  0.3789  0.2090  0.1377
    2TTP    C37 4081   8.234   4.779   9.032  0.3074 -0.2399  0.1952
    2TTP    C38 4082   8.111   4.699   9.008  0.2185 -0.0926 -0.2679
    2TTP    C39 4083   8.052   4.680   8.873 -0.0174  0.0653  0.4741
    2TTP    C40 4084   8.008   4.808   8.810  0.3717  0.5121  0.6085
    2TTP    C41 4085   7.952   4.790   8.671  0.1322 -0.1594  0.2361
    2TTP    C42 4086   7.894   4.933   8.628 -0.4727  0.0651 -0.1517
    3TTP     S1 4087   8.877   6.165   9.529  0.2475  0.1086  0.2530
    3TTP     S5 4088   9.292   6.102   9.622  0.1755 -0.1671  0.3912
    3TTP     C1 4089   9.262   6.281   9.610  0.3660 -0.1546  0.0718
    3TTP     C2 4090   9.132   6.311   9.581  0.3996 -0.0688  0.0105
    3TTP     C3 4091   9.051   6.194   9.566  0.2761 -0.0098  0.2134
    3TTP     C4 4092   8.907   5.986   9.541  0.0572  0.0958  0.5722
    3TTP    C17 4093   9.037   5.956   9.570  0.0236  0.0101  0.6334
    3TTP    C18 4094   9.117   6.073   9.584  0.1471 -0.0490  0.4306
    3TTP    C32 4095   9.066   6.443   9.543 -0.1524  0.6749  0.6871
    3TTP    C33 4096   8.971   6.505   9.646 -0.2207  0.0312  0.1829
    3TTP    C34 4097   8.895   6.630   9.600  0.2841  0.1080 -0.4124
    3TTP    C35 4098   8.777   6.664   9.700 -0.3927  0.0622  0.1565
    3TTP    C36 4099   8.655   6.734   9.633 -0.3086 -0.3634 -0.0995
    3TTP    C37 4100   8.546   6.767   9.731  0.0864  0.1362 -0.4325
    3TTP    C38 4101   8.417   6.790   9.655  0.4111 -0.8502  0.0593
    3TTP    C39 4102   8.299   6.851   9.744  0.8475  0.3968  0.5332
    3TTP    C40 4103   8.166   6.877   9.666 -0.4456 -0.3787 -0.3205
    3TTP    C41 4104   8.071   6.953   9.764 -0.4122  0.4203  0.0006
    3TTP    C42 4105   7.935   6.979   9.702 -0.0099 -0.4251 -0.8645
    4BIM     F1 4106   9.484   4.507   9.714 -0.0210 -0.0129 -0.0308
    4BIM     F2 4107   9.323   4.293   9.665  0.0000  0.0021 -0.1683
    4BIM     O1 4108   9.133   4.915   9.658 -0.0286 -0.0032  0.0849
    4BIM     N5 4109   8.840   4.277   9.556  0.0253  0.0306 -0.2837
    4BIM     N6 4110   8.598   4.639   9.522  0.0153  0.0350 -0.1656
    4BIM    C19 4111   8.854   4.856   9.592 -0.0107  0.0147 -0.0055
    4BIM    C20 4112   8.949   4.761   9.608 -0.0100  0.0116 -0.0292
    4BIM    C21 4113   9.090   4.800   9.642 -0.0193  0.0023  0.0205
    4BIM    C22 4114   9.166   4.674   9.652 -0.0153  0.0013 -0.0223
    4BIM    C23 4115   9.301   4.659   9.681 -0.0215 -0.0062  0.0006
    4BIM    C24 4116   9.351   4.529   9.685 -0.0159 -0.0058 -0.0497
    4BIM    C25 4117   9.268   4.419   9.660 -0.0052  0.0020 -0.1206
    4BIM    C26 4118   9.133   4.434   9.631  0.0010  0.0095 -0.1438
    4BIM    C27 4119   9.081   4.564   9.626 -0.0045  0.0092 -0.0936
    4BIM    C28 4120   8.944   4.613   9.598 -0.0005  0.0157 -0.1007
    4BIM    C29 4121   8.833   4.537   9.569  0.0095  0.0241 -0.1618
    4BIM    C30 4122   8.837   4.394   9.562  0.0184  0.0278 -0.2286
    4BIM    C31 4123   8.705   4.593   9.544  0.0126  0.0302 -0.1635
    5BIM     F1 4124  10.086   6.337   9.576 -0.0839 -0.2555 -0.0732
    5BIM     F2 4125  10.064   6.596   9.657  0.0758 -0.1277 -0.4331
    5BIM     O1 4126   9.564   6.193   9.555 -0.1683  0.0032  0.2309
    5BIM     N5 4127   9.662   6.865   9.759  0.2451  0.2406 -0.7338
    5BIM     N6 4128   9.259   6.701   9.726  0.1471  0.4170 -0.4236
    5BIM    C19 4129   9.359   6.389   9.625 -0.0458  0.2172 -0.0049
    5BIM    C20 4130   9.491   6.415   9.627 -0.0310  0.1472 -0.0674
    5BIM    C21 4131   9.590   6.309   9.590 -0.0968  0.0385  0.0624
    5BIM    C22 4132   9.724   6.370   9.603 -0.0603 -0.0169 -0.0499
    5BIM    C23 4133   9.847   6.311   9.579 -0.0980 -0.1196  0.0095
    5BIM    C24 4134   9.960   6.389   9.598 -0.0505 -0.1547 -0.1225
    5BIM    C25 4135   9.949   6.523   9.640  0.0316 -0.0888 -0.3078
    5BIM    C26 4136   9.826   6.583   9.664  0.0696  0.0138 -0.3681
    5BIM    C27 4137   9.710   6.505   9.645  0.0229  0.0509 -0.2365
    5BIM    C28 4138   9.567   6.538   9.662  0.0443  0.1543 -0.2546
    5BIM    C29 4139   9.515   6.659   9.701  0.1190  0.2401 -0.4143
    5BIM    C30 4140   9.596   6.772   9.733  0.1881  0.2401 -0.5895
    5BIM    C31 4141   9.374   6.681   9.715  0.1340  0.3369 -0.4185
    1BTD     S2 4142   6.934   6.383   4.718 -0.2304  0.0960 -0.1877
    1BTD     N1 4143   7.110   6.405   4.744 -0.2121  0.0191 -0.2445
    1BTD     N2 4144   6.911   6.543   4.640 -0.2060  0.1506 -0.0836
    1BTD     N3 4145   7.182   6.909   4.528 -0.1233  0.1229  0.0262
    1BTD     N4 4146   7.428   6.739   4.657 -0.1309 -0.0391 -0.1719
    1BTD     C5 4147   7.273   6.581   4.697 -0.1696 -0.0094 -0.2042
    1BTD     C6 4148   7.141   6.524   4.696 -0.1900  0.0371 -0.1860
    1BTD     C7 4149   7.030   6.602   4.637 -0.1864  0.1106 -0.0958
    1BTD     C8 4150   7.055   6.732   4.583 -0.1630  0.1341 -0.0286
    1BTD    C15 4151   7.186   6.784   4.586 -0.1435  0.0868 -0.0496
    1BTD    C16 4152   7.294   6.709   4.642 -0.1469  0.0158 -0.1365
    1BTD    C43 4153   7.505   6.833   4.568 -0.1555 -0.4210  0.5458
    1BTD    C44 4154   7.638   6.909   4.598  0.0578  0.2170 -0.5911
    1BTD    C45 4155   7.711   6.962   4.472  0.5907  0.1548 -0.4061
    1BTD    C46 4156   7.736   6.868   4.348  0.9290 -0.3363  0.3022
    1BTD    C47 4157   7.623   7.015   4.707  0.3355 -0.1554 -0.2669
    1BTD    C48 4158   7.736   7.098   4.763  0.3006  0.0114  0.2253
    1BTD    C49 4159   7.701   7.228   4.843 -0.2473 -0.1940 -0.2279
    1BTD    C50 4160   7.608   7.217   4.961  0.0364  0.0879 -1.1509
    1BTD    C75 4161   7.266   7.024   4.571 -0.4993  0.3130  0.5737
    1BTD    C76 4162   7.295   7.144   4.473 -0.1665  0.2598 -0.7336
    1BTD    C77 4163   7.353   7.093   4.343 -0.0034  0.2830  0.6857
    1BTD    C78 4164   7.384   7.192   4.228  0.6823 -0.0161 -0.6197
    1BTD    C79 4165   7.370   7.255   4.547 -0.0009 -0.1378  0.0251
    1BTD    C80 4166   7.309   7.321   4.674 -0.4101 -0.2808  1.0658
    1BTD    C81 4167   7.373   7.456   4.703  0.7853  0.3628 -0.0383
    1BTD    C82 4168   7.323   7.564   4.616  0.7923 -0.2342 -0.3609
    2TTP     S1 4169   7.470   6.383   4.811  0.1770  0.0416  0.0437
    2TTP     S5 4170   7.791   6.659   4.733  0.1382  0.1048  0.1060
    2TTP     C1 4171   7.862   6.505   4.800  0.1474  0.1530  0.2076
    2TTP     C2 4172   7.767   6.411   4.828  0.1601  0.1364  0.1943
    2TTP     C3 4173   7.635   6.457   4.797  0.1627  0.0849  0.1035
    2TTP     C4 4174   7.400   6.537   4.744  0.1677 -0.0066 -0.0579
    2TTP    C17 4175   7.495   6.631   4.716  0.1551  0.0101 -0.0446
    2TTP    C18 4176   7.627   6.585   4.746  0.1523  0.0615  0.0463
    2TTP    C32 4177   7.803   6.275   4.885  0.7672 -0.0632 -0.0835
    2TTP    C33 4178   7.731   6.224   5.007 -0.0676 -0.0216  0.7373
    2TTP    C34 4179   7.762   6.080   5.034 -0.2275 -0.1831  0.2408
    2TTP    C35 4180   7.898   6.052   5.089 -0.2570 -0.3191 -0.4426
    2TTP    C36 4181   7.933   5.900   5.117 -0.6045 -0.5713 -0.1047
    2TTP    C37 4182   8.062   5.894   5.203 -0.0835  0.1951 -0.1300
    2TTP    C38 4183   8.103   5.747   5.219 -0.3236  0.1748  0.4330
    2TTP    C39 4184   8.222   5.715   5.307 -0.1178  0.0833 -0.6193
    2TTP    C40 4185   8.265   5.565   5.333  0.5962 -0.6512 -0.3958
    2TTP    C41 4186   8.350   5.480   5.234 -0.5691  0.1860  0.1439
    2TTP    C42 4187   8.396   5.354   5.306  0.0529  0.2182  0.6482
    3TTP     S1 4188   6.797   6.842   4.466 -0.2184 -0.0596 -0.3640
    3TTP     S5 4189   7.006   7.198   4.346 -0.2160  0.0862  0.0702
    3TTP     C1 4190   6.832   7.213   4.295 -0.1753  0.0710 -0.0728
    3TTP     C2 4191   6.757   7.104   4.329 -0.1738  0.0250 -0.2155
    3TTP     C3 4192   6.834   7.004   4.397 -0.2046  0.0002 -0.2167
    3TTP     C4 4193   6.970   6.827   4.518 -0.2592 -0.0445 -0.2209
    3TTP    C17 4194   7.045   6.936   4.484 -0.2607  0.0016 -0.0783
    3TTP    C18 4195   6.968   7.035   4.416 -0.2300  0.0263 -0.0769
    3TTP    C32 4196   6.611   7.091   4.293  0.6027  0.7523 -0.0955
    3TTP    C33 4197   6.505   7.087   4.396 -1.2018 -0.6466 -0.4975
    3TTP    C34 4198   6.377   7.088   4.327  0.4164 -0.3584 -0.0780
    3TTP    C35 4199   6.260   7.073   4.429 -0.2390 -0.3091  0.1403
    3TTP    C36 4200   6.125   7.049   4.359  0.0512  0.1391  0.1639
    3TTP    C37 4201   6.060   7.156   4.273 -0.0781  0.0171  0.0813
    3TTP    C38 4202   6.051   7.297   4.319  0.0110 -0.4494 -0.4412
    3TTP    C39 4203   5.986   7.368   4.202 -0.2362  1.0516  0.1961
    3TTP    C40 4204   5.971   7.511   4.227 -0.8497 -0.1153 -0.3275
    3TTP    C41 4205   5.905   7.583   4.115  0.6078  0.0167 -0.6291
    3TTP    C42 4206   5.880   7.728   4.149  0.0336 -0.1162  0.0631
    4BIM     F1 4207   8.521   6.750   4.377 -0.0663  0.2335 -0.0343
    4BIM     F2 4208   8.679   6.639   4.568  0.0226  0.2528 -0.0964
    4BIM     O1 4209   8.029   6.625   4.564  0.0238  0.1099  0.1206
    4BIM     N5 4210   8.555   6.389   4.977  0.2153  0.1925 -0.0753
    4BIM     N6 4211   8.139   6.313   5.085  0.2680  0.0921  0.0583
    4BIM    C19 4212   8.005   6.474   4.814  0.1411  0.0844  0.1165
    4BIM    C20 4213   8.122   6.510   4.759  0.1152  0.1148  0.0799
    4BIM    C21 4214   8.127   6.587   4.631  0.0544  0.1261  0.0846
    4BIM    C22 4215   8.269   6.610   4.600  0.0393  0.1601  0.0387
    4BIM    C23 4216   8.323   6.677   4.490 -0.0122  0.1807  0.0261
    4BIM    C24 4217   8.461   6.685   4.482 -0.0164  0.2119 -0.0196
    4BIM    C25 4218   8.542   6.628   4.581  0.0292  0.2218 -0.0516
    4BIM    C26 4219   8.489   6.560   4.690  0.0811  0.2013 -0.0392
    4BIM    C27 4220   8.350   6.551   4.700  0.0863  0.1696  0.0070
    4BIM    C28 4221   8.263   6.487   4.802  0.1345  0.1423  0.0309
    4BIM    C29 4222   8.304   6.420   4.915  0.1872  0.1423  0.0114
    4BIM    C30 4223   8.442   6.403   4.949  0.2024  0.1700 -0.0361
    4BIM    C31 4224   8.213   6.362   5.008  0.2315  0.1147  0.0372
    5BIM     F1 4225   7.163   7.810   3.848  0.0064  0.0131 -0.0379
    5BIM     F2 4226   6.930   7.948   3.869  0.0538  0.0641  0.1595
    5BIM     O1 4227   7.038   7.354   4.112 -0.0243 -0.1593 -0.3494
    5BIM     N5 4228   6.504   7.820   4.086  0.1003  0.0147  0.2216
    5BIM     N6 4229   6.453   7.436   4.288  0.0666 -0.1302 -0.0618
    5BIM    C19 4230   6.770   7.324   4.225  0.0101 -0.1716 -0.2713
    5BIM    C20 4231   6.811   7.433   4.158  0.0160 -0.1304 -0.2006
    5BIM    C21 4232   6.950   7.441   4.103 -0.0026 -0.1267 -0.2471
    5BIM    C22 4233   6.961   7.572   4.036  0.0097 -0.0772 -0.1481
    5BIM    C23 4234   7.072   7.625   3.970 -0.0002 -0.0569 -0.1485
    5BIM    C24 4235   7.058   7.752   3.915  0.0150 -0.0094 -0.0438
    5BIM    C25 4236   6.937   7.822   3.926  0.0395  0.0171  0.0578
    5BIM    C26 4237   6.827   7.770   3.991  0.0496 -0.0031  0.0590
    5BIM    C27 4238   6.838   7.642   4.048  0.0343 -0.0513 -0.0464
    5BIM    C28 4239   6.741   7.559   4.123  0.0392 -0.0827 -0.0745
    5BIM    C29 4240   6.612   7.594   4.155  0.0609 -0.0703  0.0015
    5BIM    C30 4241   6.553   7.718   4.117  0.0825 -0.0237  0.1222
    5BIM    C31 4242   6.525   7.507   4.228  0.0640 -0.1034 -0.0336
    1BTD     S2 4243   8.328   5.445   0.945  0.1381  0.0159  0.4059
    1BTD     N1 4244   8.245   5.599   0.905  0.1211 -0.0174  0.3118
    1BTD     N2 4245   8.482   5.523   0.995  0.0966  0.0693  0.4511
    1BTD     N3 4246   8.645   5.963   1.023 -0.0188  0.1173  0.3735
    1BTD     N4 4247   8.353   6.056   0.913  0.0114  0.0104  0.2019
    1BTD     C5 4248   8.305   5.836   0.910  0.0634 -0.0015  0.2565
    1BTD     C6 4249   8.332   5.696   0.929  0.0873  0.0112  0.3186
    1BTD     C7 4250   8.464   5.654   0.980  0.0732  0.0598  0.3966
    1BTD     C8 4251   8.564   5.754   1.008  0.0365  0.0930  0.4086
    1BTD    C15 4252   8.533   5.890   0.988  0.0143  0.0788  0.3460
    1BTD    C16 4253   8.405   5.931   0.940  0.0282  0.0320  0.2709
    1BTD    C43 4254   8.370   6.169   0.997 -0.4720 -0.9565 -0.3534
    1BTD    C44 4255   8.340   6.314   0.950 -0.1117  0.2191 -0.3795
    1BTD    C45 4256   8.441   6.367   0.847 -0.0627  0.7660 -0.1088
    1BTD    C46 4257   8.402   6.497   0.786  0.0592  0.2230  0.3716
    1BTD    C47 4258   8.331   6.398   1.077 -0.4964 -0.5632 -0.2273
    1BTD    C48 4259   8.207   6.381   1.165 -0.1049 -1.0708 -0.4572
    1BTD    C49 4260   8.078   6.425   1.089 -0.6358  0.5527 -0.2773
    1BTD    C50 4261   7.951   6.417   1.169 -0.1529  0.5284 -0.3451
    1BTD    C75 4262   8.672   6.108   0.982 -0.4664  0.8033 -0.2537
    1BTD    C76 4263   8.768   6.205   1.058  0.1874 -0.3049  0.2962
    1BTD    C77 4264   8.759   6.230   1.212  0.6036 -0.2168  0.1933
    1BTD    C78 4265   8.625   6.279   1.272 -0.5373 -0.0931 -0.3833
    1BTD    C79 4266   8.798   6.317   0.957  0.2481 -0.7863 -0.6042
    1BTD    C80 4267   8.936   6.389   0.995 -0.1422  0.1098  0.4285
    1BTD    C81 4268   9.063   6.312   0.985  0.4039 -0.1054 -0.0693
    1BTD    C82 4269   9.185   6.378   1.040  0.1180  0.1147 -0.0575
    2TTP     S1 4270   8.023   5.863   0.813  0.0700 -0.1264  0.1415
    2TTP     S5 4271   8.089   6.285   0.757 -0.4125 -0.0970 -0.2174
    2TTP     C1 4272   7.922   6.244   0.698 -0.3788 -0.3325 -0.1523
    2TTP     C2 4273   7.891   6.112   0.712 -0.2277 -0.3556 -0.0376
    2TTP     C3 4274   7.999   6.037   0.770 -0.1334 -0.1878  0.0030
    2TTP     C4 4275   8.191   5.904   0.871  0.0360  0.1090  0.0764
    2TTP    C17 4276   8.221   6.036   0.857 -0.1147  0.1321 -0.0382
    2TTP    C18 4277   8.113   6.111   0.800 -0.2091 -0.0354 -0.0788
    2TTP    C32 4278   7.758   6.049   0.691  0.3840 -0.4026 -0.0361
    2TTP    C33 4279   7.648   6.063   0.801 -0.2241  0.2469  0.0614
    2TTP    C34 4280   7.520   6.002   0.766 -0.0144  0.4801 -0.4930
    2TTP    C35 4281   7.445   6.079   0.655  1.1846  0.7013  0.0313
    2TTP    C36 4282   7.331   6.000   0.582 -0.9675 -0.0767  0.4788
    2TTP    C37 4283   7.384   5.930   0.448  0.1048  0.5163 -0.2887
    2TTP    C38 4284   7.276   5.891   0.346  0.0731 -0.1925  0.6106
    2TTP    C39 4285   7.196   5.998   0.274  0.3309  0.0101 -0.1723
    2TTP    C40 4286   7.249   6.137   0.232  0.5346 -0.4631  0.8498
    2TTP    C41 4287   7.372   6.149   0.139  0.0567 -0.3009 -0.0752
    2TTP    C42 4288   7.423   6.288   0.111 -0.4487 -0.0901  0.1620
    3TTP     S1 4289   8.811   5.621   1.121 -0.0160  0.0804 -0.0114
    3TTP     S5 4290   9.007   6.004   1.135 -0.2627  0.2123 -0.1431
    3TTP     C1 4291   9.124   5.877   1.193 -0.1661  0.3015 -0.1412
    3TTP     C2 4292   9.070   5.751   1.193 -0.0839  0.2661 -0.1004
    3TTP     C3 4293   8.935   5.751   1.146 -0.0947  0.1670 -0.0692
    3TTP     C4 4294   8.694   5.749   1.063 -0.1128 -0.0091 -0.0133
    3TTP    C17 4295   8.748   5.874   1.064 -0.1949  0.0265 -0.0541
    3TTP    C18 4296   8.883   5.874   1.111 -0.1838  0.1255 -0.0853
    3TTP    C32 4297   9.148   5.618   1.217 -0.1713  0.5894 -0.0631
    3TTP    C33 4298   9.080   5.500   1.290 -0.2789 -0.6257 -0.2851
    3TTP    C34 4299   9.181   5.405   1.342 -0.6143 -0.3258  0.2145
    3TTP    C35 4300   9.232   5.305   1.242 -0.1419  0.2186  0.0340
    3TTP    C36 4301   9.292   5.184   1.309 -0.2756 -0.2623 -0.2283
    3TTP    C37 4302   9.425   5.194   1.389  0.3490  0.0936 -0.5685
    3TTP    C38 4303   9.533   5.280   1.317  0.2114  0.2303  0.0858
    3TTP    C39 4304   9.647   5.306   1.412 -0.0798 -0.3842  0.1373
    3TTP    C40 4305   9.737   5.424   1.369 -0.4411 -0.1275 -0.1498
    3TTP    C41 4306   9.864   5.431   1.450 -0.6548  0.8122  0.4955
    3TTP    C42 4307   9.965   5.314   1.425 -0.0911 -0.6236  0.0339
    4BIM     F1 4308   7.866   7.061   0.661 -0.1653 -0.1770  0.2904
    4BIM     F2 4309   7.675   7.032   0.470  0.2041 -0.1450 -0.0882
    4BIM     O1 4310   7.977   6.544   0.776 -0.4575 -0.1959  0.4881
    4BIM     N5 4311   7.478   6.620   0.278  0.5264 -0.1121 -0.4916
    4BIM     N6 4312   7.602   6.222   0.406  0.2236 -0.1329 -0.2607
    4BIM    C19 4313   7.833   6.332   0.635 -0.2085 -0.1717  0.1967
    4BIM    C20 4314   7.812   6.463   0.613 -0.1495 -0.1682  0.1617
    4BIM    C21 4315   7.890   6.566   0.690 -0.2860 -0.1812  0.3190
    4BIM    C22 4316   7.844   6.698   0.642 -0.1758 -0.1734  0.2326
    4BIM    C23 4317   7.887   6.823   0.684 -0.2413 -0.1806  0.3223
    4BIM    C24 4318   7.828   6.934   0.624 -0.1103 -0.1706  0.2108
    4BIM    C25 4319   7.730   6.918   0.526  0.0798 -0.1542  0.0158
    4BIM    C26 4320   7.686   6.793   0.484  0.1462 -0.1469 -0.0746
    4BIM    C27 4321   7.744   6.680   0.543  0.0156 -0.1568  0.0359
    4BIM    C28 4322   7.721   6.535   0.521  0.0395 -0.1529 -0.0154
    4BIM    C29 4323   7.632   6.479   0.433  0.2048 -0.1379 -0.1932
    4BIM    C30 4324   7.547   6.557   0.348  0.3811 -0.1237 -0.3566
    4BIM    C31 4325   7.616   6.338   0.419  0.2142 -0.1353 -0.2293
    5BIM     F1 4326   9.603   6.516   1.380  0.0496 -0.2415  0.2099
    5BIM     F2 4327   9.811   6.343   1.411  0.0770 -0.2823 -0.1914
    5BIM     O1 4328   9.203   6.173   1.255 -0.1419 -0.1129  0.4676
    5BIM     N5 4329   9.825   5.851   1.366 -0.0200 -0.2494 -0.5847
    5BIM     N6 4330   9.470   5.618   1.262 -0.1750 -0.1407 -0.3024
    5BIM    C19 4331   9.259   5.887   1.240 -0.1836 -0.1063  0.1757
    5BIM    C20 4332   9.352   5.980   1.270 -0.1369 -0.1371  0.1266
    5BIM    C21 4333   9.315   6.125   1.276 -0.1178 -0.1383  0.2851
    5BIM    C22 4334   9.438   6.198   1.311 -0.0658 -0.1755  0.1810
    5BIM    C23 4335   9.454   6.335   1.328 -0.0327 -0.1898  0.2654
    5BIM    C24 4336   9.580   6.381   1.361  0.0151 -0.2257  0.1365
    5BIM    C25 4337   9.687   6.292   1.377  0.0291 -0.2466 -0.0702
    5BIM    C26 4338   9.672   6.155   1.361 -0.0033 -0.2327 -0.1554
    5BIM    C27 4339   9.545   6.107   1.327 -0.0522 -0.1963 -0.0273
    5BIM    C28 4340   9.496   5.969   1.302 -0.0951 -0.1734 -0.0690
    5BIM    C29 4341   9.571   5.853   1.308 -0.0961 -0.1841 -0.2535
    5BIM    C30 4342   9.710   5.852   1.340 -0.0546 -0.2199 -0.4350
    5BIM    C31 4343   9.515   5.724   1.283 -0.1397 -0.1602 -0.2794
    1BTD     S2 4344   1.272   0.162   6.546  0.2150  0.0021  0.1479
    1BTD     N1 4345   1.113   0.200   6.473  0.2355 -0.0807  0.0601
    1BTD     N2 4346   1.350   0.315   6.492  0.1377  0.0873  0.2753
    1BTD     N3 4347   1.221   0.695   6.249  0.0172  0.1112  0.3768
    1BTD     N4 4348   0.928   0.554   6.225  0.1376 -0.0958  0.1113
    1BTD     C5 4349   1.020   0.387   6.344  0.1830 -0.0861  0.0901
    1BTD     C6 4350   1.125   0.319   6.415  0.1862 -0.0426  0.1268
    1BTD     C7 4351   1.258   0.383   6.425  0.1315  0.0514  0.2472
    1BTD     C8 4352   1.279   0.512   6.365  0.0763  0.0972  0.3251
    1BTD    C15 4353   1.173   0.574   6.296  0.0752  0.0520  0.2853
    1BTD    C16 4354   1.045   0.512   6.286  0.1279 -0.0386  0.1692
    1BTD    C43 4355   0.873   0.695   6.213 -0.3978 -0.2658 -0.1638
    1BTD    C44 4356   0.777   0.744   6.099  0.3665 -0.1489  0.0959
    1BTD    C45 4357   0.820   0.711   5.953  0.1538  0.9297 -0.3393
    1BTD    C46 4358   0.709   0.694   5.853 -0.1100 -0.3744 -0.3705
    1BTD    C47 4359   0.737   0.886   6.107 -0.3625 -1.1394  0.3803
    1BTD    C48 4360   0.666   0.925   6.240 -0.1917 -0.1549 -0.4438
    1BTD    C49 4361   0.592   1.058   6.228 -0.3059  0.0512 -0.3186
    1BTD    C50 4362   0.516   1.083   6.359  0.4507  0.9651 -0.2046
    1BTD    C75 4363   1.173   0.751   6.113 -1.0611  0.3016 -1.0284
    1BTD    C76 4364   1.197   0.889   6.062  0.3646 -0.2735 -0.4059
    1BTD    C77 4365   1.094   0.990   6.116 -0.4216  0.3099  0.3405
    1BTD    C78 4366   1.132   1.142   6.090  0.1210  0.4978  0.0122
    1BTD    C79 4367   1.228   0.883   5.909  0.1926 -0.0198  0.6658
    1BTD    C80 4368   1.119   0.863   5.807  0.3218 -0.3931  0.2344
    1BTD    C81 4369   1.175   0.872   5.670  0.1551  0.5659 -0.0353
    1BTD    C82 4370   1.078   0.829   5.556 -0.7677  0.9092 -0.3157
    2TTP     S1 4371   0.772   0.221   6.359 -0.0888 -0.1598 -0.3122
    2TTP     S5 4372   0.558   0.515   6.130 -0.2155  0.0043  0.0163
    2TTP     C1 4373   0.446   0.376   6.166 -0.2192  0.0153  0.0473
    2TTP     C2 4374   0.505   0.277   6.238 -0.1803 -0.0347 -0.0523
    2TTP     C3 4375   0.642   0.307   6.269 -0.1462 -0.0835 -0.1566
    2TTP     C4 4376   0.885   0.360   6.323 -0.0851 -0.1707 -0.3432
    2TTP    C17 4377   0.825   0.459   6.250 -0.1240 -0.1207 -0.2436
    2TTP    C18 4378   0.688   0.428   6.220 -0.1581 -0.0719 -0.1392
    2TTP    C32 4379   0.445   0.147   6.294 -0.2252  0.2347 -0.2106
    2TTP    C33 4380   0.446   0.127   6.447  0.1976  0.8155 -0.0396
    2TTP    C34 4381   0.391  -0.005   6.488  0.3186  0.7002  0.1657
    2TTP    C35 4382   0.399  -0.038   6.636 -0.9912 -0.7317 -0.5039
    2TTP    C36 4383   0.353  -0.178   6.678  0.4803 -0.1286  0.1488
    2TTP    C37 4384   0.412  -0.303   6.610  0.1462 -0.0162  0.3174
    2TTP    C38 4385   0.563  -0.325   6.630 -0.2674 -0.3842  0.6050
    2TTP    C39 4386   0.624  -0.443   6.553  0.6932  0.3952  0.1587
    2TTP    C40 4387   0.601  -0.580   6.607  1.1592 -0.0034  0.2775
    2TTP    C41 4388   0.682  -0.691   6.530 -0.5256 -0.4219 -0.2675
    2TTP    C42 4389   0.648  -0.828   6.592 -0.3527 -0.9422 -0.1638
    3TTP     S1 4390   1.561   0.599   6.413  0.0197  0.1865  0.0148
    3TTP     S5 4391   1.507   0.943   6.160  0.1222 -0.1726 -0.5006
    3TTP     C1 4392   1.682   0.933   6.209  0.0706 -0.0105 -0.2800
    3TTP     C2 4393   1.709   0.827   6.289  0.0359  0.1100 -0.1076
    3TTP     C3 4394   1.593   0.748   6.316  0.0488  0.0786 -0.1440
    3TTP     C4 4395   1.386   0.608   6.364  0.0712  0.0243 -0.2059
    3TTP    C17 4396   1.359   0.715   6.283  0.1059 -0.0961 -0.3780
    3TTP    C18 4397   1.476   0.793   6.257  0.0930 -0.0647 -0.3420
    3TTP    C32 4398   1.837   0.775   6.349 -0.5470 -0.1539 -0.0780
    3TTP    C33 4399   1.849   0.768   6.501 -0.2015 -0.4241 -0.1087
    3TTP    C34 4400   1.836   0.891   6.591  0.8534  0.2397  0.2168
    3TTP    C35 4401   1.937   0.995   6.555 -0.1223 -0.7026  0.4791
    3TTP    C36 4402   1.910   1.121   6.638  0.0317 -0.9746  0.0841
    3TTP    C37 4403   2.017   1.233   6.621  0.1598  0.1587  0.9243
    3TTP    C38 4404   2.013   1.299   6.482 -0.3475  0.3070  0.1743
    3TTP    C39 4405   2.134   1.394   6.454  0.5295  0.8892  0.1803
    3TTP    C40 4406   2.139   1.421   6.309 -0.2393  0.0493 -0.1535
    3TTP    C41 4407   2.252   1.520   6.297  0.7019 -0.0286  0.0331
    3TTP    C42 4408   2.241   1.580   6.156  0.2982 -0.1968  0.1159
    4BIM     F1 4409  -0.002   0.748   5.593 -0.2303 -0.1750 -0.1711
    4BIM     F2 4410  -0.225   0.646   5.711 -0.1619 -0.0123  0.1014
    4BIM     O1 4411   0.385   0.534   5.905 -0.0167 -0.2632 -0.4960
    4BIM     N5 4412  -0.270   0.346   6.102  0.0887  0.1587  0.2618
    4BIM     N6 4413   0.077   0.199   6.322  0.2418  0.0570 -0.0470
    4BIM    C19 4414   0.309   0.360   6.128  0.1246 -0.1392 -0.3508
    4BIM    C20 4415   0.221   0.418   6.045  0.0682 -0.1233 -0.2798
    4BIM    C21 4416   0.267   0.506   5.933 -0.0028 -0.1904 -0.3620
    4BIM    C22 4417   0.146   0.552   5.863 -0.0519 -0.1524 -0.2524
    4BIM    C23 4418   0.139   0.636   5.752 -0.1236 -0.1902 -0.2764
    4BIM    C24 4419   0.012   0.666   5.703 -0.1592 -0.1415 -0.1553
    4BIM    C25 4420  -0.103   0.613   5.764 -0.1240 -0.0577 -0.0150
    4BIM    C26 4421  -0.096   0.529   5.874 -0.0522 -0.0196  0.0098
    4BIM    C27 4422   0.031   0.498   5.925 -0.0153 -0.0678 -0.1113
    4BIM    C28 4423   0.072   0.413   6.040  0.0598 -0.0467 -0.1228
    4BIM    C29 4424  -0.011   0.344   6.125  0.1118  0.0295 -0.0093
    4BIM    C30 4425  -0.153   0.346   6.112  0.0989  0.1003  0.1394
    4BIM    C31 4426   0.038   0.265   6.233  0.1830  0.0442 -0.0308
    5BIM     F1 4427   1.773   1.568   5.691  0.0881  0.2109  0.0587
    5BIM     F2 4428   2.042   1.536   5.713  0.0821  0.3757  0.3797
    5BIM     O1 4429   1.597   1.175   6.019 -0.0705 -0.1871 -0.5007
    5BIM     N5 4430   2.304   1.211   5.978 -0.0398  0.3290  0.4427
    5BIM     N6 4431   2.112   0.910   6.230 -0.1625 -0.0152 -0.0589
    5BIM    C19 4432   1.792   1.005   6.156 -0.1327 -0.1710 -0.3926
    5BIM    C20 4433   1.826   1.105   6.073 -0.0925 -0.0773 -0.2644
    5BIM    C21 4434   1.720   1.188   6.006 -0.0624 -0.0926 -0.3312
    5BIM    C22 4435   1.790   1.287   5.923 -0.0218  0.0260 -0.1562
    5BIM    C23 4436   1.734   1.386   5.842  0.0156  0.0563 -0.1452
    5BIM    C24 4437   1.822   1.468   5.773  0.0501  0.1747  0.0370
    5BIM    C25 4438   1.960   1.452   5.784  0.0469  0.2594  0.2022
    5BIM    C26 4439   2.017   1.354   5.864  0.0096  0.2298  0.1923
    5BIM    C27 4440   1.930   1.269   5.936 -0.0256  0.1104  0.0092
    5BIM    C28 4441   1.957   1.157   6.028 -0.0692  0.0503 -0.0508
    5BIM    C29 4442   2.081   1.110   6.066 -0.0849  0.1029  0.0689
    5BIM    C30 4443   2.203   1.166   6.018 -0.0600  0.2270  0.2741
    5BIM    C31 4444   2.098   1.000   6.156 -0.1276  0.0376 -0.0021
    1BTD     S2 4445   4.693   3.148   2.465  0.3384 -0.0472  0.2422
    1BTD     N1 4446   4.642   3.035   2.595  0.1346  0.3175  0.4831
    1BTD     N2 4447   4.531   3.156   2.388  0.4922 -0.3733 -0.1222
    1BTD     N3 4448   4.108   2.968   2.466  0.4376 -0.3793 -0.4301
    1BTD     N4 4449   4.245   2.819   2.721 -0.0030  0.4718  0.3158
    1BTD     C5 4450   4.433   2.924   2.658  0.0681  0.3877  0.3867
    1BTD     C6 4451   4.513   3.010   2.575  0.1889  0.1843  0.2894
    1BTD     C7 4452   4.451   3.078   2.460  0.3891 -0.2024 -0.0494
    1BTD     C8 4453   4.312   3.056   2.432  0.4584 -0.3662 -0.2739
    1BTD    C15 4454   4.237   2.971   2.515  0.3348 -0.1564 -0.1679
    1BTD    C16 4455   4.297   2.905   2.627  0.1421  0.2162  0.1585
    1BTD    C43 4456   4.127   2.731   2.715  0.2733 -0.0004  0.4335
    1BTD    C44 4457   4.167   2.588   2.661 -0.7123 -0.6235 -0.9503
    1BTD    C45 4458   4.072   2.476   2.709  0.2967 -0.7076 -0.1344
    1BTD    C46 4459   3.917   2.495   2.668 -0.2831  0.0543  0.1042
    1BTD    C47 4460   4.203   2.588   2.514 -0.2940  0.7035 -0.0809
    1BTD    C48 4461   4.263   2.459   2.452  0.9272  0.5129  0.4293
    1BTD    C49 4462   4.388   2.412   2.519 -0.1392 -0.0292  0.3233
    1BTD    C50 4463   4.416   2.268   2.475  0.6853  0.2518 -0.5291
    1BTD    C75 4464   3.983   2.971   2.545 -0.4430 -0.2799 -0.3155
    1BTD    C76 4465   3.843   2.922   2.498 -0.6557  0.5742  0.0753
    1BTD    C77 4466   3.839   2.772   2.459 -0.3925  0.5471  0.4221
    1BTD    C78 4467   3.930   2.726   2.344  0.7906 -0.6859 -0.3180
    1BTD    C79 4468   3.733   2.964   2.589  0.6171  0.3997  0.1041
    1BTD    C80 4469   3.733   2.911   2.735  0.3759 -0.2197  0.1839
    1BTD    C81 4470   3.620   2.960   2.827  0.3005 -0.4232  0.7330
    1BTD    C82 4471   3.598   3.111   2.851 -0.0213  0.4525  0.1608
    2TTP     S1 4472   4.600   2.787   2.871 -0.0992 -0.0061 -0.0159
    2TTP     S5 4473   4.243   2.605   3.029  0.0279  0.0155  0.2992
    2TTP     C1 4474   4.385   2.549   3.128  0.1169 -0.0217  0.1512
    2TTP     C2 4475   4.504   2.602   3.085  0.0829 -0.0306  0.0452
    2TTP     C3 4476   4.487   2.688   2.972 -0.0147 -0.0083  0.0769
    2TTP     C4 4477   4.458   2.843   2.773 -0.1880  0.0312  0.1320
    2TTP    C17 4478   4.339   2.790   2.815 -0.1539  0.0400  0.2380
    2TTP    C18 4479   4.356   2.703   2.928 -0.0565  0.0177  0.2062
    2TTP    C32 4480   4.639   2.592   3.155  0.0321  0.2930 -0.1562
    2TTP    C33 4481   4.714   2.462   3.142 -0.2686 -0.6303  0.1682
    2TTP    C34 4482   4.778   2.439   3.002 -0.5002  0.5028 -0.2703
    2TTP    C35 4483   4.823   2.297   2.964 -0.2037 -0.2797  0.3408
    2TTP    C36 4484   4.903   2.304   2.834  0.4483 -0.9407  0.0323
    2TTP    C37 4485   5.024   2.402   2.818  0.0329  1.0510  0.0526
    2TTP    C38 4486   5.064   2.417   2.670  0.5008  0.4441 -0.4930
    2TTP    C39 4487   5.179   2.508   2.653 -0.3638 -0.1434  0.2882
    2TTP    C40 4488   5.250   2.512   2.518 -0.5448  0.1236  0.2190
    2TTP    C41 4489   5.372   2.616   2.512 -0.1494  0.5800  0.1872
    2TTP    C42 4490   5.438   2.609   2.374  0.0811 -0.0790  0.0037
    3TTP     S1 4491   4.233   3.184   2.168 -0.1387  0.1549  0.0270
    3TTP     S5 4492   3.839   3.013   2.199 -0.1084  0.0814  0.0094
    3TTP     C1 4493   3.851   3.103   2.041 -0.2148  0.3320  0.1428
    3TTP     C2 4494   3.973   3.161   2.022 -0.2304  0.3694  0.1562
    3TTP     C3 4495   4.062   3.137   2.132 -0.1589  0.2016  0.0614
    3TTP     C4 4496   4.221   3.094   2.326 -0.0323 -0.0957 -0.1065
    3TTP    C17 4497   4.098   3.036   2.344 -0.0167 -0.1331 -0.1198
    3TTP    C18 4498   4.010   3.060   2.235 -0.0881  0.0347 -0.0250
    3TTP    C32 4499   4.039   3.240   1.911  0.0283 -0.1629  0.5270
    3TTP    C33 4500   4.057   3.394   1.913  0.0135 -0.0874 -0.1807
    3TTP    C34 4501   4.112   3.440   1.777 -0.3355  0.2358  0.3392
    3TTP    C35 4502   4.118   3.590   1.772  0.6607  0.3676  0.4480
    3TTP    C36 4503   4.164   3.664   1.642 -0.1843 -0.0614 -0.8337
    3TTP    C37 4504   4.100   3.637   1.510 -0.1768  0.1266 -0.7813
    3TTP    C38 4505   3.950   3.639   1.501  0.3151  0.4850 -0.4132
    3TTP    C39 4506   3.908   3.667   1.354  0.2501  0.4172 -1.1831
    3TTP    C40 4507   3.758   3.653   1.344  0.5154  0.9396  1.0121
    3TTP    C41 4508   3.697   3.724   1.220  0.4455 -0.3317  0.0067
    3TTP    C42 4509   3.542   3.712   1.215 -0.0088  0.3365 -0.5076
    4BIM     F1 4510   3.817   2.425   3.703  0.0789 -0.1168  0.2220
    4BIM     F2 4511   3.921   2.176   3.742  0.1009 -0.1298  0.0799
    4BIM     O1 4512   4.160   2.623   3.335 -0.0601  0.0494  0.1817
    4BIM     N5 4513   4.315   1.960   3.535  0.0334 -0.0303 -0.1532
    4BIM     N6 4514   4.563   2.166   3.239 -0.0796  0.1022 -0.1560
    4BIM    C19 4515   4.382   2.456   3.241 -0.0884  0.0959  0.0316
    4BIM    C20 4516   4.291   2.416   3.332 -0.0544  0.0546  0.0473
    4BIM    C21 4517   4.180   2.508   3.375 -0.0417  0.0329  0.1259
    4BIM    C22 4518   4.101   2.433   3.474 -0.0037 -0.0114  0.1231
    4BIM    C23 4519   3.988   2.477   3.543  0.0196 -0.0438  0.1823
    4BIM    C24 4520   3.929   2.388   3.632  0.0546 -0.0833  0.1661
    4BIM    C25 4521   3.983   2.260   3.652  0.0658 -0.0900  0.0929
    4BIM    C26 4522   4.096   2.216   3.584  0.0429 -0.0579  0.0336
    4BIM    C27 4523   4.156   2.304   3.493  0.0074 -0.0177  0.0489
    4BIM    C28 4524   4.276   2.289   3.406 -0.0235  0.0227 -0.0007
    4BIM    C29 4525   4.356   2.177   3.397 -0.0232  0.0291 -0.0765
    4BIM    C30 4526   4.333   2.059   3.473  0.0080 -0.0036 -0.1184
    4BIM    C31 4527   4.469   2.172   3.310 -0.0542  0.0693 -0.1198
    5BIM     F1 4528   3.129   2.741   1.929 -0.1161  0.1947  0.2245
    5BIM     F2 4529   3.066   2.935   1.749  0.0487  0.0323 -0.0080
    5BIM     O1 4530   3.632   2.885   2.066 -0.0594  0.0352  0.1848
    5BIM     N5 4531   3.336   3.317   1.587  0.3263 -0.3150 -0.3705
    5BIM     N6 4532   3.742   3.391   1.731  0.3374 -0.4069 -0.3547
    5BIM    C19 4533   3.751   3.122   1.943  0.1183 -0.1766 -0.0514
    5BIM    C20 4534   3.627   3.078   1.915  0.0976 -0.1302 -0.0324
    5BIM    C21 4535   3.573   2.956   1.983  0.0048 -0.0210  0.0918
    5BIM    C22 4536   3.436   2.936   1.931  0.0053  0.0053  0.0805
    5BIM    C23 4537   3.346   2.835   1.964 -0.0656  0.0982  0.1714
    5BIM    C24 4538   3.222   2.837   1.901 -0.0490  0.1051  0.1391
    5BIM    C25 4539   3.191   2.937   1.808  0.0359  0.0212  0.0192
    5BIM    C26 4540   3.280   3.038   1.774  0.1070 -0.0716 -0.0720
    5BIM    C27 4541   3.406   3.038   1.837  0.0915 -0.0800 -0.0409
    5BIM    C28 4542   3.522   3.129   1.824  0.1517 -0.1668 -0.1151
    5BIM    C29 4543   3.530   3.240   1.742  0.2404 -0.2624 -0.2370
    5BIM    C30 4544   3.423   3.282   1.657  0.2872 -0.2909 -0.3100
    5BIM    C31 4545   3.647   3.322   1.736  0.2931 -0.3414 -0.3010
    1BTD     S2 4546   1.687   5.711   7.058 -0.0308 -0.0699 -0.1714
    1BTD     N1 4547   1.865   5.701   7.082 -0.0333 -0.0874 -0.1602
    1BTD     N2 4548   1.653   5.550   7.130 -0.0583 -0.0362 -0.1090
    1BTD     N3 4549   1.905   5.203   7.321 -0.1188  0.0006  0.0385
    1BTD     N4 4550   2.166   5.389   7.262 -0.0881 -0.0625 -0.0244
    1BTD     C5 4551   2.019   5.536   7.177 -0.0623 -0.0737 -0.0885
    1BTD     C6 4552   1.889   5.584   7.140 -0.0535 -0.0682 -0.1129
    1BTD     C7 4553   1.770   5.500   7.167 -0.0674 -0.0396 -0.0844
    1BTD     C8 4554   1.788   5.371   7.229 -0.0895 -0.0179 -0.0328
    1BTD    C15 4555   1.917   5.328   7.263 -0.0974 -0.0241 -0.0106
    1BTD    C16 4556   2.032   5.409   7.238 -0.0839 -0.0516 -0.0380
    1BTD    C43 4557   2.218   5.313   7.375 -0.5093 -0.3043 -0.1626
    1BTD    C44 4558   2.363   5.259   7.373  0.0207  0.0817 -0.2854
    1BTD    C45 4559   2.414   5.214   7.511 -0.5832 -0.4178  0.2052
    1BTD    C46 4560   2.406   5.321   7.623  0.1320  0.3549  0.5520
    1BTD    C47 4561   2.391   5.159   7.262  0.5353 -0.1725  0.3874
    1BTD    C48 4562   2.540   5.116   7.240  0.0095 -0.0006 -0.3727
    1BTD    C49 4563   2.547   5.028   7.115  0.3966 -0.4172 -0.2240
    1BTD    C50 4564   2.692   5.012   7.083  0.1137  0.0807 -0.4771
    1BTD    C75 4565   2.001   5.090   7.315 -0.5914  0.1661  0.0007
    1BTD    C76 4566   2.017   4.974   7.410  0.6825  0.5121  0.6002
    1BTD    C77 4567   2.097   5.003   7.544 -0.0761  0.6886  0.0585
    1BTD    C78 4568   2.098   4.888   7.642 -1.0710  0.1808  0.1322
    1BTD    C79 4569   2.054   4.848   7.316  0.1235  0.5995 -0.2298
    1BTD    C80 4570   2.195   4.839   7.267 -0.1337  0.1118  0.1214
    1BTD    C81 4571   2.238   4.701   7.219 -0.1734  0.0362 -0.4580
    1BTD    C82 4572   2.391   4.690   7.188 -0.1617 -0.0126 -0.0616
    2TTP     S1 4573   2.228   5.743   7.092 -0.0132 -0.0533 -0.3752
    2TTP     S5 4574   2.539   5.484   7.236  0.2571  0.5866  0.2080
    2TTP     C1 4575   2.616   5.630   7.160  0.1011  0.6319  0.1361
    2TTP     C2 4576   2.525   5.719   7.111  0.0084  0.4370 -0.0483
    2TTP     C3 4577   2.391   5.675   7.132  0.0573  0.2449 -0.1395
    2TTP     C4 4578   2.151   5.597   7.168  0.1429 -0.0985 -0.3033
    2TTP    C17 4579   2.243   5.508   7.217  0.2355  0.0965 -0.1191
    2TTP    C18 4580   2.377   5.552   7.196  0.1867  0.2886 -0.0280
    2TTP    C32 4581   2.555   5.849   7.030 -0.2157 -0.4273  0.1764
    2TTP    C33 4582   2.507   5.976   7.101 -0.4730 -0.0651  0.4573
    2TTP    C34 4583   2.492   6.108   7.024 -0.0315 -0.2213 -0.4253
    2TTP    C35 4584   2.611   6.154   6.937 -0.0861  0.6926  0.7165
    2TTP    C36 4585   2.590   6.282   6.853  0.6700 -0.0734  0.0322
    2TTP    C37 4586   2.573   6.418   6.937  0.2069  0.1557  0.3712
    2TTP    C38 4587   2.678   6.453   7.043  0.2971  0.4764 -0.1095
    2TTP    C39 4588   2.821   6.444   6.985 -0.5734 -0.2731 -0.2731
    2TTP    C40 4589   2.925   6.506   7.075  0.0787  0.6375  0.5466
    2TTP    C41 4590   3.062   6.477   7.019  1.0127 -0.3571 -0.2792
    2TTP    C42 4591   3.168   6.539   7.111  0.4534 -0.6297  0.5019
    3TTP     S1 4592   1.519   5.236   7.269  0.1397 -0.0949  0.1290
    3TTP     S5 4593   1.711   4.923   7.493  0.1655 -0.1924 -0.0290
    3TTP     C1 4594   1.531   4.895   7.496  0.1625 -0.1691  0.0162
    3TTP     C2 4595   1.461   4.989   7.427  0.1543 -0.1377  0.0676
    3TTP     C3 4596   1.547   5.088   7.369  0.1502 -0.1307  0.0732
    3TTP     C4 4597   1.699   5.265   7.266  0.1427 -0.1183  0.0840
    3TTP    C17 4598   1.768   5.170   7.335  0.1508 -0.1496  0.0325
    3TTP    C18 4599   1.683   5.071   7.393  0.1550 -0.1565  0.0268
    3TTP    C32 4600   1.312   5.012   7.419  0.7039  0.0082 -0.0009
    3TTP    C33 4601   1.242   5.013   7.285  0.2204  0.3387  0.3613
    3TTP    C34 4602   1.098   5.045   7.295  0.6330  1.3486 -0.8273
    3TTP    C35 4603   1.040   5.080   7.162  0.0937 -0.8205  0.1743
    3TTP    C36 4604   0.895   5.114   7.173  0.7807  0.2258  0.1771
    3TTP    C37 4605   0.821   5.166   7.039  0.0206 -0.7940  0.3989
    3TTP    C38 4606   0.871   5.297   6.992 -0.4006  0.3030 -0.1490
    3TTP    C39 4607   0.827   5.340   6.850  0.0642 -0.1735 -0.4624
    3TTP    C40 4608   0.850   5.493   6.818 -0.6090  0.4520  0.1611
    3TTP    C41 4609   0.816   5.520   6.667 -0.1957 -0.3366 -0.7945
    3TTP    C42 4610   0.792   5.671   6.644  0.1767 -0.0481 -0.1057
    4BIM     F1 4611   3.313   5.299   7.455 -0.0695  0.0844  0.0516
    4BIM     F2 4612   3.455   5.481   7.311 -0.0373 -0.0589 -0.0978
    4BIM     O1 4613   2.806   5.439   7.325 -0.0461  0.1123 -0.0095
    4BIM     N5 4614   3.299   5.842   7.011  0.0258 -0.2453 -0.3561
    4BIM     N6 4615   2.874   5.915   6.939  0.0377 -0.1948 -0.3737
    4BIM    C19 4616   2.762   5.663   7.141 -0.0069 -0.0149 -0.1738
    4BIM    C20 4617   2.884   5.620   7.180 -0.0141 -0.0163 -0.1528
    4BIM    C21 4618   2.899   5.505   7.275 -0.0343  0.0514 -0.0670
    4BIM    C22 4619   3.043   5.485   7.295 -0.0375  0.0309 -0.0651
    4BIM    C23 4620   3.106   5.390   7.375 -0.0541  0.0755  0.0013
    4BIM    C24 4621   3.245   5.391   7.378 -0.0536  0.0438 -0.0114
    4BIM    C25 4622   3.318   5.485   7.304 -0.0369 -0.0304 -0.0884
    4BIM    C26 4623   3.256   5.580   7.224 -0.0203 -0.0750 -0.1550
    4BIM    C27 4624   3.116   5.581   7.219 -0.0206 -0.0439 -0.1432
    4BIM    C28 4625   3.021   5.667   7.145 -0.0055 -0.0757 -0.2000
    4BIM    C29 4626   3.053   5.771   7.061  0.0129 -0.1467 -0.2812
    4BIM    C30 4627   3.188   5.810   7.034  0.0199 -0.2007 -0.3221
    4BIM    C31 4628   2.954   5.850   6.994  0.0263 -0.1729 -0.3318
    5BIM     F1 4629   1.739   4.234   7.941  0.2283 -0.0726 -0.1339
    5BIM     F2 4630   1.492   4.130   7.888  0.1481  0.0033  0.0882
    5BIM     O1 4631   1.706   4.710   7.686  0.1460 -0.0638 -0.1074
    5BIM     N5 4632   1.115   4.321   7.631 -0.0257  0.1187  0.4264
    5BIM     N6 4633   1.140   4.714   7.442 -0.0739  0.1100  0.4022
    5BIM    C19 4634   1.459   4.781   7.545  0.0402  0.0117  0.1140
    5BIM    C20 4635   1.477   4.665   7.611  0.0640  0.0067  0.0987
    5BIM    C21 4636   1.607   4.636   7.681  0.1185 -0.0333 -0.0179
    5BIM    C22 4637   1.593   4.502   7.743  0.1324 -0.0283 -0.0042
    5BIM    C23 4638   1.687   4.433   7.818  0.1790 -0.0571 -0.0883
    5BIM    C24 4639   1.650   4.308   7.866  0.1832 -0.0455 -0.0549
    5BIM    C25 4640   1.523   4.255   7.838  0.1419 -0.0065  0.0596
    5BIM    C26 4641   1.429   4.324   7.763  0.0953  0.0224  0.1441
    5BIM    C27 4642   1.464   4.450   7.714  0.0903  0.0112  0.1118
    5BIM    C28 4643   1.388   4.548   7.632  0.0466  0.0343  0.1796
    5BIM    C29 4644   1.260   4.533   7.585 -0.0009  0.0738  0.2952
    5BIM    C30 4645   1.181   4.416   7.610 -0.0144  0.0982  0.3669
    5BIM    C31 4646   1.195   4.633   7.506 -0.0408  0.0935  0.3532
    1BTD     S2 4647   0.544   4.533   2.021 -0.0395 -0.1077 -0.2567
    1BTD     N1 4648   0.701   4.462   2.072 -0.2818 -0.1707  0.4268
    1BTD     N2 4649   0.482   4.382   1.946  0.3548  0.0086 -0.8335
    1BTD     N3 4650   0.640   3.944   1.886  0.7210  0.1318 -0.7744
    1BTD     N4 4651   0.910   4.043   2.040 -0.0633 -0.0890  0.7786
    1BTD     C5 4652   0.806   4.242   2.053 -0.1583 -0.1254  0.5918
    1BTD     C6 4653   0.699   4.335   2.032 -0.0673 -0.1051  0.2016
    1BTD     C7 4654   0.577   4.290   1.962  0.2890 -0.0049 -0.5038
    1BTD     C8 4655   0.568   4.154   1.917  0.5365  0.0701 -0.7839
    1BTD    C15 4656   0.675   4.066   1.940  0.4359  0.0471 -0.3831
    1BTD    C16 4657   0.793   4.110   2.007  0.0926 -0.0497  0.2966
    1BTD    C43 4658   0.965   3.931   1.963  0.0912 -0.3269  0.1358
    1BTD    C44 4659   1.062   3.818   2.013 -0.1139 -0.2571  0.7307
    1BTD    C45 4660   1.026   3.724   2.128 -0.1502  0.1326  0.0229
    1BTD    C46 4661   0.986   3.762   2.268 -0.1403 -0.1473 -0.4650
    1BTD    C47 4662   1.096   3.726   1.894 -0.2594 -0.0902 -0.3318
    1BTD    C48 4663   1.207   3.620   1.906 -0.8861 -0.5703  0.1271
    1BTD    C49 4664   1.343   3.664   1.964  0.9579 -0.7776 -0.6902
    1BTD    C50 4665   1.462   3.565   1.961  0.5143 -0.1219  0.1252
    1BTD    C75 4666   0.671   3.818   1.960  0.3717 -0.3988 -1.0833
    1BTD    C76 4667   0.654   3.678   1.916 -0.4360  0.3928 -0.0192
    1BTD    C77 4668   0.677   3.576   2.031  0.1256 -0.4185  0.0323
    1BTD    C78 4669   0.609   3.600   2.168  0.6376 -0.3360 -0.0077
    1BTD    C79 4670   0.731   3.656   1.784  0.7246 -0.2592  0.4103
    1BTD    C80 4671   0.732   3.519   1.712 -0.4199  0.5498  1.2891
    1BTD    C81 4672   0.609   3.446   1.690 -0.1415  0.2866  0.3309
    1BTD    C82 4673   0.608   3.329   1.598  0.2225  0.0476  0.1318
    2TTP     S1 4674   1.029   4.372   2.214  0.2008 -0.0477  0.1897
    2TTP     S5 4675   1.260   4.009   2.199  0.2923  0.0199 -0.0595
    2TTP     C1 4676   1.355   4.135   2.292  0.1846 -0.0734  0.1793
    2TTP     C2 4677   1.289   4.254   2.301  0.1500 -0.0999  0.2702
    2TTP     C3 4678   1.162   4.251   2.236  0.2073 -0.0471  0.1548
    2TTP     C4 4679   0.935   4.247   2.121  0.3085  0.0455 -0.0491
    2TTP    C17 4680   1.001   4.127   2.112  0.3431  0.0721 -0.1401
    2TTP    C18 4681   1.128   4.131   2.177  0.2858  0.0197 -0.0245
    2TTP    C32 4682   1.342   4.375   2.381  0.6755  0.2727  0.3129
    2TTP    C33 4683   1.379   4.499   2.299  0.2232  1.0995 -0.1088
    2TTP    C34 4684   1.334   4.623   2.367 -0.2207  0.9006 -0.3497
    2TTP    C35 4685   1.372   4.752   2.293  0.0079 -0.0294  0.0107
    2TTP    C36 4686   1.520   4.793   2.306  0.7374 -0.0308 -0.3672
    2TTP    C37 4687   1.559   4.910   2.217 -0.1211  0.2177 -0.6779
    2TTP    C38 4688   1.705   4.963   2.234  0.1246  0.2594  0.0813
    2TTP    C39 4689   1.731   5.040   2.359 -0.1242  0.4050 -0.0029
    2TTP    C40 4690   1.871   5.101   2.361  0.1183  0.6739 -0.0475
    2TTP    C41 4691   1.896   5.198   2.476  0.4026 -0.2388  0.0941
    2TTP    C42 4692   2.038   5.257   2.468 -0.3417  0.3037  0.1790
    3TTP     S1 4693   0.320   4.127   1.756  0.3118  0.0388 -0.1389
    3TTP     S5 4694   0.417   3.715   1.684  0.0381 -0.0511  0.0043
    3TTP     C1 4695   0.264   3.754   1.594  0.1034  0.0386 -0.0675
    3TTP     C2 4696   0.225   3.884   1.611  0.1917  0.0718 -0.1159
    3TTP     C3 4697   0.315   3.957   1.696  0.2111  0.0274 -0.0981
    3TTP     C4 4698   0.473   4.088   1.846  0.2465 -0.0510 -0.0671
    3TTP    C17 4699   0.512   3.958   1.829  0.1581 -0.0840 -0.0187
    3TTP    C18 4700   0.423   3.885   1.744  0.1388 -0.0397 -0.0365
    3TTP    C32 4701   0.103   3.950   1.544  0.0642  0.6058  0.6815
    3TTP    C33 4702   0.151   4.038   1.424  0.5882  0.2936 -0.3881
    3TTP    C34 4703   0.081   4.172   1.414 -0.0339  0.0416 -0.0308
    3TTP    C35 4704   0.139   4.264   1.308  0.3715  0.1150 -0.1218
    3TTP    C36 4705   0.079   4.402   1.314 -0.5100 -0.4007  0.0021
    3TTP    C37 4706   0.095   4.464   1.179 -0.4214  0.4059  0.2441
    3TTP    C38 4707   0.006   4.584   1.153  0.3914  0.1343  0.0514
    3TTP    C39 4708  -0.027   4.609   1.006 -0.0730  0.0749 -0.1026
    3TTP    C40 4709  -0.140   4.709   0.994  0.7330  0.0238 -0.6887
    3TTP    C41 4710  -0.204   4.721   0.854 -0.3618  0.1329  0.0582
    3TTP    C42 4711  -0.333   4.814   0.850 -0.2997 -0.1098  0.6174
    4BIM     F1 4712   1.807   3.494   2.528  0.1569  0.1243 -0.1317
    4BIM     F2 4713   2.020   3.662   2.556  0.0060  0.2846  0.0607
    4BIM     O1 4714   1.423   3.842   2.369 -0.0685 -0.0960 -0.0699
    4BIM     N5 4715   2.052   4.150   2.483 -0.3719  0.3579  0.3814
    4BIM     N6 4716   1.709   4.388   2.354 -0.5177  0.1532  0.3908
    4BIM    C19 4717   1.490   4.125   2.340 -0.2929 -0.0212  0.1358
    4BIM    C20 4718   1.579   4.031   2.378 -0.2303  0.0279  0.1127
    4BIM    C21 4719   1.537   3.888   2.391 -0.1157 -0.0153  0.0051
    4BIM    C22 4720   1.656   3.813   2.435 -0.0711  0.0567  0.0070
    4BIM    C23 4721   1.666   3.676   2.460  0.0324  0.0492 -0.0747
    4BIM    C24 4722   1.790   3.628   2.501  0.0561  0.1269 -0.0543
    4BIM    C25 4723   1.899   3.715   2.515 -0.0219  0.2094  0.0448
    4BIM    C26 4724   1.890   3.851   2.490 -0.1253  0.2174  0.1267
    4BIM    C27 4725   1.765   3.902   2.449 -0.1508  0.1394  0.1076
    4BIM    C28 4726   1.722   4.039   2.415 -0.2517  0.1251  0.1765
    4BIM    C29 4727   1.800   4.153   2.417 -0.3467  0.1893  0.2797
    4BIM    C30 4728   1.938   4.151   2.453 -0.3603  0.2817  0.3352
    4BIM    C31 4729   1.750   4.281   2.382 -0.4402  0.1692  0.3402
    5BIM     F1 4730   0.135   2.946   1.660  0.0719  0.0336  0.0577
    5BIM     F2 4731  -0.009   2.959   1.430 -0.2546  0.1494  0.2676
    5BIM     O1 4732   0.266   3.467   1.729  0.4154 -0.0421 -0.0221
    5BIM     N5 4733  -0.123   3.350   1.147 -0.4795  0.2617  0.5127
    5BIM     N6 4734   0.009   3.754   1.247 -0.1453  0.1792  0.4080
    5BIM    C19 4735   0.175   3.664   1.533  0.2253  0.0415  0.1502
    5BIM    C20 4736   0.148   3.533   1.525  0.1516  0.0560  0.1620
    5BIM    C21 4737   0.198   3.437   1.629  0.2579  0.0106  0.0697
    5BIM    C22 4738   0.151   3.303   1.590  0.1385  0.0410  0.1099
    5BIM    C23 4739   0.172   3.183   1.656  0.1774  0.0169  0.0535
    5BIM    C24 4740   0.117   3.069   1.600  0.0425  0.0545  0.1086
    5BIM    C25 4741   0.043   3.076   1.481 -0.1256  0.1140  0.2168
    5BIM    C26 4742   0.021   3.196   1.415 -0.1655  0.1383  0.2736
    5BIM    C27 4743   0.076   3.312   1.470 -0.0306  0.1010  0.2191
    5BIM    C28 4744   0.071   3.454   1.425 -0.0292  0.1126  0.2555
    5BIM    C29 4745   0.008   3.502   1.313 -0.1690  0.1658  0.3564
    5BIM    C30 4746  -0.064   3.418   1.222 -0.3393  0.2184  0.4419
    5BIM    C31 4747   0.009   3.640   1.278 -0.1550  0.1729  0.3842
    1BTD     S2 4748   9.350   2.784   3.110  0.0553 -0.2567 -0.2069
    1BTD     N1 4749   9.432   2.874   3.242  0.0961 -0.1450 -0.3085
    1BTD     N2 4750   9.388   2.622   3.177  0.0021 -0.1984 -0.0369
    1BTD     N3 4751   9.613   2.454   3.554 -0.0312  0.1220  0.1262
    1BTD     N4 4752   9.667   2.766   3.634  0.0846  0.1878 -0.2084
    1BTD     C5 4753   9.554   2.814   3.445  0.0887  0.0280 -0.2521
    1BTD     C6 4754   9.481   2.784   3.325  0.0696 -0.0737 -0.2152
    1BTD     C7 4755   9.456   2.642   3.289  0.0172 -0.1037 -0.0632
    1BTD     C8 4756   9.506   2.538   3.375 -0.0138 -0.0304  0.0442
    1BTD    C15 4757   9.577   2.572   3.492  0.0062  0.0683  0.0030
    1BTD    C16 4758   9.601   2.709   3.526  0.0569  0.0971 -0.1434
    1BTD    C43 4759   9.649   2.710   3.769  0.0659 -0.5338 -0.0290
    1BTD    C44 4760   9.729   2.745   3.896  0.4623 -0.0310 -0.1673
    1BTD    C45 4761   9.873   2.709   3.880 -0.3074  0.3028 -0.2315
    1BTD    C46 4762   9.972   2.736   3.996  0.7464 -0.3557 -0.0444
    1BTD    C47 4763   9.654   2.689   4.018 -0.3678  0.0251 -0.3334
    1BTD    C48 4764   9.655   2.536   4.049 -0.2179 -0.4519  0.2080
    1BTD    C49 4765   9.596   2.490   4.178 -0.4221  0.1753 -0.3724
    1BTD    C50 4766   9.660   2.552   4.305  0.4476 -0.3238  0.5211
    1BTD    C75 4767   9.708   2.420   3.662 -0.1473 -0.2119 -0.3090
    1BTD    C76 4768   9.860   2.398   3.636  0.4867  0.2019 -0.2488
    1BTD    C77 4769   9.914   2.486   3.521 -0.0392 -0.4594 -0.2601
    1BTD    C78 4770  10.060   2.461   3.476 -0.5757 -0.1273  0.3801
    1BTD    C79 4771   9.937   2.367   3.763 -0.8842 -0.2651  0.3797
    1BTD    C80 4772   9.885   2.250   3.846 -0.3537  0.0403  0.4589
    1BTD    C81 4773   9.912   2.234   3.995 -0.4063 -0.8898 -0.1842
    1BTD    C82 4774   9.854   2.103   4.046 -0.0472 -0.1751 -0.0687
    2TTP     S1 4775   9.611   3.119   3.463  0.2392  0.0135 -0.0571
    2TTP     S5 4776   9.844   3.038   3.816 -0.1267 -0.0119  0.1802
    2TTP     C1 4777   9.855   3.216   3.778 -0.1148 -0.0034  0.2239
    2TTP     C2 4778   9.784   3.251   3.667 -0.0011  0.0049  0.1532
    2TTP     C3 4779   9.718   3.139   3.608  0.0807  0.0049  0.0620
    2TTP     C4 4780   9.600   2.941   3.501  0.2273  0.0049 -0.1007
    2TTP    C17 4781   9.671   2.906   3.612  0.1136 -0.0033 -0.0301
    2TTP    C18 4782   9.737   3.018   3.671  0.0318 -0.0033  0.0612
    2TTP    C32 4783   9.770   3.395   3.599 -0.8139  0.5632 -0.2429
    2TTP    C33 4784   9.629   3.453   3.606 -0.2044  0.0899  0.0673
    2TTP    C34 4785   9.612   3.588   3.545 -0.2786 -0.0209 -1.0957
    2TTP    C35 4786   9.654   3.598   3.401 -0.5730  0.0270 -0.5608
    2TTP    C36 4787   9.638   3.741   3.344  0.1142  0.1139  0.1360
    2TTP    C37 4788   9.730   3.845   3.416  0.9932 -0.3073 -0.3761
    2TTP    C38 4789   9.870   3.815   3.441 -0.9147  0.2478 -0.0611
    2TTP    C39 4790   9.921   3.906   3.548  0.5226 -0.0089 -0.3948
    2TTP    C40 4791  10.065   3.868   3.596  0.1353 -0.0479  0.1774
    2TTP    C41 4792  10.102   3.975   3.699 -0.4003  0.3032  0.1692
    2TTP    C42 4793  10.252   3.954   3.738  0.3003  0.0978  0.6098
    3TTP     S1 4794   9.400   2.263   3.286  0.3323 -0.1236  0.0724
    3TTP     S5 4795   9.605   2.093   3.623 -0.0627 -0.1305  0.3110
    3TTP     C1 4796   9.512   1.961   3.540  0.0980 -0.1448  0.1508
    3TTP     C2 4797   9.443   2.006   3.431  0.2294 -0.1435  0.0677
    3TTP     C3 4798   9.461   2.146   3.409  0.2081 -0.1312  0.1276
    3TTP     C4 4799   9.494   2.395   3.369  0.1717 -0.1093  0.2326
    3TTP    C17 4800   9.563   2.350   3.478  0.0402 -0.1106  0.3157
    3TTP    C18 4801   9.544   2.210   3.500  0.0620 -0.1228  0.2558
    3TTP    C32 4802   9.357   1.919   3.332 -0.3011 -0.3118 -0.4335
    3TTP    C33 4803   9.411   1.925   3.185  0.2861  0.0667  0.3870
    3TTP    C34 4804   9.344   1.837   3.085 -0.0269  0.2098 -0.5932
    3TTP    C35 4805   9.197   1.817   3.080  0.0379  0.4039  0.2361
    3TTP    C36 4806   9.162   1.757   2.944  0.9269 -0.1581  0.1232
    3TTP    C37 4807   9.003   1.752   2.940 -0.8118  0.1554  0.2179
    3TTP    C38 4808   8.938   1.723   2.806 -0.4966  0.0397  0.3042
    3TTP    C39 4809   8.789   1.747   2.817 -0.0827  0.0642  0.2504
    3TTP    C40 4810   8.734   1.718   2.679  0.7438  0.2353 -0.1287
    3TTP    C41 4811   8.578   1.725   2.690  0.1082  0.4975  0.3762
    3TTP    C42 4812   8.529   1.723   2.544 -0.0572 -0.3982  0.0548
    4BIM     F1 4813  10.476   3.174   4.314  0.1055 -0.0977 -0.1193
    4BIM     F2 4814  10.484   3.447   4.316  0.0754 -0.0975  0.0097
    4BIM     O1 4815  10.069   3.085   3.969  0.0339  0.0227 -0.0662
    4BIM     N5 4816  10.204   3.774   4.072 -0.0190 -0.0113  0.2331
    4BIM     N6 4817   9.884   3.649   3.802 -0.0688  0.0827  0.2486
    4BIM    C19 4818   9.931   3.313   3.848 -0.0203  0.0656  0.0760
    4BIM    C20 4819  10.033   3.325   3.935 -0.0011  0.0354  0.0575
    4BIM    C21 4820  10.099   3.203   3.993  0.0263  0.0147 -0.0166
    4BIM    C22 4821  10.205   3.252   4.083  0.0421 -0.0165 -0.0184
    4BIM    C23 4822  10.293   3.175   4.159  0.0687 -0.0433 -0.0758
    4BIM    C24 4823  10.386   3.244   4.236  0.0793 -0.0703 -0.0648
    4BIM    C25 4824  10.390   3.384   4.237  0.0638 -0.0700  0.0016
    4BIM    C26 4825  10.302   3.460   4.161  0.0373 -0.0434  0.0591
    4BIM    C27 4826  10.208   3.393   4.082  0.0261 -0.0159  0.0490
    4BIM    C28 4827  10.102   3.444   3.991 -0.0011  0.0160  0.0984
    4BIM    C29 4828  10.074   3.576   3.964 -0.0221  0.0257  0.1685
    4BIM    C30 4829  10.146   3.684   4.024 -0.0203  0.0052  0.2037
    4BIM    C31 4830   9.970   3.615   3.875 -0.0477  0.0570  0.2122
    5BIM     F1 4831   9.891   1.511   4.111 -0.0057 -0.3288 -0.0352
    5BIM     F2 4832   9.754   1.294   4.022 -0.2067 -0.2440  0.0690
    5BIM     O1 4833   9.700   1.895   3.781  0.2742 -0.2883 -0.1506
    5BIM     N5 4834   9.419   1.255   3.659 -0.2961 -0.0933  0.1360
    5BIM     N6 4835   9.298   1.600   3.419 -0.0374 -0.0787  0.0247
    5BIM    C19 4836   9.501   1.824   3.579  0.1816 -0.1930 -0.0923
    5BIM    C20 4837   9.554   1.736   3.665  0.1187 -0.2064 -0.0674
    5BIM    C21 4838   9.656   1.780   3.766  0.1729 -0.2561 -0.1001
    5BIM    C22 4839   9.693   1.660   3.844  0.0813 -0.2588 -0.0604
    5BIM    C23 4840   9.784   1.651   3.948  0.0901 -0.2977 -0.0715
    5BIM    C24 4841   9.803   1.527   4.006 -0.0081 -0.2917 -0.0272
    5BIM    C25 4842   9.732   1.415   3.960 -0.1117 -0.2480  0.0264
    5BIM    C26 4843   9.640   1.423   3.856 -0.1211 -0.2090  0.0377
    5BIM    C27 4844   9.621   1.548   3.796 -0.0224 -0.2144 -0.0066
    5BIM    C28 4845   9.532   1.591   3.684 -0.0036 -0.1805 -0.0088
    5BIM    C29 4846   9.447   1.510   3.613 -0.0837 -0.1340  0.0352
    5BIM    C30 4847   9.432   1.370   3.638 -0.2005 -0.1118  0.0905
    5BIM    C31 4848   9.365   1.560   3.507 -0.0577 -0.1039  0.0291
    1BTD     S2 4849   5.885   8.728   0.873  0.1193 -0.0087 -0.1586
    1BTD     N1 4850   6.025   8.799   0.962  0.2779 -0.1798 -0.2711
    1BTD     N2 4851   5.928   8.558   0.914 -0.2258 -0.0448  0.0605
    1BTD     N3 4852   6.266   8.340   1.155 -0.6425 -0.4256  0.3042
    1BTD     N4 4853   6.386   8.637   1.214 -0.0219 -0.5918 -0.1044
    1BTD     C5 4854   6.212   8.711   1.093  0.1138 -0.3929 -0.1791
    1BTD     C6 4855   6.093   8.698   1.014  0.0758 -0.2503 -0.1459
    1BTD     C7 4856   6.038   8.563   0.987 -0.2060 -0.1752  0.0397
    1BTD     C8 4857   6.106   8.448   1.040 -0.4359 -0.2456  0.1828
    1BTD    C15 4858   6.223   8.466   1.117 -0.3890 -0.3849  0.1440
    1BTD    C16 4859   6.275   8.596   1.143 -0.1173 -0.4576 -0.0349
    1BTD    C43 4860   6.462   8.561   1.324 -0.1850 -0.2412 -0.5746
    1BTD    C44 4861   6.614   8.566   1.345  0.5187 -0.4033  0.1308
    1BTD    C45 4862   6.690   8.530   1.219 -0.3533  0.5606  0.1813
    1BTD    C46 4863   6.678   8.605   1.084 -0.2850  0.4739 -0.4943
    1BTD    C47 4864   6.659   8.485   1.477 -0.7150 -0.3623  0.4764
    1BTD    C48 4865   6.796   8.524   1.545  0.0578 -0.1462 -0.1637
    1BTD    C49 4866   6.818   8.672   1.578  0.4041  0.0444 -0.2455
    1BTD    C50 4867   6.902   8.701   1.696 -0.3952 -0.6548 -0.8949
    1BTD    C75 4868   6.408   8.295   1.165  0.8734  0.2452 -0.2559
    1BTD    C76 4869   6.479   8.225   1.045  0.3823 -0.2817 -0.1932
    1BTD    C77 4870   6.617   8.165   1.078  0.2706  0.7569 -0.2169
    1BTD    C78 4871   6.632   8.060   1.196  0.1557  0.1586 -0.3798
    1BTD    C79 4872   6.482   8.311   0.910 -0.4165  0.3780 -0.0576
    1BTD    C80 4873   6.515   8.237   0.780 -1.0922  0.5549 -0.2355
    1BTD    C81 4874   6.424   8.113   0.748  0.0538  0.4624  0.4472
    1BTD    C82 4875   6.275   8.145   0.728  0.3071  0.5143  0.5304
    2TTP     S1 4876   6.277   9.004   1.124  0.2253  0.3987 -0.2459
    2TTP     S5 4877   6.610   8.903   1.376 -0.5145 -0.0889  0.5498
    2TTP     C1 4878   6.599   9.084   1.364 -0.2208 -0.0721  0.5201
    2TTP     C2 4879   6.496   9.126   1.286  0.0250  0.0792  0.2727
    2TTP     C3 4880   6.421   9.016   1.232 -0.0099  0.1879  0.0975
    2TTP     C4 4881   6.287   8.823   1.136 -0.0685  0.3824 -0.2162
    2TTP    C17 4882   6.391   8.781   1.215 -0.3144  0.2305  0.0312
    2TTP    C18 4883   6.466   8.890   1.268 -0.2795  0.1223  0.2063
    2TTP    C32 4884   6.468   9.272   1.253 -0.1099 -0.3454  0.1704
    2TTP    C33 4885   6.497   9.300   1.106 -0.4918  0.4657 -0.0757
    2TTP    C34 4886   6.486   9.447   1.063 -0.0179  0.1337  0.3665
    2TTP    C35 4887   6.351   9.506   1.088  0.2627 -0.2789  0.5242
    2TTP    C36 4888   6.327   9.644   1.046 -0.2047 -0.4209  0.4325
    2TTP    C37 4889   6.178   9.675   1.032  0.5757  0.7179  0.4072
    2TTP    C38 4890   6.083   9.649   1.157 -0.1440  0.1454 -0.3056
    2TTP    C39 4891   5.937   9.703   1.133 -0.1678 -0.0051  0.0619
    2TTP    C40 4892   5.826   9.670   1.231 -0.0435 -0.0903  0.1440
    2TTP    C41 4893   5.778   9.790   1.312  0.1814  0.0534 -0.0264
    2TTP    C42 4894   5.673   9.759   1.419 -0.1783  0.2793  0.0919
    3TTP     S1 4895   5.962   8.191   0.956  0.0819 -0.0171  0.0004
    3TTP     S5 4896   6.252   7.962   1.176 -0.1246 -0.3177 -0.0396
    3TTP     C1 4897   6.137   7.847   1.094 -0.2131 -0.2002 -0.0810
    3TTP     C2 4898   6.041   7.911   1.022 -0.1545 -0.1005 -0.0711
    3TTP     C3 4899   6.055   8.053   1.028 -0.0376 -0.1132 -0.0304
    3TTP     C4 4900   6.077   8.306   1.038  0.1705 -0.1345  0.0418
    3TTP    C17 4901   6.174   8.242   1.110  0.1120 -0.2341  0.0319
    3TTP    C18 4902   6.160   8.100   1.104 -0.0048 -0.2215 -0.0088
    3TTP    C32 4903   5.922   7.849   0.945 -0.0556 -0.1088  0.0489
    3TTP    C33 4904   5.932   7.841   0.790 -0.6951  0.0047  0.3304
    3TTP    C34 4905   5.816   7.752   0.744  0.0596 -0.0213  0.4786
    3TTP    C35 4906   5.834   7.700   0.601  0.2345 -0.1399  0.0534
    3TTP    C36 4907   5.909   7.776   0.488  0.6020  0.1718  0.5870
    3TTP    C37 4908   5.837   7.891   0.417  0.5400 -0.6908  0.1759
    3TTP    C38 4909   5.849   8.026   0.493  0.1671  0.0183  0.3217
    3TTP    C39 4910   5.742   8.132   0.461 -0.1533  0.1602  0.3558
    3TTP    C40 4911   5.759   8.256   0.545  0.2424  0.5311 -0.8012
    3TTP    C41 4912   5.638   8.344   0.522  0.1163  0.0557  0.7162
    3TTP    C42 4913   5.647   8.463   0.608 -0.3083 -0.2181  0.2285
    4BIM     F1 4914   7.337   9.088   1.736 -0.0527 -0.0312  0.2145
    4BIM     F2 4915   7.295   9.349   1.800 -0.1296 -0.0613  0.2862
    4BIM     O1 4916   6.883   8.974   1.464  0.1447  0.0129 -0.1334
    4BIM     N5 4917   6.911   9.644   1.696 -0.0997 -0.0732  0.1412
    4BIM     N6 4918   6.565   9.502   1.471  0.0702 -0.0329 -0.1451
    4BIM    C19 4919   6.682   9.184   1.427  0.1413 -0.0004 -0.1885
    4BIM    C20 4920   6.798   9.202   1.493  0.0947 -0.0100 -0.1039
    4BIM    C21 4921   6.896   9.089   1.508  0.1000 -0.0024 -0.0807
    4BIM    C22 4922   7.010   9.143   1.585  0.0415 -0.0167  0.0163
    4BIM    C23 4923   7.126   9.076   1.623  0.0248 -0.0160  0.0684
    4BIM    C24 4924   7.220   9.148   1.695 -0.0332 -0.0310  0.1590
    4BIM    C25 4925   7.198   9.283   1.728 -0.0727 -0.0465  0.1958
    4BIM    C26 4926   7.083   9.350   1.690 -0.0564 -0.0474  0.1442
    4BIM    C27 4927   6.986   9.279   1.617  0.0019 -0.0319  0.0523
    4BIM    C28 4928   6.855   9.321   1.562  0.0333 -0.0286 -0.0201
    4BIM    C29 4929   6.798   9.445   1.573  0.0095 -0.0408 -0.0111
    4BIM    C30 4930   6.860   9.554   1.641 -0.0503 -0.0584  0.0726
    4BIM    C31 4931   6.670   9.476   1.516  0.0430 -0.0362 -0.0849
    5BIM     F1 4932   6.734   7.294   1.212  0.1875 -0.1259 -0.2968
    5BIM     F2 4933   6.547   7.098   1.190  0.0088 -0.0627  0.5897
    5BIM     O1 4934   6.429   7.735   1.134  0.3015 -0.1162 -0.6925
    5BIM     N5 4935   6.061   7.129   1.103 -0.1669  0.0350  1.5822
    5BIM     N6 4936   5.860   7.512   1.046 -0.0417  0.0298  1.0944
    5BIM    C19 4937   6.142   7.703   1.085  0.1713 -0.0527  0.0140
    5BIM    C20 4938   6.226   7.600   1.106  0.1496 -0.0573  0.0789
    5BIM    C21 4939   6.372   7.624   1.130  0.2203 -0.0908 -0.3010
    5BIM    C22 4940   6.434   7.492   1.148  0.1742 -0.0875 -0.1161
    5BIM    C23 4941   6.568   7.463   1.173  0.2120 -0.1119 -0.3412
    5BIM    C24 4942   6.603   7.330   1.187  0.1546 -0.1029 -0.0952
    5BIM    C25 4943   6.507   7.228   1.176  0.0626 -0.0703  0.3614
    5BIM    C26 4944   6.373   7.256   1.151  0.0246 -0.0459  0.5881
    5BIM    C27 4945   6.335   7.391   1.137  0.0814 -0.0545  0.3448
    5BIM    C28 4946   6.203   7.453   1.110  0.0626 -0.0347  0.4827
    5BIM    C29 4947   6.084   7.388   1.093 -0.0196 -0.0018  0.9043
    5BIM    C30 4948   6.072   7.246   1.098 -0.1004  0.0184  1.2756
    5BIM    C31 4949   5.961   7.457   1.067 -0.0314  0.0155  1.0064
    1BTD     S2 4950   0.858   0.852   9.360 -0.0307  0.0892 -0.2143
    1BTD     N1 4951   0.944   0.993   9.291 -0.0994  0.1400 -0.1967
    1BTD     N2 4952   0.719   0.862   9.247  0.0163 -0.0299 -0.2818
    1BTD     N3 4953   0.592   1.137   8.888 -0.0120 -0.1808 -0.3881
    1BTD     N4 4954   0.870   1.299   8.942 -0.1546  0.0285 -0.2830
    1BTD     C5 4955   0.902   1.151   9.108 -0.1265  0.0792 -0.2429
    1BTD     C6 4956   0.869   1.038   9.191 -0.0845  0.0692 -0.2398
    1BTD     C7 4957   0.743   0.965   9.166 -0.0197 -0.0258 -0.2875
    1BTD     C8 4958   0.656   1.007   9.060 -0.0002 -0.1062 -0.3359
    1BTD    C15 4959   0.693   1.119   8.981 -0.0428 -0.0930 -0.3375
    1BTD    C16 4960   0.814   1.190   9.005 -0.1053 -0.0013 -0.2912
    1BTD    C43 4961   0.853   1.337   8.801  0.1071  0.2781  0.0200
    1BTD    C44 4962   0.876   1.474   8.744 -0.0482  0.5986  0.4259
    1BTD    C45 4963   0.794   1.571   8.823 -0.2083 -0.4138 -0.0823
    1BTD    C46 4964   0.814   1.720   8.794 -0.1288  0.1759 -0.1364
    1BTD    C47 4965   0.863   1.480   8.592  0.4529  0.0879  0.1694
    1BTD    C48 4966   0.956   1.391   8.515  0.5021 -0.2787 -0.6719
    1BTD    C49 4967   0.930   1.441   8.373 -0.6839 -0.1135  0.2770
    1BTD    C50 4968   0.985   1.336   8.273 -0.0244  0.5338  0.1742
    1BTD    C75 4969   0.540   1.272   8.844 -0.7266 -0.7344  0.3220
    1BTD    C76 4970   0.462   1.295   8.714  0.3503 -0.1527 -0.0548
    1BTD    C77 4971   0.392   1.439   8.703 -0.2772  0.3200 -0.5332
    1BTD    C78 4972   0.283   1.477   8.813  0.2949 -0.0559  0.8381
    1BTD    C79 4973   0.557   1.267   8.601  0.1253  0.0128  0.2279
    1BTD    C80 4974   0.502   1.270   8.453  0.0509 -0.7206 -0.4526
    1BTD    C81 4975   0.608   1.225   8.360 -0.0693 -0.2794  0.0523
    1BTD    C82 4976   0.611   1.275   8.218  0.3118 -0.2555 -0.8905
    2TTP     S1 4977   1.162   1.268   9.205  0.1191 -0.1196 -0.0040
    2TTP     S5 4978   1.108   1.597   8.934 -0.1519 -0.0785  0.0992
    2TTP     C1 4979   1.253   1.632   9.039 -0.1237 -0.0355  0.0463
    2TTP     C2 4980   1.278   1.532   9.129 -0.0384 -0.0456  0.0114
    2TTP     C3 4981   1.184   1.425   9.118  0.0078 -0.0877  0.0250
    2TTP     C4 4982   1.017   1.234   9.100  0.0910 -0.1626  0.0486
    2TTP    C17 4983   0.992   1.333   9.010  0.0057 -0.1525  0.0837
    2TTP    C18 4984   1.086   1.440   9.021 -0.0406 -0.1104  0.0703
    2TTP    C32 4985   1.393   1.529   9.232  0.4977 -0.3698 -0.0454
    2TTP    C33 4986   1.443   1.398   9.285  0.0466  0.2023  0.2348
    2TTP    C34 4987   1.537   1.416   9.403  0.3788 -0.1423 -0.0803
    2TTP    C35 4988   1.594   1.286   9.454 -0.2565 -0.2624 -0.5382
    2TTP    C36 4989   1.667   1.296   9.584  0.0448  0.9227  0.1290
    2TTP    C37 4990   1.797   1.216   9.560 -0.4213 -0.4805 -0.4040
    2TTP    C38 4991   1.892   1.232   9.677 -0.9195  0.1828  0.5545
    2TTP    C39 4992   2.029   1.168   9.662  0.3356 -0.3009 -0.2260
    2TTP    C40 4993   2.106   1.186   9.790  0.5322  0.4446 -0.6370
    2TTP    C41 4994   2.253   1.138   9.780 -0.1708 -0.5412 -0.4246
    2TTP    C42 4995   2.345   1.206   9.887  0.0557 -0.0641  0.4708
    3TTP     S1 4996   0.426   0.816   9.048 -0.1140  0.2214  0.1072
    3TTP     S5 4997   0.287   1.016   8.694  0.0358 -0.0649 -0.1137
    3TTP     C1 4998   0.175   0.878   8.729  0.0034 -0.0177 -0.0316
    3TTP     C2 4999   0.212   0.808   8.841 -0.0447  0.0735  0.0415
    3TTP     C3 5000   0.329   0.861   8.902 -0.0578  0.1094  0.0355
    3TTP     C4 5001   0.538   0.955   9.012 -0.0816  0.1742  0.0250
    3TTP    C17 5002   0.502   1.025   8.901 -0.0335  0.0831 -0.0478
    3TTP    C18 5003   0.384   0.971   8.840 -0.0204  0.0471 -0.0417
    3TTP    C32 5004   0.136   0.687   8.896  0.4179  0.6581  0.2366
    3TTP    C33 5005   0.230   0.575   8.957 -0.4818 -0.4876 -0.4431
    3TTP    C34 5006   0.157   0.453   9.013 -0.3101 -0.4072  0.1267
    3TTP    C35 5007   0.247   0.362   9.097 -0.2125 -0.0893  0.0842
    3TTP    C36 5008   0.194   0.219   9.134 -0.7283 -0.0140 -0.3234
    3TTP    C37 5009   0.273   0.128   9.235 -0.6487 -0.7321 -0.3646
    3TTP    C38 5010   0.415   0.079   9.203  0.0869  0.5274  0.0288
    3TTP    C39 5011   0.531   0.183   9.236 -1.2273  0.7253  0.5321
    3TTP    C40 5012   0.537   0.257   9.377 -0.3170  0.3472  0.4383
    3TTP    C41 5013   0.668   0.340   9.411 -0.5588  0.1426 -0.4725
    3TTP    C42 5014   0.708   0.452   9.311  0.4602 -0.4246 -0.1590
    4BIM     F1 5015   1.198   2.381   8.683 -0.1203 -0.2369  0.0396
    4BIM     F2 5016   1.373   2.475   8.870 -0.2937  0.0082  0.0794
    4BIM     O1 5017   1.171   1.859   8.822  0.2654 -0.1924  0.2875
    4BIM     N5 5018   1.603   2.237   9.238 -0.2682  0.3924  0.3135
    4BIM     N6 5019   1.547   1.810   9.308  0.0681  0.3778  0.4992
    4BIM    C19 5020   1.327   1.762   9.050  0.2367  0.0577  0.4138
    4BIM    C20 5021   1.327   1.890   9.008  0.1464  0.0369  0.3495
    4BIM    C21 5022   1.244   1.932   8.890  0.1682 -0.0944  0.2873
    4BIM    C22 5023   1.268   2.076   8.871  0.0520 -0.0832  0.2267
    4BIM    C23 5024   1.212   2.160   8.774  0.0275 -0.1797  0.1574
    4BIM    C24 5025   1.249   2.293   8.776 -0.0897 -0.1462  0.1091
    4BIM    C25 5026   1.339   2.341   8.873 -0.1789 -0.0198  0.1296
    4BIM    C26 5027   1.395   2.259   8.970 -0.1550  0.0769  0.1986
    4BIM    C27 5028   1.358   2.123   8.969 -0.0370  0.0448  0.2484
    4BIM    C28 5029   1.399   2.011   9.057  0.0175  0.1236  0.3250
    4BIM    C29 5030   1.486   2.017   9.163 -0.0405  0.2524  0.3650
    4BIM    C30 5031   1.550   2.138   9.204 -0.1655  0.3290  0.3366
    4BIM    C31 5032   1.519   1.903   9.242  0.0196  0.3207  0.4387
    5BIM     F1 5033   0.051   0.909   7.920  0.0991 -0.2981 -0.0666
    5BIM     F2 5034  -0.210   0.849   7.966 -0.0465  0.3318 -0.0501
    5BIM     O1 5035   0.249   0.897   8.424  0.0243 -0.4139 -0.0398
    5BIM     N5 5036  -0.445   0.753   8.390 -0.3092  1.1551 -0.0069
    5BIM     N6 5037  -0.238   0.755   8.775 -0.3386  0.9376  0.0107
    5BIM    C19 5038   0.069   0.834   8.647 -0.1415  0.1469 -0.0144
    5BIM    C20 5039   0.030   0.840   8.518 -0.1170  0.1514 -0.0217
    5BIM    C21 5040   0.128   0.873   8.409 -0.0307 -0.1467 -0.0348
    5BIM    C22 5041   0.052   0.870   8.282 -0.0248 -0.0583 -0.0401
    5BIM    C23 5042   0.101   0.895   8.154  0.0433 -0.2551 -0.0520
    5BIM    C24 5043   0.010   0.887   8.049  0.0342 -0.1173 -0.0551
    5BIM    C25 5044  -0.125   0.855   8.073 -0.0409  0.2073 -0.0463
    5BIM    C26 5045  -0.173   0.831   8.201 -0.1092  0.4050 -0.0346
    5BIM    C27 5046  -0.083   0.839   8.308 -0.1011  0.2699 -0.0315
    5BIM    C28 5047  -0.102   0.819   8.454 -0.1607  0.4116 -0.0196
    5BIM    C29 5048  -0.220   0.787   8.517 -0.2410  0.7243 -0.0093
    5BIM    C30 5049  -0.344   0.768   8.447 -0.2785  0.9601 -0.0081
    5BIM    C31 5050  -0.229   0.770   8.659 -0.2942  0.8399  0.0019
    1BTD     S2 5051   5.216   4.599   3.813 -0.0454  0.0272  0.1760
    1BTD     N1 5052   5.201   4.445   3.905 -0.1110 -0.0139  0.0969
    1BTD     N2 5053   5.041   4.608   3.772 -0.0304  0.0892  0.1254
    1BTD     N3 5054   4.658   4.348   3.854 -0.1185  0.1407 -0.1206
    1BTD     N4 5055   4.856   4.147   4.018 -0.2177  0.0137 -0.1557
    1BTD     C5 5056   5.019   4.292   3.962 -0.1656  0.0021 -0.0346
    1BTD     C6 5057   5.073   4.410   3.901 -0.1180  0.0188  0.0398
    1BTD     C7 5058   4.984   4.501   3.826 -0.0728  0.0765  0.0557
    1BTD     C8 5059   4.844   4.470   3.817 -0.0775  0.1146 -0.0035
    1BTD    C15 5060   4.794   4.353   3.879 -0.1249  0.0962 -0.0754
    1BTD    C16 5061   4.881   4.265   3.950 -0.1683  0.0406 -0.0908
    1BTD    C43 5062   4.735   4.126   4.095  0.1860  0.1209 -0.0230
    1BTD    C44 5063   4.672   3.988   4.113 -0.3868  0.1320  0.3583
    1BTD    C45 5064   4.559   3.986   4.215 -0.2505 -0.4510  0.5076
    1BTD    C46 5065   4.574   4.056   4.353  0.1299 -0.4986 -0.0585
    1BTD    C47 5066   4.650   3.901   3.991  0.1980 -0.0503  0.5197
    1BTD    C48 5067   4.587   3.759   3.997  0.0379  0.0300 -0.0930
    1BTD    C49 5068   4.557   3.706   3.864 -0.0388  0.3998  0.0424
    1BTD    C50 5069   4.678   3.685   3.774  0.1185 -0.3315  0.2296
    1BTD    C75 5070   4.579   4.219   3.850  0.1123  0.3534  0.4669
    1BTD    C76 5071   4.430   4.212   3.873 -0.7701  0.4683 -0.3577
    1BTD    C77 5072   4.388   4.273   4.008 -0.2299 -0.1591 -0.5628
    1BTD    C78 5073   4.242   4.293   4.040  0.2496 -0.2663  0.3076
    1BTD    C79 5074   4.368   4.070   3.849 -0.1425 -0.5046 -0.1043
    1BTD    C80 5075   4.368   4.027   3.703  0.8212  0.1254 -0.0274
    1BTD    C81 5076   4.308   3.886   3.694 -0.0428 -0.3067 -0.1103
    1BTD    C82 5077   4.288   3.830   3.553 -0.0676 -0.0173  0.2527
    2TTP     S1 5078   5.242   4.117   4.073 -0.3453  0.0796 -0.1403
    2TTP     S5 5079   4.957   3.800   4.129 -0.0386 -0.1525  0.1155
    2TTP     C1 5080   5.123   3.735   4.164  0.0121  0.0699  0.2935
    2TTP     C2 5081   5.221   3.829   4.148 -0.0798  0.1547  0.2251
    2TTP     C3 5082   5.168   3.956   4.109 -0.1932  0.0470  0.0296
    2TTP     C4 5083   5.076   4.182   4.038 -0.3959 -0.1428 -0.3183
    2TTP    C17 5084   4.978   4.088   4.053 -0.3041 -0.2277 -0.2498
    2TTP    C18 5085   5.031   3.961   4.093 -0.1906 -0.1200 -0.0544
    2TTP    C32 5086   5.370   3.813   4.157 -0.7103 -0.3299 -0.4701
    2TTP    C33 5087   5.446   3.922   4.240 -0.2858 -0.3725  1.1967
    2TTP    C34 5088   5.595   3.891   4.242 -0.8174 -0.2959  0.3554
    2TTP    C35 5089   5.676   3.999   4.323  0.4647 -0.2992  0.3621
    2TTP    C36 5090   5.823   3.955   4.329  0.6719 -0.1700 -0.4844
    2TTP    C37 5091   5.914   4.052   4.397 -0.1576 -0.1512 -0.6890
    2TTP    C38 5092   5.899   4.198   4.361  0.8372  0.5809  0.4012
    2TTP    C39 5093   5.986   4.284   4.442  0.7006 -0.4212  0.4953
    2TTP    C40 5094   5.989   4.428   4.389  0.8906  0.0883 -0.1634
    2TTP    C41 5095   6.066   4.527   4.479 -0.7015  0.3868  0.1889
    2TTP    C42 5096   6.067   4.666   4.425  0.3028 -0.4004 -0.6018
    3TTP     S1 5097   4.698   4.670   3.636 -0.0022 -0.1110  0.1182
    3TTP     S5 5098   4.334   4.444   3.679 -0.1525  0.2012  0.5006
    3TTP     C1 5099   4.304   4.583   3.565 -0.0845  0.0813  0.3357
    3TTP     C2 5100   4.414   4.661   3.545 -0.0341 -0.0223  0.2080
    3TTP     C3 5101   4.527   4.614   3.619 -0.0474 -0.0105  0.2356
    3TTP     C4 5102   4.729   4.532   3.750 -0.0702  0.0091  0.2831
    3TTP    C17 5103   4.618   4.454   3.770 -0.1207  0.1126  0.4109
    3TTP    C18 5104   4.505   4.501   3.696 -0.1074  0.1007  0.3833
    3TTP    C32 5105   4.430   4.776   3.446  0.5745  0.3980 -0.0329
    3TTP    C33 5106   4.557   4.794   3.366  0.0742  0.4878  0.2369
    3TTP    C34 5107   4.552   4.904   3.269 -0.7163  0.0345  0.8168
    3TTP    C35 5108   4.522   5.044   3.319  0.0836 -0.0920  0.3688
    3TTP    C36 5109   4.512   5.147   3.209 -0.0824  0.3582  0.6268
    3TTP    C37 5110   4.526   5.285   3.258  0.9733  0.0040  0.3545
    3TTP    C38 5111   4.549   5.379   3.146 -0.2751  0.1207  0.5058
    3TTP    C39 5112   4.607   5.503   3.201 -0.4575 -0.1669  0.6095
    3TTP    C40 5113   4.655   5.598   3.087  0.6520  0.7114  0.2918
    3TTP    C41 5114   4.704   5.735   3.133 -0.4723 -0.2029  0.2631
    3TTP    C42 5115   4.834   5.738   3.210  0.2994 -0.0865 -0.0849
    4BIM     F1 5116   4.724   3.041   4.355 -0.0185 -0.0743 -0.2041
    4BIM     F2 5117   4.956   2.944   4.459 -0.0544  0.1400  0.0765
    4BIM     O1 5118   4.884   3.527   4.179 -0.1568 -0.0951 -0.3884
    4BIM     N5 5119   5.404   3.152   4.484 -0.2048  0.4333  0.3489
    4BIM     N6 5120   5.483   3.552   4.325 -0.3058  0.3739  0.1482
    4BIM    C19 5121   5.163   3.608   4.216 -0.2403  0.1023 -0.1858
    4BIM    C20 5122   5.114   3.489   4.257 -0.2041  0.0991 -0.1502
    4BIM    C21 5123   4.969   3.455   4.234 -0.1624 -0.0055 -0.2606
    4BIM    C22 5124   4.949   3.320   4.289 -0.1299  0.0197 -0.1867
    4BIM    C23 5125   4.831   3.246   4.292 -0.0864 -0.0514 -0.2447
    4BIM    C24 5126   4.836   3.120   4.349 -0.0618 -0.0087 -0.1537
    4BIM    C25 5127   4.956   3.070   4.403 -0.0803  0.1018 -0.0088
    4BIM    C26 5128   5.074   3.144   4.401 -0.1236  0.1732  0.0497
    4BIM    C27 5129   5.071   3.271   4.343 -0.1491  0.1315 -0.0409
    4BIM    C28 5130   5.177   3.374   4.325 -0.1956  0.1847 -0.0129
    4BIM    C29 5131   5.308   3.363   4.364 -0.2249  0.2925  0.1160
    4BIM    C30 5132   5.360   3.247   4.430 -0.2136  0.3695  0.2435
    4BIM    C31 5133   5.404   3.467   4.343 -0.2691  0.3366  0.1329
    5BIM     F1 5134   3.538   4.297   3.659 -0.0482 -0.4900 -0.2525
    5BIM     F2 5135   3.450   4.495   3.494 -0.2885 -0.2836  0.1190
    5BIM     O1 5136   4.069   4.398   3.668 -0.1209 -0.0958 -0.3697
    5BIM     N5 5137   3.703   4.852   3.263 -0.6859  0.2936  0.5696
    5BIM     N6 5138   4.136   4.891   3.303 -0.6943  0.5599  0.4032
    5BIM    C19 5139   4.175   4.624   3.514 -0.3762  0.2412 -0.0564
    5BIM    C20 5140   4.044   4.590   3.518 -0.3487  0.1340 -0.0414
    5BIM    C21 5141   3.998   4.473   3.600 -0.2150 -0.0372 -0.2089
    5BIM    C22 5142   3.852   4.465   3.582 -0.2184 -0.1205 -0.1441
    5BIM    C23 5143   3.764   4.373   3.639 -0.1173 -0.2810 -0.2491
    5BIM    C24 5144   3.630   4.385   3.607 -0.1437 -0.3326 -0.1570
    5BIM    C25 5145   3.585   4.487   3.522 -0.2675 -0.2261  0.0344
    5BIM    C26 5146   3.671   4.580   3.465 -0.3690 -0.0658  0.1401
    5BIM    C27 5147   3.808   4.569   3.496 -0.3441 -0.0113  0.0493
    5BIM    C28 5148   3.925   4.650   3.453 -0.4290  0.1491  0.1199
    5BIM    C29 5149   3.922   4.759   3.370 -0.5577  0.2859  0.3005
    5BIM    C30 5150   3.802   4.809   3.311 -0.6278  0.2896  0.4478
    5BIM    C31 5151   4.040   4.831   3.334 -0.6322  0.4358  0.3558
    1BTD     S2 5152   3.502   4.019   8.538 -0.1501 -0.1555 -0.0025
    1BTD     N1 5153   3.411   4.150   8.456 -0.0305 -0.1918 -0.1934
    1BTD     N2 5154   3.627   4.129   8.607 -0.2735 -0.1200  0.1669
    1BTD     N3 5155   3.716   4.590   8.596 -0.3093 -0.1131  0.1688
    1BTD     N4 5156   3.450   4.615   8.410 -0.0098 -0.2017 -0.2751
    1BTD     C5 5157   3.434   4.393   8.434 -0.0234 -0.1959 -0.2306
    1BTD     C6 5158   3.474   4.263   8.482 -0.0859 -0.1764 -0.1240
    1BTD     C7 5159   3.595   4.252   8.566 -0.2220 -0.1363  0.0777
    1BTD     C8 5160   3.670   4.370   8.599 -0.2886 -0.1175  0.1626
    1BTD    C15 5161   3.627   4.495   8.550 -0.2235 -0.1377  0.0530
    1BTD    C16 5162   3.510   4.506   8.468 -0.0923 -0.1765 -0.1413
    1BTD    C43 5163   3.520   4.732   8.352  0.0308 -0.3979  0.6545
    1BTD    C44 5164   3.456   4.875   8.361  0.6120  0.2867 -0.1506
    1BTD    C45 5165   3.363   4.890   8.486 -0.1308  0.1499 -0.4331
    1BTD    C46 5166   3.258   5.010   8.487 -0.2394  0.2990 -0.3031
    1BTD    C47 5167   3.528   5.000   8.311  0.2721 -0.2241  0.4846
    1BTD    C48 5168   3.630   4.982   8.190  0.3437 -0.4433 -0.4402
    1BTD    C49 5169   3.597   4.937   8.046  0.0814 -0.5917 -0.1143
    1BTD    C50 5170   3.492   5.027   7.968  0.0268 -0.1966 -0.1695
    1BTD    C75 5171   3.679   4.731   8.622  0.4255  0.9169 -0.5500
    1BTD    C76 5172   3.776   4.847   8.636 -0.6289 -0.1740 -0.0352
    1BTD    C77 5173   3.712   4.976   8.694  0.3923 -0.3786 -0.0406
    1BTD    C78 5174   3.671   4.956   8.838  0.0798  0.4252  0.4231
    1BTD    C79 5175   3.865   4.867   8.509  0.4831 -0.0205 -0.3871
    1BTD    C80 5176   3.999   4.943   8.521 -0.5705 -0.0749  0.0084
    1BTD    C81 5177   4.104   4.918   8.417 -0.4098 -0.1253  0.3840
    1BTD    C82 5178   4.229   5.006   8.446  0.8318 -0.0102  0.1679
    2TTP     S1 5179   3.163   4.377   8.290  0.1007 -0.1144  0.0046
    2TTP     S5 5180   3.202   4.793   8.191 -0.0232  0.0392  0.5965
    2TTP     C1 5181   3.048   4.731   8.118 -0.0154  0.1032  0.5257
    2TTP     C2 5182   3.027   4.599   8.144  0.0232  0.0594  0.3388
    2TTP     C3 5183   3.132   4.542   8.223  0.0482 -0.0261  0.2449
    2TTP     C4 5184   3.317   4.439   8.363  0.0929 -0.1783  0.0756
    2TTP    C17 5185   3.338   4.572   8.337  0.0542 -0.1347  0.2624
    2TTP    C18 5186   3.234   4.629   8.258  0.0293 -0.0490  0.3564
    2TTP    C32 5187   2.901   4.514   8.118  0.4719 -0.8880  0.1449
    2TTP    C33 5188   2.899   4.410   8.013  0.5264  0.2802 -0.1453
    2TTP    C34 5189   2.768   4.338   8.015  0.3062 -0.7736  0.4796
    2TTP    C35 5190   2.757   4.214   7.924 -0.2427 -0.5750  0.3902
    2TTP    C36 5191   2.638   4.120   7.934 -0.7888  0.2933  0.4358
    2TTP    C37 5192   2.503   4.179   7.904  0.1272 -0.3135  0.1980
    2TTP    C38 5193   2.380   4.087   7.898  0.0620 -0.3306  0.1544
    2TTP    C39 5194   2.386   3.953   7.827  0.0601  0.3437  0.4022
    2TTP    C40 5195   2.449   3.942   7.681 -0.4936 -0.0288 -0.1856
    2TTP    C41 5196   2.481   3.795   7.648  0.6530 -0.1167 -0.1324
    2TTP    C42 5197   2.580   3.783   7.534 -0.7005 -0.0889  0.2145
    3TTP     S1 5198   3.901   4.308   8.794  0.2923 -0.2986 -0.2224
    3TTP     S5 5199   3.995   4.728   8.806 -0.6935 -0.0868  0.3638
    3TTP     C1 5200   4.112   4.639   8.914 -0.2562 -0.0105 -0.0423
    3TTP     C2 5201   4.090   4.504   8.916  0.0738 -0.0713 -0.2472
    3TTP     C3 5202   3.980   4.466   8.834 -0.0064 -0.1804 -0.0911
    3TTP     C4 5203   3.784   4.397   8.687 -0.1448 -0.3749  0.1833
    3TTP    C17 5204   3.806   4.532   8.684 -0.4749 -0.3139  0.3883
    3TTP    C18 5205   3.916   4.570   8.767 -0.3946 -0.2048  0.2325
    3TTP    C32 5206   4.154   4.395   8.999  0.3838  0.0060 -0.6423
    3TTP    C33 5207   4.080   4.356   9.128  0.0001 -0.3998 -0.0539
    3TTP    C34 5208   4.145   4.244   9.208  0.0213 -0.4563  0.2364
    3TTP    C35 5209   4.162   4.110   9.138  0.2490 -0.5865  0.1433
    3TTP    C36 5210   4.236   4.006   9.223 -0.1861 -0.1431 -0.2765
    3TTP    C37 5211   4.221   3.865   9.176 -0.1381 -0.4227  0.0851
    3TTP    C38 5212   4.117   3.799   9.262 -0.0169 -0.6012  0.2320
    3TTP    C39 5213   4.079   3.658   9.228  0.3660 -0.5009  0.6223
    3TTP    C40 5214   4.184   3.550   9.250  0.7919 -0.1430 -0.1163
    3TTP    C41 5215   4.127   3.407   9.266  0.1101  0.2268 -0.2306
    3TTP    C42 5216   4.232   3.297   9.292 -0.2830 -0.0276  0.1603
    4BIM     F1 5217   2.986   5.504   7.842  0.1098  0.0790 -0.1802
    4BIM     F2 5218   2.760   5.434   7.708 -0.2101  0.3476  0.2135
    4BIM     O1 5219   3.119   5.034   8.075  0.0385 -0.1129 -0.5245
    4BIM     N5 5220   2.529   4.997   7.682 -0.7209  0.5969  0.5343
    4BIM     N6 5221   2.678   4.644   7.892 -0.7121  0.3927  0.1858
    4BIM    C19 5222   2.949   4.800   8.031 -0.2925  0.0754 -0.2707
    4BIM    C20 5223   2.925   4.921   7.977 -0.2620  0.1131 -0.1992
    4BIM    C21 5224   3.017   5.037   8.005 -0.0885  0.0104 -0.3395
    4BIM    C22 5225   2.961   5.152   7.932 -0.0997  0.0851 -0.2135
    4BIM    C23 5226   3.012   5.282   7.927  0.0293  0.0331 -0.2760
    4BIM    C24 5227   2.942   5.374   7.851 -0.0116  0.1237 -0.1289
    4BIM    C25 5228   2.826   5.338   7.782 -0.1765  0.2620  0.0737
    4BIM    C26 5229   2.775   5.209   7.786 -0.3057  0.3147  0.1371
    4BIM    C27 5230   2.844   5.113   7.863 -0.2668  0.2246 -0.0093
    4BIM    C28 5231   2.817   4.970   7.888 -0.3731  0.2472  0.0074
    4BIM    C29 5232   2.712   4.896   7.838 -0.5423  0.3693  0.1813
    4BIM    C30 5233   2.612   4.952   7.753 -0.6399  0.4939  0.3749
    4BIM    C31 5234   2.694   4.758   7.868 -0.6347  0.3814  0.1827
    5BIM     F1 5235   4.289   5.403   9.170  0.1067 -0.0322 -0.1237
    5BIM     F2 5236   4.519   5.308   9.281 -0.1218 -0.1285  0.2692
    5BIM     O1 5237   4.079   4.949   8.964  0.1736  0.0230 -0.3145
    5BIM     N5 5238   4.699   4.847   9.295 -0.4029 -0.2277  0.6983
    5BIM     N6 5239   4.488   4.511   9.112 -0.3046 -0.1650  0.4704
    5BIM    C19 5240   4.224   4.696   8.998 -0.0212 -0.0494 -0.0065
    5BIM    C20 5241   4.267   4.814   9.045 -0.0291 -0.0596  0.0262
    5BIM    C21 5242   4.187   4.940   9.024  0.0750 -0.0203 -0.1397
    5BIM    C22 5243   4.263   5.049   9.088  0.0364 -0.0436 -0.0539
    5BIM    C23 5244   4.229   5.184   9.094  0.1023 -0.0219 -0.1502
    5BIM    C24 5245   4.317   5.269   9.160  0.0468 -0.0514 -0.0378
    5BIM    C25 5246   4.435   5.219   9.217 -0.0712 -0.1008  0.1645
    5BIM    C26 5247   4.470   5.085   9.211 -0.1373 -0.1229  0.2618
    5BIM    C27 5248   4.382   4.998   9.145 -0.0826 -0.0937  0.1502
    5BIM    C28 5249   4.389   4.851   9.121 -0.1274 -0.1054  0.2074
    5BIM    C29 5250   4.490   4.767   9.161 -0.2389 -0.1501  0.3932
    5BIM    C30 5251   4.604   4.811   9.235 -0.3288 -0.1925  0.5600
    5BIM    C31 5252   4.488   4.627   9.134 -0.2744 -0.1580  0.4346
    1BTD     S2 5253   7.493   9.498   0.492 -0.2531 -0.0838  0.3541
    1BTD     N1 5254   7.603   9.632   0.445 -0.2581 -0.1855  0.0500
    1BTD     N2 5255   7.608   9.427   0.611 -0.1971  0.1113  0.4169
    1BTD     N3 5256   8.040   9.525   0.767 -0.0920  0.3247 -0.0039
    1BTD     N4 5257   8.033   9.779   0.562 -0.1674 -0.0410 -0.4561
    1BTD     C5 5258   7.828   9.706   0.509 -0.2097 -0.1059 -0.2088
    1BTD     C6 5259   7.714   9.618   0.516 -0.2198 -0.0749  0.0129
    1BTD     C7 5260   7.717   9.503   0.609 -0.1856  0.0911  0.2183
    1BTD     C8 5261   7.834   9.481   0.690 -0.1432  0.2179  0.1917
    1BTD    C15 5262   7.943   9.569   0.679 -0.1349  0.1819 -0.0287
    1BTD    C16 5263   7.940   9.680   0.590 -0.1679  0.0221 -0.2266
    1BTD    C43 5264   8.180   9.778   0.588  0.1490  0.6300 -0.6925
    1BTD    C44 5265   8.285   9.875   0.533  0.0990 -0.1177  0.0792
    1BTD    C45 5266   8.318   9.836   0.387 -0.0151  0.7554  0.0226
    1BTD    C46 5267   8.383   9.936   0.298  0.3981 -0.2618 -0.1432
    1BTD    C47 5268   8.404   9.909   0.630  0.2440  0.0240  0.1609
    1BTD    C48 5269   8.513   9.804   0.651 -0.2860 -0.2679  0.1574
    1BTD    C49 5270   8.578   9.833   0.787 -0.6939  0.5405  0.9913
    1BTD    C50 5271   8.688   9.733   0.803 -0.6688 -0.6440 -0.4551
    1BTD    C75 5272   8.152   9.598   0.840 -0.0573 -0.7150 -0.0306
    1BTD    C76 5273   8.119   9.666   0.973 -0.2639 -0.3955  0.2578
    1BTD    C77 5274   8.251   9.728   1.028 -0.1184  0.8875  0.1136
    1BTD    C78 5275   8.244   9.785   1.167  0.2334 -0.6169  0.4181
    1BTD    C79 5276   7.991   9.757   0.977 -0.4086  0.4519  0.3223
    1BTD    C80 5277   8.003   9.882   0.900  0.5225  0.0539  0.0918
    1BTD    C81 5278   7.879   9.967   0.899  0.0048 -0.1790 -0.3261
    1BTD    C82 5279   7.890  10.092   0.814  0.2996 -0.0834 -0.8210
    2TTP     S1 5280   7.740   9.940   0.363 -0.1431  0.1311  0.1187
    2TTP     S5 5281   8.083  10.153   0.511  0.0565  0.2203 -0.4680
    2TTP     C1 5282   7.967  10.273   0.438 -0.0562  0.1799 -0.3566
    2TTP     C2 5283   7.854  10.214   0.388 -0.1246  0.1500 -0.1688
    2TTP     C3 5284   7.855  10.072   0.405 -0.0902  0.1579 -0.1062
    2TTP     C4 5285   7.855   9.820   0.436 -0.0304  0.1715  0.0072
    2TTP    C17 5286   7.968   9.879   0.486  0.0379  0.2014 -0.1805
    2TTP    C18 5287   7.967  10.021   0.468  0.0036  0.1935 -0.2431
    2TTP    C32 5288   7.732  10.271   0.316 -0.0826 -0.1448  0.2405
    2TTP    C33 5289   7.729  10.295   0.163  0.4827 -0.3881  0.4147
    2TTP    C34 5290   7.590  10.284   0.105 -0.4111 -0.1147 -0.2764
    2TTP    C35 5291   7.600  10.322  -0.049  0.4370  0.4693  0.4168
    2TTP    C36 5292   7.469  10.302  -0.129 -0.0414 -0.1500 -0.3402
    2TTP    C37 5293   7.351  10.386  -0.099 -0.2490 -0.6544  0.0204
    2TTP    C38 5294   7.369  10.539  -0.085 -0.4106 -0.0473  0.0114
    2TTP    C39 5295   7.290  10.614  -0.198  0.3081  0.4151  0.3677
    2TTP    C40 5296   7.261  10.764  -0.175  0.0638 -0.5573 -0.4993
    2TTP    C41 5297   7.223  10.843  -0.299  0.1154  0.4876  0.6750
    2TTP    C42 5298   7.320  10.857  -0.419 -0.0825 -0.9235  0.1290
    3TTP     S1 5299   7.822   9.208   0.832  0.0374 -0.0038  0.1176
    3TTP     S5 5300   8.227   9.269   0.963 -0.0434  0.3569  0.2025
    3TTP     C1 5301   8.176   9.100   1.009  0.1015  0.3062  0.1790
    3TTP     C2 5302   8.047   9.072   0.971  0.1349  0.1917  0.1513
    3TTP     C3 5303   7.985   9.182   0.905  0.0474  0.1400  0.1478
    3TTP     C4 5304   7.873   9.376   0.786 -0.1076  0.0474  0.1411
    3TTP    C17 5305   8.001   9.405   0.824 -0.1408  0.1616  0.1687
    3TTP    C18 5306   8.063   9.295   0.891 -0.0532  0.2134  0.1723
    3TTP    C32 5307   7.966   8.946   1.008 -0.0124  0.2514  0.1540
    3TTP    C33 5308   7.857   8.942   1.121  0.7788 -0.3230  0.3926
    3TTP    C34 5309   7.915   9.001   1.249  0.1958  0.4589 -0.5644
    3TTP    C35 5310   7.808   9.027   1.354  0.3762  0.4482 -0.1449
    3TTP    C36 5311   7.854   9.043   1.496 -0.6456 -0.0002 -0.3659
    3TTP    C37 5312   7.936   8.933   1.567 -0.2378 -0.9406  0.4952
    3TTP    C38 5313   8.000   8.958   1.704 -0.0609  0.1648  0.4946
    3TTP    C39 5314   8.111   9.058   1.712  0.7951 -0.1565  0.3476
    3TTP    C40 5315   8.249   9.015   1.656  0.2379  0.0040  0.1339
    3TTP    C41 5316   8.362   9.107   1.693  0.4502 -0.1843 -0.1381
    3TTP    C42 5317   8.498   9.068   1.655  0.3730  0.2512 -0.6243
    4BIM     F1 5318   8.524  10.811   0.721  0.2487 -0.0337 -0.5144
    4BIM     F2 5319   8.370  11.013   0.624 -0.2344 -0.0276  0.2437
    4BIM     O1 5320   8.233  10.379   0.572  0.4232 -0.0996 -0.6654
    4BIM     N5 5321   7.941  10.996   0.377 -0.8036 -0.0656  1.2258
    4BIM     N6 5322   7.745  10.618   0.281 -0.5697 -0.1182  0.9550
    4BIM    C19 5323   7.982  10.419   0.426  0.0242 -0.1170  0.0051
    4BIM    C20 5324   8.061  10.520   0.468 -0.0010 -0.1007  0.0135
    4BIM    C21 5325   8.189  10.491   0.542  0.2129 -0.0926 -0.3432
    4BIM    C22 5326   8.250  10.622   0.572  0.1225 -0.0750 -0.2337
    4BIM    C23 5327   8.369  10.647   0.639  0.2544 -0.0625 -0.4679
    4BIM    C24 5328   8.407  10.779   0.655  0.1292 -0.0467 -0.2994
    4BIM    C25 5329   8.327  10.883   0.605 -0.1191 -0.0435  0.0911
    4BIM    C26 5330   8.208  10.859   0.538 -0.2518 -0.0558  0.3264
    4BIM    C27 5331   8.169  10.726   0.520 -0.1283 -0.0720  0.1611
    4BIM    C28 5332   8.049  10.667   0.454 -0.2141 -0.0876  0.3286
    4BIM    C29 5333   7.948  10.736   0.393 -0.4470 -0.0897  0.7039
    4BIM    C30 5334   7.944  10.879   0.384 -0.6424 -0.0764  0.9895
    4BIM    C31 5335   7.837  10.670   0.331 -0.5132 -0.1054  0.8398
    5BIM     F1 5336   8.887   9.068   1.419  0.0095 -0.0086  0.0015
    5BIM     F2 5337   8.875   8.796   1.406 -0.0954 -0.0162  0.2616
    5BIM     O1 5338   8.425   9.203   1.171  0.1409 -0.0627 -0.2730
    5BIM     N5 5339   8.528   8.502   1.212 -0.1528 -0.0663  0.4399
    5BIM     N6 5340   8.169   8.662   1.020 -0.0296 -0.1073  0.1730
    5BIM    C19 5341   8.249   8.991   1.071  0.0870 -0.0895 -0.1220
    5BIM    C20 5342   8.366   8.968   1.134  0.0582 -0.0758 -0.0631
    5BIM    C21 5343   8.451   9.082   1.182  0.0887 -0.0625 -0.1475
    5BIM    C22 5344   8.569   9.022   1.246  0.0451 -0.0489 -0.0522
    5BIM    C23 5345   8.677   9.088   1.305  0.0529 -0.0341 -0.0829
    5BIM    C24 5346   8.778   9.009   1.359  0.0051 -0.0233  0.0247
    5BIM    C25 5347   8.771   8.869   1.352 -0.0491 -0.0277  0.1586
    5BIM    C26 5348   8.665   8.803   1.293 -0.0572 -0.0424  0.1901
    5BIM    C27 5349   8.561   8.881   1.238 -0.0091 -0.0536  0.0824
    5BIM    C28 5350   8.436   8.842   1.169 -0.0033 -0.0699  0.0810
    5BIM    C29 5351   8.393   8.714   1.143 -0.0467 -0.0782  0.1922
    5BIM    C30 5352   8.467   8.598   1.181 -0.1051 -0.0715  0.3280
    5BIM    C31 5353   8.270   8.686   1.076 -0.0370 -0.0939  0.1810
    1BTD     S2 5354   0.097   0.456   1.921  0.1607 -0.1070 -0.0191
    1BTD     N1 5355  -0.057   0.391   1.855  0.1402 -0.0454 -0.0333
    1BTD     N2 5356   0.149   0.300   1.993  0.1182 -0.1413 -0.0624
    1BTD     N3 5357  -0.021  -0.137   2.019 -0.0052 -0.0999 -0.1764
    1BTD     N4 5358  -0.275  -0.025   1.848  0.0219  0.0184 -0.1406
    1BTD     C5 5359  -0.168   0.172   1.853  0.0782 -0.0136 -0.0898
    1BTD     C6 5360  -0.061   0.262   1.887  0.1047 -0.0532 -0.0679
    1BTD     C7 5361   0.054   0.212   1.965  0.0923 -0.1069 -0.0841
    1BTD     C8 5362   0.057   0.073   2.004  0.0541 -0.1184 -0.1215
    1BTD    C15 5363  -0.050  -0.011   1.969  0.0291 -0.0784 -0.1419
    1BTD    C16 5364  -0.161   0.038   1.894  0.0410 -0.0267 -0.1262
    1BTD    C43 5365  -0.296  -0.164   1.831 -0.6706  0.1225 -0.5254
    1BTD    C44 5366  -0.419  -0.229   1.759  0.0980  0.4187 -0.5335
    1BTD    C45 5367  -0.433  -0.198   1.607  0.9197 -0.2645 -0.7973
    1BTD    C46 5368  -0.328  -0.254   1.508  0.6897  0.3688 -0.1912
    1BTD    C47 5369  -0.429  -0.371   1.812 -0.5513  0.8592  0.5170
    1BTD    C48 5370  -0.528  -0.463   1.747 -0.6258 -0.2150  0.5590
    1BTD    C49 5371  -0.530  -0.594   1.826  0.7436 -0.5115 -0.3445
    1BTD    C50 5372  -0.637  -0.696   1.791  0.6867 -0.5464 -0.1153
    1BTD    C75 5373  -0.111  -0.248   2.068 -0.1001 -0.0614 -0.4094
    1BTD    C76 5374  -0.184  -0.268   2.207 -0.1935 -0.0582  0.2886
    1BTD    C77 5375  -0.262  -0.136   2.231  0.1382  0.3230 -0.0184
    1BTD    C78 5376  -0.181  -0.020   2.282  0.8252 -0.1418 -0.0744
    1BTD    C79 5377  -0.282  -0.390   2.213 -0.3141 -0.0697  0.2374
    1BTD    C80 5378  -0.219  -0.523   2.179 -0.0047 -0.3797 -0.4388
    1BTD    C81 5379  -0.325  -0.628   2.139  0.2974 -0.3564  0.7306
    1BTD    C82 5380  -0.254  -0.752   2.106  0.2595  0.0327 -0.2251
    2TTP     S1 5381  -0.384   0.340   1.747  0.1789 -0.1142 -0.1165
    2TTP     S5 5382  -0.655   0.017   1.831  0.0899  0.0439  0.2072
    2TTP     C1 5383  -0.752   0.169   1.805  0.1276  0.0310 -0.0130
    2TTP     C2 5384  -0.674   0.278   1.778  0.1576 -0.0186 -0.1259
    2TTP     C3 5385  -0.535   0.245   1.776  0.1514 -0.0482 -0.0426
    2TTP     C4 5386  -0.287   0.188   1.773  0.1414 -0.1014  0.1037
    2TTP    C17 5387  -0.365   0.079   1.801  0.1113 -0.0518  0.2167
    2TTP    C18 5388  -0.504   0.112   1.802  0.1173 -0.0221  0.1334
    2TTP    C32 5389  -0.723   0.423   1.748 -0.1947  0.3116 -0.1355
    2TTP    C33 5390  -0.673   0.488   1.618  0.5925 -0.1849  0.0542
    2TTP    C34 5391  -0.717   0.640   1.616  0.0256  1.0370 -0.2570
    2TTP    C35 5392  -0.680   0.699   1.482  0.1110 -0.3316  0.2124
    2TTP    C36 5393  -0.702   0.850   1.487  0.0920  0.7203 -0.3784
    2TTP    C37 5394  -0.632   0.924   1.380  0.2803 -0.0914 -0.5936
    2TTP    C38 5395  -0.621   1.073   1.399  0.1995  0.1931 -0.2868
    2TTP    C39 5396  -0.587   1.160   1.281  0.4484 -0.0692 -0.7494
    2TTP    C40 5397  -0.532   1.296   1.312  0.1416  0.3088 -0.2528
    2TTP    C41 5398  -0.379   1.311   1.304 -0.1274  0.6367  0.7264
    2TTP    C42 5399  -0.330   1.438   1.369 -0.5452 -0.0703  0.0161
    3TTP     S1 5400   0.311   0.012   2.162  0.0327 -0.1790 -0.1375
    3TTP     S5 5401   0.185  -0.398   2.194 -0.2591 -0.0508  0.3803
    3TTP     C1 5402   0.344  -0.380   2.281 -0.2333 -0.0597  0.3349
    3TTP     C2 5403   0.392  -0.252   2.276 -0.1417 -0.1004  0.1723
    3TTP     C3 5404   0.306  -0.164   2.204 -0.0885 -0.1252  0.0777
    3TTP     C4 5405   0.152  -0.007   2.076  0.0069 -0.1698 -0.0920
    3TTP    C17 5406   0.104  -0.135   2.081 -0.0847 -0.1293  0.0705
    3TTP    C18 5407   0.191  -0.222   2.153 -0.1379 -0.1044  0.1650
    3TTP    C32 5408   0.524  -0.205   2.336 -0.2048 -0.0621 -0.6468
    3TTP    C33 5409   0.503  -0.102   2.455  0.3732 -0.1004 -0.0165
    3TTP    C34 5410   0.622  -0.064   2.547 -0.0695  0.1641 -0.1014
    3TTP    C35 5411   0.663  -0.169   2.649 -0.3633  0.1088 -0.7536
    3TTP    C36 5412   0.751  -0.115   2.771 -0.0136 -0.4596 -0.0600
    3TTP    C37 5413   0.875  -0.034   2.726  0.3434  0.2362  0.3337
    3TTP    C38 5414   0.940   0.030   2.845 -0.7080 -0.3599  0.2938
    3TTP    C39 5415   1.080   0.091   2.814  0.3343  0.5171 -0.2544
    3TTP    C40 5416   1.135   0.142   2.944  1.0513  0.0613  0.0698
    3TTP    C41 5417   1.281   0.166   2.932 -0.2374  0.0603 -0.4544
    3TTP    C42 5418   1.355   0.037   2.974 -0.5144 -0.2841  0.1808
    4BIM     F1 5419  -1.363  -0.335   2.028  0.1521 -0.5465 -0.4500
    4BIM     F2 5420  -1.536  -0.174   1.894  0.0291 -0.1755  0.1478
    4BIM     O1 5421  -0.896  -0.072   1.948  0.1128 -0.4382 -0.3236
    4BIM     N5 5422  -1.454   0.246   1.645 -0.1760  0.4349  1.0973
    4BIM     N6 5423  -1.054   0.419   1.610 -0.1819  0.4447  1.0755
    4BIM    C19 5424  -0.897   0.176   1.792 -0.0187 -0.0454  0.2924
    4BIM    C20 5425  -1.007   0.103   1.818 -0.0041 -0.0871  0.2373
    4BIM    C21 5426  -0.999  -0.023   1.899  0.0646 -0.2927 -0.0859
    4BIM    C22 5427  -1.136  -0.076   1.907  0.0637 -0.2863 -0.0633
    4BIM    C23 5428  -1.179  -0.192   1.972  0.1156 -0.4416 -0.3026
    4BIM    C24 5429  -1.314  -0.222   1.966  0.1027 -0.4000 -0.2248
    4BIM    C25 5430  -1.403  -0.139   1.897  0.0392 -0.2090  0.0834
    4BIM    C26 5431  -1.361  -0.023   1.832 -0.0131 -0.0534  0.3232
    4BIM    C27 5432  -1.225   0.009   1.837 -0.0010 -0.0925  0.2490
    4BIM    C28 5433  -1.149   0.123   1.779 -0.0451  0.0376  0.4460
    4BIM    C29 5434  -1.201   0.226   1.705 -0.1109  0.2357  0.7614
    4BIM    C30 5435  -1.340   0.237   1.672 -0.1464  0.3445  0.9450
    4BIM    C31 5436  -1.120   0.332   1.653 -0.1495  0.3495  0.9324
    5BIM     F1 5437   0.161  -1.151   2.496  0.0174  0.0308  0.2053
    5BIM     F2 5438   0.413  -1.178   2.595  0.1904 -0.0923 -0.2659
    5BIM     O1 5439   0.171  -0.638   2.324 -0.0917  0.0620  0.2924
    5BIM     N5 5440   0.783  -0.850   2.614  0.3615 -0.2458 -0.8815
    5BIM     N6 5441   0.741  -0.443   2.460  0.2414 -0.1967 -0.7185
    5BIM    C19 5442   0.416  -0.481   2.358  0.0349 -0.0441 -0.1269
    5BIM    C20 5443   0.404  -0.609   2.397  0.0556 -0.0474 -0.1305
    5BIM    C21 5444   0.275  -0.683   2.376 -0.0132  0.0095  0.0924
    5BIM    C22 5445   0.295  -0.819   2.430  0.0312 -0.0103  0.0263
    5BIM    C23 5446   0.204  -0.923   2.434 -0.0056  0.0262  0.1733
    5BIM    C24 5447   0.246  -1.043   2.490  0.0495 -0.0026  0.0701
    5BIM    C25 5448   0.376  -1.057   2.540  0.1386 -0.0659 -0.1727
    5BIM    C26 5449   0.468  -0.952   2.537  0.1758 -0.1025 -0.3205
    5BIM    C27 5450   0.427  -0.830   2.481  0.1211 -0.0741 -0.2192
    5BIM    C28 5451   0.499  -0.702   2.462  0.1396 -0.0992 -0.3252
    5BIM    C29 5452   0.628  -0.675   2.499  0.2193 -0.1595 -0.5591
    5BIM    C30 5453   0.713  -0.771   2.562  0.2972 -0.2069 -0.7355
    5BIM    C31 5454   0.689  -0.548   2.477  0.2310 -0.1798 -0.6454
    1BTD     S2 5455   4.385   7.562   1.901  0.0187  0.0472 -0.0673
    1BTD     N1 5456   4.439   7.415   1.988  0.0317  0.2028  0.1901
    1BTD     N2 5457   4.223   7.495   1.859  0.1101 -0.1245 -0.1496
    1BTD     N3 5458   3.992   7.093   1.931  0.3209 -0.1932  0.1473
    1BTD     N4 5459   4.259   6.993   2.090  0.2242  0.2102  0.5658
    1BTD     C5 5460   4.342   7.196   2.039  0.1333  0.2019  0.3812
    1BTD     C6 5461   4.340   7.328   1.982  0.1003  0.1231  0.2008
    1BTD     C7 5462   4.219   7.373   1.909  0.1441 -0.0601  0.0106
    1BTD     C8 5463   4.106   7.284   1.898  0.2190 -0.1553  0.0104
    1BTD    C15 5464   4.113   7.156   1.956  0.2491 -0.0729  0.1906
    1BTD    C16 5465   4.229   7.112   2.026  0.2069  0.1036  0.3738
    1BTD    C43 5466   4.156   6.933   2.182  0.4730  0.9725  0.2157
    1BTD    C44 5467   4.152   6.780   2.217  0.1455 -0.8835  0.0005
    1BTD    C45 5468   4.156   6.687   2.091  1.0099  0.5250 -0.2439
    1BTD    C46 5469   4.170   6.531   2.104  0.1905 -0.5216 -0.5990
    1BTD    C47 5470   4.067   6.736   2.339  0.0120  0.2668 -0.1354
    1BTD    C48 5471   4.059   6.822   2.468 -0.2517  0.0168  0.6138
    1BTD    C49 5472   3.938   6.776   2.552  0.7448  0.0486 -0.7841
    1BTD    C50 5473   3.940   6.640   2.622 -0.3855  0.8299 -0.0032
    1BTD    C75 5474   3.969   6.944   1.921 -0.3637 -0.5714 -0.0061
    1BTD    C76 5475   3.836   6.883   1.968  0.6013 -0.1528  0.0489
    1BTD    C77 5476   3.792   6.917   2.114  0.1081 -0.4585  0.1694
    1BTD    C78 5477   3.642   6.937   2.143  0.5137 -0.0656  0.0034
    1BTD    C79 5478   3.781   6.757   1.904  0.0271  0.5868 -0.0134
    1BTD    C80 5479   3.816   6.612   1.954 -0.3865 -0.1510 -0.5374
    1BTD    C81 5480   3.738   6.508   1.873 -0.3454 -0.2388  0.2091
    1BTD    C82 5481   3.770   6.366   1.919  0.2430 -0.6103 -0.2536
    2TTP     S1 5482   4.605   7.153   2.181 -0.3814 -0.0046  0.1322
    2TTP     S5 5483   4.471   6.765   2.309  0.0540 -0.2882 -0.2658
    2TTP     C1 5484   4.635   6.796   2.381 -0.0825 -0.0795 -0.0445
    2TTP     C2 5485   4.686   6.918   2.346 -0.2249  0.0204  0.0914
    2TTP     C3 5486   4.597   6.991   2.261 -0.2314 -0.0643  0.0257
    2TTP     C4 5487   4.441   7.121   2.109 -0.2449 -0.2133 -0.0891
    2TTP    C17 5488   4.390   7.000   2.144 -0.1025 -0.3133 -0.2250
    2TTP    C18 5489   4.478   6.927   2.229 -0.0960 -0.2285 -0.1593
    2TTP    C32 5490   4.812   6.993   2.390  0.3388  0.2938 -0.2532
    2TTP    C33 5491   4.906   7.032   2.277 -0.1959 -0.0674 -0.2062
    2TTP    C34 5492   5.008   7.136   2.315 -0.2600 -0.0540 -1.0535
    2TTP    C35 5493   4.955   7.267   2.345  0.2845 -0.7070 -0.7242
    2TTP    C36 5494   5.068   7.358   2.404  0.1942  0.4991  0.6045
    2TTP    C37 5495   5.046   7.506   2.395 -0.9705  0.3285  0.3425
    2TTP    C38 5496   5.178   7.575   2.430 -0.2226  0.3240  0.1070
    2TTP    C39 5497   5.168   7.722   2.454  0.6662 -0.4134 -0.5279
    2TTP    C40 5498   5.279   7.794   2.533 -0.1402 -0.7597  0.8523
    2TTP    C41 5499   5.389   7.839   2.440  0.1451 -0.1151 -0.6530
    2TTP    C42 5500   5.480   7.922   2.531 -0.3567  0.0964 -0.9125
    3TTP     S1 5501   3.873   7.431   1.770  0.0579 -0.0475  0.3053
    3TTP     S5 5502   3.640   7.070   1.782 -0.2598  0.1299 -0.4428
    3TTP     C1 5503   3.537   7.203   1.712 -0.0501  0.2942 -0.4397
    3TTP     C2 5504   3.603   7.322   1.705  0.0604  0.2491 -0.2084
    3TTP     C3 5505   3.737   7.313   1.753 -0.0166  0.0832 -0.0255
    3TTP     C4 5506   3.976   7.297   1.839 -0.1518 -0.2118  0.3022
    3TTP    C17 5507   3.910   7.178   1.847 -0.2622 -0.1665  0.0710
    3TTP    C18 5508   3.776   7.188   1.798 -0.1852 -0.0006 -0.1121
    3TTP    C32 5509   3.537   7.443   1.655 -0.2648 -0.1552 -0.5414
    3TTP    C33 5510   3.595   7.580   1.704 -0.0613  0.0395  1.0007
    3TTP    C34 5511   3.487   7.678   1.718  0.0219 -0.5433 -0.3718
    3TTP    C35 5512   3.422   7.736   1.593 -0.6081 -0.8973  0.2010
    3TTP    C36 5513   3.304   7.829   1.618  0.0752 -0.2775 -0.0699
    3TTP    C37 5514   3.227   7.850   1.485 -0.4562 -0.3148  0.0490
    3TTP    C38 5515   3.125   7.961   1.500  0.3312  0.2146  0.4584
    3TTP    C39 5516   3.040   8.002   1.371 -0.3241  0.2938  0.6779
    3TTP    C40 5517   2.973   7.888   1.292  0.2260 -0.3148 -0.4561
    3TTP    C41 5518   2.872   7.806   1.378 -0.0268  0.1709 -0.4257
    3TTP    C42 5519   2.828   7.673   1.321 -0.0653 -0.2559  0.1981
    4BIM     F1 5520   4.588   6.021   2.661  0.0840 -0.1037 -0.0229
    4BIM     F2 5521   4.823   6.060   2.792 -0.1078  0.0548  0.2747
    4BIM     O1 5522   4.522   6.503   2.423  0.0941 -0.1702 -0.1606
    4BIM     N5 5523   5.114   6.460   2.812 -0.3763  0.2352  0.6044
    4BIM     N6 5524   5.015   6.828   2.599 -0.3296  0.1513  0.4368
    4BIM    C19 5525   4.723   6.711   2.464 -0.0855 -0.0426  0.0748
    4BIM    C20 5526   4.731   6.589   2.519 -0.0803 -0.0321  0.0978
    4BIM    C21 5527   4.623   6.487   2.493  0.0144 -0.1006 -0.0289
    4BIM    C22 5528   4.662   6.365   2.567 -0.0058 -0.0687  0.0345
    4BIM    C23 5529   4.594   6.244   2.573  0.0596 -0.1099 -0.0401
    4BIM    C24 5530   4.650   6.143   2.650  0.0232 -0.0667  0.0436
    4BIM    C25 5531   4.771   6.164   2.718 -0.0756  0.0149  0.1970
    4BIM    C26 5532   4.840   6.284   2.712 -0.1413  0.0564  0.2720
    4BIM    C27 5533   4.784   6.387   2.635 -0.1060  0.0138  0.1891
    4BIM    C28 5534   4.831   6.526   2.608 -0.1557  0.0395  0.2342
    4BIM    C29 5535   4.946   6.584   2.656 -0.2528  0.1153  0.3753
    4BIM    C30 5536   5.038   6.515   2.742 -0.3204  0.1811  0.5008
    4BIM    C31 5537   4.983   6.718   2.625 -0.2946  0.1346  0.4083
    5BIM     F1 5538   2.990   6.588   1.666  0.0445 -0.2182 -0.1017
    5BIM     F2 5539   2.825   6.752   1.525 -0.0775 -0.0945  0.1852
    5BIM     O1 5540   3.411   6.917   1.755  0.0623 -0.2526 -0.0587
    5BIM     N5 5541   2.887   7.223   1.387 -0.2403  0.0585  0.6283
    5BIM     N6 5542   3.249   7.447   1.485 -0.2019  0.0066  0.6041
    5BIM    C19 5543   3.402   7.191   1.652 -0.0479 -0.1469  0.2306
    5BIM    C20 5544   3.303   7.101   1.635 -0.0477 -0.1431  0.2086
    5BIM    C21 5545   3.315   6.962   1.691  0.0108 -0.1994  0.0566
    5BIM    C22 5546   3.190   6.892   1.655 -0.0051 -0.1791  0.0720
    5BIM    C23 5547   3.155   6.761   1.685  0.0340 -0.2151 -0.0390
    5BIM    C24 5548   3.031   6.716   1.640  0.0085 -0.1853  0.0024
    5BIM    C25 5549   2.946   6.801   1.568 -0.0545 -0.1217  0.1503
    5BIM    C26 5550   2.981   6.932   1.537 -0.0938 -0.0857  0.2615
    5BIM    C27 5551   3.106   6.979   1.582 -0.0686 -0.1148  0.2218
    5BIM    C28 5552   3.172   7.111   1.567 -0.0973 -0.0900  0.3117
    5BIM    C29 5553   3.121   7.221   1.502 -0.1582 -0.0298  0.4617
    5BIM    C30 5554   2.992   7.222   1.439 -0.2031  0.0187  0.5527
    5BIM    C31 5555   3.192   7.345   1.493 -0.1819 -0.0100  0.5391
    1BTD     S2 5556   9.375   2.381   3.810  0.0329  0.0454  0.1595
    1BTD     N1 5557   9.340   2.546   3.748 -0.2823  0.0083  0.2355
    1BTD     N2 5558   9.263   2.298   3.697  0.2272 -0.1234  0.0880
    1BTD     N3 5559   8.970   2.428   3.354  0.0544 -0.5342  0.0796
    1BTD     N4 5560   9.065   2.733   3.416 -0.5736 -0.3720  0.2614
    1BTD     C5 5561   9.196   2.640   3.574 -0.4270 -0.1922  0.2468
    1BTD     C6 5562   9.251   2.532   3.651 -0.2294 -0.1212  0.2052
    1BTD     C7 5563   9.208   2.393   3.622  0.0558 -0.1950  0.1227
    1BTD     C8 5564   9.111   2.370   3.518  0.1292 -0.3360  0.0858
    1BTD    C15 5565   9.059   2.479   3.446 -0.0711 -0.4013  0.1288
    1BTD    C16 5566   9.101   2.612   3.473 -0.3458 -0.3302  0.2084
    1BTD    C43 5567   8.935   2.770   3.352  0.0209  0.3427  0.4609
    1BTD    C44 5568   8.916   2.865   3.238  0.0646 -0.0322  0.5057
    1BTD    C45 5569   9.004   2.832   3.113  0.4843 -0.3098  0.2415
    1BTD    C46 5570   9.017   2.929   2.995 -0.1409 -0.4676 -0.0521
    1BTD    C47 5571   8.762   2.899   3.215 -0.2144  0.0382 -0.3321
    1BTD    C48 5572   8.674   2.956   3.327  0.3547 -0.3262 -0.2863
    1BTD    C49 5573   8.705   3.079   3.408 -0.8465 -0.0295 -0.4804
    1BTD    C50 5574   8.590   3.127   3.495  0.1548  0.3102 -0.5139
    1BTD    C75 5575   8.909   2.480   3.230 -0.0691 -1.0839  0.1310
    1BTD    C76 5576   8.958   2.417   3.099 -0.2559 -0.9649 -0.4381
    1BTD    C77 5577   9.115   2.430   3.084  0.0422  0.0285 -0.0264
    1BTD    C78 5578   9.178   2.335   2.981  0.1626  0.7267  0.5295
    1BTD    C79 5579   8.878   2.448   2.980 -0.1721  0.3004 -0.6224
    1BTD    C80 5580   8.896   2.577   2.895  0.6585  0.0370 -0.2094
    1BTD    C81 5581   8.777   2.614   2.812  0.3817  0.0096 -0.1117
    1BTD    C82 5582   8.804   2.720   2.703  0.4889 -0.1947  0.0181
    2TTP     S1 5583   9.304   2.910   3.673  0.1183 -0.1145 -0.1551
    2TTP     S5 5584   9.037   3.112   3.403 -0.0627  0.1726  0.2370
    2TTP     C1 5585   9.123   3.237   3.503  0.0842  0.0718  0.2357
    2TTP     C2 5586   9.211   3.182   3.592  0.1495 -0.0228  0.1144
    2TTP     C3 5587   9.213   3.039   3.585  0.0849 -0.0191  0.0184
    2TTP     C4 5588   9.217   2.785   3.574 -0.0286 -0.0136 -0.1538
    2TTP    C17 5589   9.130   2.840   3.485 -0.0935  0.0809 -0.0326
    2TTP    C18 5590   9.128   2.983   3.492 -0.0291  0.0773  0.0635
    2TTP    C32 5591   9.312   3.256   3.681  0.2324  0.2366  0.3720
    2TTP    C33 5592   9.306   3.219   3.835 -0.4072  0.0613  0.3961
    2TTP    C34 5593   9.177   3.252   3.907 -0.4003  0.1996  0.6746
    2TTP    C35 5594   9.197   3.304   4.052  0.1038 -0.2047 -0.3109
    2TTP    C36 5595   9.071   3.321   4.137 -0.2659 -0.0420  0.7941
    2TTP    C37 5596   9.091   3.370   4.276 -0.1032  0.3488 -0.1829
    2TTP    C38 5597   9.086   3.265   4.387 -0.1779 -0.2520  0.7701
    2TTP    C39 5598   8.946   3.208   4.414 -0.2278  0.3409  0.5780
    2TTP    C40 5599   8.921   3.053   4.411  0.1618 -0.6200 -0.0816
    2TTP    C41 5600   8.923   2.965   4.284 -1.8367  0.0042 -0.4379
    2TTP    C42 5601   8.919   2.817   4.329 -0.0695 -0.0812  0.5798
    3TTP     S1 5602   9.027   2.080   3.511 -0.1438 -0.0142 -0.1605
    3TTP     S5 5603   8.729   2.175   3.216 -0.3283  0.1960  0.0934
    3TTP     C1 5604   8.713   1.999   3.260 -0.3294  0.1753  0.0108
    3TTP     C2 5605   8.804   1.959   3.353 -0.2725  0.1091 -0.0724
    3TTP     C3 5606   8.890   2.066   3.394 -0.2258  0.0725 -0.0740
    3TTP     C4 5607   9.043   2.255   3.466 -0.1426  0.0066 -0.0779
    3TTP    C17 5608   8.952   2.295   3.373 -0.1995  0.0728  0.0052
    3TTP    C18 5609   8.866   2.188   3.332 -0.2460  0.1093  0.0069
    3TTP    C32 5610   8.806   1.828   3.429 -0.4233  0.8325  0.1638
    3TTP    C33 5611   8.919   1.718   3.399 -0.3508 -0.2342 -0.1422
    3TTP    C34 5612   8.915   1.594   3.496  0.4120 -0.2788 -0.0283
    3TTP    C35 5613   8.779   1.527   3.511 -0.0682  0.0436  0.1930
    3TTP    C36 5614   8.788   1.380   3.537  0.7791 -0.7222  0.1563
    3TTP    C37 5615   8.661   1.310   3.506 -0.2721  0.5224  0.3819
    3TTP    C38 5616   8.694   1.166   3.546 -0.6829  0.1292  0.2232
    3TTP    C39 5617   8.577   1.079   3.555  0.5172  0.8500 -0.3170
    3TTP    C40 5618   8.603   0.925   3.514  0.0812  0.1650  0.6573
    3TTP    C41 5619   8.623   0.906   3.364  0.1478 -0.1743  0.6481
    3TTP    C42 5620   8.600   0.764   3.318  0.1958 -0.0493 -0.4916
    4BIM     F1 5621   8.620   3.729   3.078  0.0572  0.0242 -0.2429
    4BIM     F2 5622   8.715   3.940   3.221 -0.1166 -0.0060 -0.0824
    4BIM     O1 5623   8.903   3.323   3.296  0.0284  0.0226 -0.2081
    4BIM     N5 5624   9.053   3.954   3.582 -0.3874 -0.0505  0.1733
    4BIM     N6 5625   9.255   3.594   3.723 -0.3750 -0.0457  0.1683
    4BIM    C19 5626   9.095   3.380   3.510 -0.1481 -0.0068 -0.0423
    4BIM    C20 5627   9.020   3.474   3.450 -0.1340 -0.0052 -0.0573
    4BIM    C21 5628   8.923   3.437   3.340 -0.0415  0.0104 -0.1444
    4BIM    C22 5629   8.859   3.562   3.297 -0.0498  0.0079 -0.1385
    4BIM    C23 5630   8.762   3.578   3.198  0.0179  0.0190 -0.2030
    4BIM    C24 5631   8.716   3.706   3.174 -0.0064  0.0140 -0.1823
    4BIM    C25 5632   8.765   3.815   3.248 -0.0960 -0.0016 -0.0994
    4BIM    C26 5633   8.861   3.800   3.347 -0.1640 -0.0127 -0.0348
    4BIM    C27 5634   8.909   3.671   3.372 -0.1409 -0.0078 -0.0546
    4BIM    C28 5635   9.010   3.621   3.469 -0.1960 -0.0166 -0.0014
    4BIM    C29 5636   9.081   3.697   3.559 -0.2873 -0.0321  0.0835
    4BIM    C30 5637   9.066   3.838   3.571 -0.3417 -0.0421  0.1326
    4BIM    C31 5638   9.177   3.640   3.649 -0.3350 -0.0395  0.1296
    5BIM     F1 5639   8.013   2.081   2.841  0.0415  0.0510 -0.1872
    5BIM     F2 5640   8.018   1.814   2.790 -0.0894  0.0045  0.0429
    5BIM     O1 5641   8.458   2.136   3.144 -0.0207  0.0654 -0.0979
    5BIM     N5 5642   8.341   1.468   2.934 -0.3219 -0.0519  0.4373
    5BIM     N6 5643   8.689   1.565   3.181 -0.3440 -0.0312  0.4607
    5BIM    C19 5644   8.621   1.900   3.203 -0.1679  0.0262  0.1537
    5BIM    C20 5645   8.509   1.897   3.129 -0.1473  0.0244  0.1222
    5BIM    C21 5646   8.430   2.022   3.103 -0.0706  0.0454 -0.0091
    5BIM    C22 5647   8.315   1.983   3.020 -0.0663  0.0373 -0.0110
    5BIM    C23 5648   8.215   2.066   2.970 -0.0062  0.0504 -0.1121
    5BIM    C24 5649   8.116   2.006   2.893 -0.0156  0.0390 -0.0912
    5BIM    C25 5650   8.118   1.868   2.867 -0.0829  0.0151  0.0275
    5BIM    C26 5651   8.218   1.785   2.916 -0.1433  0.0018  0.1287
    5BIM    C27 5652   8.319   1.844   2.994 -0.1347  0.0131  0.1094
    5BIM    C28 5653   8.438   1.785   3.061 -0.1869  0.0043  0.1960
    5BIM    C29 5654   8.476   1.653   3.059 -0.2589 -0.0183  0.3206
    5BIM    C30 5655   8.402   1.552   2.990 -0.2930 -0.0367  0.3844
    5BIM    C31 5656   8.593   1.605   3.126 -0.3052 -0.0253  0.3970
    1BTD     S2 5657   5.437   3.336   6.759  0.2606 -0.0822  0.1058
    1BTD     N1 5658   5.431   3.514   6.788  0.4965  0.0435 -0.5772
    1BTD     N2 5659   5.283   3.331   6.668 -0.0548 -0.3353  0.6411
    1BTD     N3 5660   4.957   3.641   6.533 -0.2713 -0.6239  0.4983
    1BTD     N4 5661   5.140   3.866   6.682  0.4082 -0.1573 -1.0030
    1BTD     C5 5662   5.277   3.695   6.731  0.4423 -0.0670 -0.7814
    1BTD     C6 5663   5.320   3.558   6.731  0.3365 -0.1021 -0.3815
    1BTD     C7 5664   5.237   3.455   6.663  0.0278 -0.3141  0.3006
    1BTD     C8 5665   5.115   3.496   6.599 -0.1596 -0.4804  0.5485
    1BTD    C15 5666   5.077   3.631   6.601 -0.0466 -0.4387  0.1389
    1BTD    C16 5667   5.157   3.730   6.667  0.2509 -0.2344 -0.5180
    1BTD    C43 5668   5.025   3.956   6.673  0.2480  0.6064  0.5138
    1BTD    C44 5669   4.923   3.963   6.785  0.0110  1.0397  0.2136
    1BTD    C45 5670   4.983   3.985   6.919  0.5074 -0.5921 -0.1667
    1BTD    C46 5671   5.021   4.123   6.970  0.5531 -1.0277  0.0818
    1BTD    C47 5672   4.811   4.056   6.738  0.5062  0.3640  0.1178
    1BTD    C48 5673   4.682   4.057   6.820  0.3801  0.1818  0.4570
    1BTD    C49 5674   4.552   3.998   6.757  0.5619 -0.4034  0.8320
    1BTD    C50 5675   4.431   4.032   6.843  0.2143  0.1837 -0.2596
    1BTD    C75 5676   4.879   3.757   6.476  0.4413  0.1900 -0.2892
    1BTD    C76 5677   4.920   3.821   6.338 -0.5309  0.0119 -0.6306
    1BTD    C77 5678   5.074   3.830   6.317  0.0009  0.5608  0.1472
    1BTD    C78 5679   5.158   3.711   6.265  0.1440 -0.0882  0.1080
    1BTD    C79 5680   4.845   3.958   6.319 -0.1124 -0.0485  0.2791
    1BTD    C80 5681   4.689   3.956   6.311  0.0177 -0.4057  0.2961
    1BTD    C81 5682   4.640   3.896   6.177 -0.0876 -0.2961  0.2646
    1BTD    C82 5683   4.485   3.885   6.172  0.0004 -0.4174 -0.1340
    2TTP     S1 5684   5.509   3.879   6.801  0.0754  0.2371 -0.0179
    2TTP     S5 5685   5.255   4.213   6.707 -0.4193 -0.2944 -0.5811
    2TTP     C1 5686   5.422   4.275   6.739 -0.5322  0.0178 -0.5905
    2TTP     C2 5687   5.511   4.176   6.770 -0.3862  0.2004 -0.4172
    2TTP     C3 5688   5.449   4.047   6.770 -0.1796  0.1001 -0.2706
    2TTP     C4 5689   5.341   3.817   6.769  0.1884 -0.0751 -0.0083
    2TTP    C17 5690   5.253   3.916   6.738  0.0422 -0.2576 -0.1818
    2TTP    C18 5691   5.314   4.045   6.739 -0.1643 -0.1576 -0.3283
    2TTP    C32 5692   5.665   4.202   6.781  0.5131 -0.0652 -0.6322
    2TTP    C33 5693   5.753   4.116   6.699  0.3473  0.2998  1.3463
    2TTP    C34 5694   5.740   4.128   6.550  0.1702  0.4844  0.2688
    2TTP    C35 5695   5.829   4.027   6.477 -0.4582  0.1122 -0.2455
    2TTP    C36 5696   5.792   3.879   6.481 -0.5984  0.3488 -0.2397
    2TTP    C37 5697   5.900   3.773   6.441  0.1350  0.5745  0.1384
    2TTP    C38 5698   6.030   3.766   6.521  1.0342 -0.1213  0.0395
    2TTP    C39 5699   6.095   3.634   6.470 -0.0856 -0.0603  0.0014
    2TTP    C40 5700   6.246   3.637   6.505  0.0235 -0.3497 -0.2983
    2TTP    C41 5701   6.322   3.507   6.491  0.2832  0.3214  0.0890
    2TTP    C42 5702   6.282   3.376   6.567 -0.3753 -0.3101 -0.0488
    3TTP     S1 5703   4.955   3.248   6.509 -0.0587 -0.1786  0.0353
    3TTP     S5 5704   4.650   3.511   6.358 -0.1198 -0.1004  0.2929
    3TTP     C1 5705   4.599   3.339   6.328 -0.1332 -0.0849  0.2273
    3TTP     C2 5706   4.690   3.247   6.373 -0.1152 -0.1081  0.1440
    3TTP     C3 5707   4.804   3.310   6.433 -0.0900 -0.1391  0.1289
    3TTP     C4 5708   5.006   3.420   6.540 -0.0452 -0.1941  0.1009
    3TTP    C17 5709   4.915   3.511   6.495 -0.0633 -0.1709  0.1842
    3TTP    C18 5710   4.801   3.449   6.435 -0.0885 -0.1400  0.1994
    3TTP    C32 5711   4.675   3.097   6.362  0.3367  0.2717 -0.2368
    3TTP    C33 5712   4.781   3.008   6.287  0.0472  0.0994  0.7343
    3TTP    C34 5713   4.802   3.033   6.135 -0.0135  0.6629  0.0808
    3TTP    C35 5714   4.678   3.015   6.053  0.0039 -0.0472  0.6611
    3TTP    C36 5715   4.585   2.896   6.053 -0.4266  0.0082  0.3608
    3TTP    C37 5716   4.459   2.915   5.966 -0.0119  0.7634 -0.4939
    3TTP    C38 5717   4.347   2.820   6.011  0.1563 -0.1481  0.2832
    3TTP    C39 5718   4.343   2.672   5.989  0.3886 -0.0974 -0.1718
    3TTP    C40 5719   4.332   2.621   5.844 -0.1889  0.2378  0.6033
    3TTP    C41 5720   4.217   2.673   5.755  0.6780  0.4636  0.2381
    3TTP    C42 5721   4.083   2.610   5.780  1.2230 -0.5061  0.4081
    4BIM     F1 5722   5.037   4.988   6.595  0.0110 -0.2307  0.0618
    4BIM     F2 5723   5.278   5.099   6.534 -0.0304 -0.0218  0.2784
    4BIM     O1 5724   5.186   4.484   6.727  0.2755 -0.2358 -0.2527
    4BIM     N5 5725   5.731   4.900   6.542  0.0986  0.2748  0.3654
    4BIM     N6 5726   5.799   4.484   6.658  0.3136  0.2286  0.0762
    4BIM    C19 5727   5.469   4.412   6.716  0.3300 -0.0381 -0.1576
    4BIM    C20 5728   5.422   4.534   6.685  0.2650 -0.0451 -0.0869
    4BIM    C21 5729   5.275   4.564   6.693  0.2408 -0.1495 -0.1427
    4BIM    C22 5730   5.259   4.705   6.653  0.1683 -0.1289 -0.0408
    4BIM    C23 5731   5.140   4.777   6.645  0.1241 -0.2015 -0.0473
    4BIM    C24 5732   5.150   4.910   6.605  0.0574 -0.1632  0.0614
    4BIM    C25 5733   5.274   4.967   6.574  0.0363 -0.0556  0.1731
    4BIM    C26 5734   5.393   4.895   6.582  0.0801  0.0173  0.1801
    4BIM    C27 5735   5.385   4.761   6.622  0.1477 -0.0199  0.0709
    4BIM    C28 5736   5.491   4.658   6.641  0.2062  0.0359  0.0470
    4BIM    C29 5737   5.626   4.675   6.621  0.2061  0.1422  0.1327
    4BIM    C30 5738   5.683   4.798   6.577  0.1470  0.2147  0.2605
    4BIM    C31 5739   5.720   4.570   6.641  0.2654  0.1892  0.1011
    5BIM     F1 5740   4.112   3.697   5.766 -0.0046 -0.1591 -0.1552
    5BIM     F2 5741   3.945   3.483   5.784 -0.2627  0.0784  0.3102
    5BIM     O1 5742   4.501   3.552   6.113  0.2924 -0.2928 -0.5419
    5BIM     N5 5743   3.982   3.072   6.057 -0.4217  0.3247  0.7035
    5BIM     N6 5744   4.319   3.002   6.325 -0.1376  0.1724  0.3074
    5BIM    C19 5745   4.480   3.297   6.254  0.1516 -0.1133 -0.2349
    5BIM    C20 5746   4.388   3.341   6.165  0.0869 -0.0889 -0.1558
    5BIM    C21 5747   4.406   3.474   6.097  0.1664 -0.1860 -0.3245
    5BIM    C22 5748   4.290   3.492   6.009  0.0653 -0.1293 -0.1810
    5BIM    C23 5749   4.262   3.600   5.925  0.0902 -0.1835 -0.2592
    5BIM    C24 5750   4.145   3.594   5.850 -0.0222 -0.1114 -0.0899
    5BIM    C25 5751   4.059   3.484   5.860 -0.1547  0.0109  0.1497
    5BIM    C26 5752   4.086   3.376   5.943 -0.1805  0.0657  0.2290
    5BIM    C27 5753   4.204   3.380   6.019 -0.0681 -0.0060  0.0602
    5BIM    C28 5754   4.261   3.283   6.116 -0.0602  0.0237  0.0854
    5BIM    C29 5755   4.207   3.162   6.153 -0.1683  0.1345  0.2922
    5BIM    C30 5756   4.083   3.113   6.100 -0.3073  0.2387  0.5177
    5BIM    C31 5757   4.269   3.075   6.247 -0.1509  0.1547  0.2995
    1BTD     S2 5758   0.855   4.422   1.303 -0.1754  0.2731  0.0884
    1BTD     N1 5759   0.978   4.298   1.344 -0.1724  0.2066 -0.1229
    1BTD     N2 5760   0.943   4.557   1.383 -0.0811  0.1795  0.1431
    1BTD     N3 5761   1.346   4.608   1.619  0.1166 -0.1315 -0.1267
    1BTD     N4 5762   1.390   4.289   1.570  0.0041 -0.0980 -0.4545
    1BTD     C5 5763   1.192   4.297   1.462 -0.0789  0.0471 -0.2920
    1BTD     C6 5764   1.074   4.361   1.411 -0.1047  0.1224 -0.1408
    1BTD     C7 5765   1.054   4.506   1.433 -0.0536  0.1072  0.0081
    1BTD     C8 5766   1.154   4.580   1.505  0.0208  0.0175 -0.0018
    1BTD    C15 5767   1.268   4.514   1.554  0.0436 -0.0543 -0.1524
    1BTD    C16 5768   1.287   4.374   1.533 -0.0056 -0.0394 -0.2959
    1BTD    C43 5769   1.538   4.306   1.590 -0.0675 -0.3894 -0.2340
    1BTD    C44 5770   1.638   4.316   1.465 -0.3333 -0.3626  0.0992
    1BTD    C45 5771   1.787   4.334   1.496 -0.2828 -0.2151  0.4343
    1BTD    C46 5772   1.850   4.224   1.583 -0.2631  0.0396  0.3319
    1BTD    C47 5773   1.595   4.431   1.372 -0.0481  0.0275  0.1285
    1BTD    C48 5774   1.626   4.415   1.228 -0.5838  0.1373  0.1657
    1BTD    C49 5775   1.569   4.527   1.145  0.1594 -0.0621  0.0445
    1BTD    C50 5776   1.585   4.518   0.992 -0.2378 -0.9497 -0.1103
    1BTD    C75 5777   1.439   4.575   1.724  0.2383 -0.2043 -0.8774
    1BTD    C76 5778   1.559   4.658   1.766  0.0661  0.3650 -0.2845
    1BTD    C77 5779   1.613   4.619   1.901 -0.1262  0.2157 -0.3842
    1BTD    C78 5780   1.704   4.493   1.929  0.2161 -0.7902  1.0557
    1BTD    C79 5781   1.669   4.670   1.653 -0.3647  0.1341  0.1998
    1BTD    C80 5782   1.778   4.782   1.674 -0.4956  0.1674  0.7256
    1BTD    C81 5783   1.896   4.789   1.574  0.4612  0.3241 -0.3010
    1BTD    C82 5784   2.022   4.855   1.632  0.7869  0.2920  0.4029
    2TTP     S1 5785   1.192   3.996   1.419  0.0763  0.1415 -0.0549
    2TTP     S5 5786   1.565   3.961   1.631  0.0493  0.0663 -0.0196
    2TTP     C1 5787   1.508   3.795   1.586 -0.0845  0.0641  0.1566
    2TTP     C2 5788   1.389   3.795   1.518 -0.0841  0.0871  0.1560
    2TTP     C3 5789   1.339   3.928   1.499  0.0220  0.1074  0.0165
    2TTP     C4 5790   1.249   4.163   1.464  0.2101  0.1439 -0.2309
    2TTP    C17 5791   1.367   4.162   1.532  0.2097  0.1209 -0.2304
    2TTP    C18 5792   1.417   4.029   1.551  0.1037  0.1004 -0.0909
    2TTP    C32 5793   1.319   3.675   1.455  0.0805 -0.5804 -0.1192
    2TTP    C33 5794   1.175   3.659   1.490  0.2156  0.0869 -0.7764
    2TTP    C34 5795   1.095   3.559   1.414  0.6040  1.0118 -0.0542
    2TTP    C35 5796   1.136   3.416   1.460 -0.1945 -0.0227 -0.0048
    2TTP    C36 5797   1.070   3.304   1.373 -0.0704 -0.1674  0.3631
    2TTP    C37 5798   0.919   3.286   1.393  0.2698 -0.2301 -0.0429
    2TTP    C38 5799   0.864   3.160   1.320 -0.5207  0.1683 -0.2496
    2TTP    C39 5800   0.723   3.117   1.356  0.3999 -0.3137  0.3007
    2TTP    C40 5801   0.617   3.175   1.259 -0.1252  0.1724 -0.2195
    2TTP    C41 5802   0.483   3.172   1.317  0.6178 -0.6529  0.0484
    2TTP    C42 5803   0.367   3.210   1.221 -0.5402 -0.4732  0.4458
    3TTP     S1 5804   1.063   4.868   1.526  0.1777  0.0833  0.0071
    3TTP     S5 5805   1.423   4.959   1.743  0.0583  0.2323  0.1441
    3TTP     C1 5806   1.322   5.110   1.732 -0.0661  0.1561  0.2304
    3TTP     C2 5807   1.205   5.091   1.665 -0.0365  0.1056  0.1932
    3TTP     C3 5808   1.190   4.956   1.619  0.0854  0.1254  0.0952
    3TTP     C4 5809   1.163   4.717   1.537  0.3022  0.1595 -0.0792
    3TTP    C17 5810   1.280   4.736   1.605  0.2726  0.2101 -0.0419
    3TTP    C18 5811   1.295   4.871   1.650  0.1507  0.1904  0.0561
    3TTP    C32 5812   1.103   5.196   1.620 -0.8497  0.0693 -0.3056
    3TTP    C33 5813   1.123   5.248   1.477  0.2840  0.4999 -0.7957
    3TTP    C34 5814   0.997   5.312   1.423 -0.3159 -0.1670  0.5351
    3TTP    C35 5815   1.010   5.377   1.284 -0.9909 -0.0120 -0.0157
    3TTP    C36 5816   0.884   5.434   1.223 -0.2026 -0.3617 -0.3118
    3TTP    C37 5817   0.794   5.539   1.298 -0.4114  0.3047 -0.1679
    3TTP    C38 5818   0.844   5.682   1.318 -0.2771  0.1333 -0.2655
    3TTP    C39 5819   0.878   5.748   1.181  0.7288 -0.5275  0.1649
    3TTP    C40 5820   0.947   5.889   1.200 -0.2877  0.8095 -0.2460
    3TTP    C41 5821   0.955   5.966   1.078  0.0730 -0.6391 -0.1708
    3TTP    C42 5822   1.048   6.090   1.102  0.3331  0.4540  0.3942
    4BIM     F1 5823   2.229   3.583   1.924  0.1166  0.1661 -0.4737
    4BIM     F2 5824   2.154   3.323   1.903  0.0663  0.1557 -0.1728
    4BIM     O1 5825   1.798   3.831   1.710 -0.0876  0.0299 -0.2204
    4BIM     N5 5826   1.739   3.124   1.721 -0.1517  0.0439  0.4403
    4BIM     N6 5827   1.417   3.370   1.558 -0.3012 -0.0603  0.5775
    4BIM    C19 5828   1.573   3.670   1.614 -0.2083 -0.0282  0.1570
    4BIM    C20 5829   1.684   3.618   1.669 -0.1549  0.0064  0.0815
    4BIM    C21 5830   1.796   3.707   1.716 -0.0947  0.0348 -0.1134
    4BIM    C22 5831   1.901   3.619   1.770 -0.0463  0.0692 -0.1513
    4BIM    C23 5832   2.023   3.656   1.825  0.0169  0.1030 -0.3139
    4BIM    C24 5833   2.106   3.554   1.869  0.0537  0.1317 -0.3172
    4BIM    C25 5834   2.068   3.420   1.858  0.0276  0.1263 -0.1620
    4BIM    C26 5835   1.946   3.382   1.803 -0.0354  0.0926  0.0007
    4BIM    C27 5836   1.860   3.483   1.758 -0.0734  0.0633  0.0067
    4BIM    C28 5837   1.726   3.478   1.696 -0.1412  0.0245  0.1559
    4BIM    C29 5838   1.653   3.364   1.668 -0.1831  0.0084  0.3297
    4BIM    C30 5839   1.701   3.232   1.697 -0.1656  0.0280  0.3899
    4BIM    C31 5840   1.524   3.368   1.608 -0.2478 -0.0293  0.4651
    5BIM     F1 5841   1.926   5.421   2.199 -0.0750 -0.1467  0.1907
    5BIM     F2 5842   1.789   5.657   2.207  0.2033  0.0210  0.0297
    5BIM     O1 5843   1.598   5.124   1.887 -0.2864  0.1179  0.1604
    5BIM     N5 5844   1.360   5.784   1.997  0.4526  0.4507 -0.2232
    5BIM     N6 5845   1.131   5.504   1.751  0.2312  0.6237 -0.2144
    5BIM    C19 5846   1.351   5.244   1.784 -0.0958  0.3721 -0.0041
    5BIM    C20 5847   1.439   5.309   1.862 -0.0534  0.2990  0.0098
    5BIM    C21 5848   1.564   5.241   1.911 -0.1577  0.1693  0.0962
    5BIM    C22 5849   1.636   5.340   1.993 -0.0771  0.1161  0.0891
    5BIM    C23 5850   1.757   5.323   2.060 -0.1283 -0.0019  0.1527
    5BIM    C24 5851   1.806   5.431   2.131 -0.0315 -0.0315  0.1309
    5BIM    C25 5852   1.736   5.553   2.135  0.1118  0.0551  0.0478
    5BIM    C26 5853   1.615   5.570   2.069  0.1636  0.1731 -0.0159
    5BIM    C27 5854   1.564   5.462   1.996  0.0672  0.2047  0.0050
    5BIM    C28 5855   1.440   5.448   1.916  0.0875  0.3204 -0.0470
    5BIM    C29 5856   1.344   5.544   1.896  0.2128  0.4271 -0.1317
    5BIM    C30 5857   1.353   5.676   1.951  0.3442  0.4396 -0.1817
    5BIM    C31 5858   1.227   5.522   1.816  0.2222  0.5348 -0.1767
    1BTD     S2 5859   4.110   6.916   8.648  0.1690 -0.0977  0.0795
    1BTD     N1 5860   3.938   6.941   8.601  0.1392 -0.0042  0.2377
    1BTD     N2 5861   4.109   6.740   8.613  0.1062 -0.0558 -0.1357
    1BTD     N3 5862   3.796   6.425   8.459 -0.0752  0.1981 -0.2871
    1BTD     N4 5863   3.585   6.673   8.444 -0.0346  0.2615  0.1731
    1BTD     C5 5864   3.756   6.798   8.519  0.0479  0.1339  0.1988
    1BTD     C6 5865   3.891   6.823   8.564  0.0868  0.0505  0.1285
    1BTD     C7 5866   3.986   6.710   8.571  0.0683  0.0217 -0.0808
    1BTD     C8 5867   3.943   6.578   8.533  0.0120  0.0774 -0.2091
    1BTD    C15 5868   3.810   6.559   8.489 -0.0245  0.1584 -0.1337
    1BTD    C16 5869   3.718   6.668   8.483 -0.0069  0.1863  0.0678
    1BTD    C43 5870   3.486   6.571   8.437 -0.7824 -0.0861  0.2079
    1BTD    C44 5871   3.399   6.522   8.562 -0.0532  0.4164  0.8148
    1BTD    C45 5872   3.299   6.409   8.522  0.2217  0.1544  0.1528
    1BTD    C46 5873   3.205   6.433   8.405  0.2108  0.1876  0.8409
    1BTD    C47 5874   3.479   6.486   8.688 -0.3027 -0.3048  0.0070
    1BTD    C48 5875   3.406   6.430   8.813 -0.8011 -0.4589 -0.0791
    1BTD    C49 5876   3.509   6.377   8.909 -0.1450  0.0408  0.0360
    1BTD    C50 5877   3.457   6.293   9.029 -0.2634 -0.9238  0.6225
    1BTD    C75 5878   3.727   6.377   8.347  0.0095  0.3255  0.4521
    1BTD    C76 5879   3.681   6.233   8.330  0.2398  0.0127 -0.5014
    1BTD    C77 5880   3.615   6.197   8.200  0.1871 -0.7085  0.8678
    1BTD    C78 5881   3.502   6.287   8.136 -0.3310 -0.1831 -0.6012
    1BTD    C79 5882   3.594   6.184   8.453  0.2678  0.3208 -0.4341
    1BTD    C80 5883   3.556   6.030   8.449 -0.0609  0.5636 -0.1546
    1BTD    C81 5884   3.468   5.962   8.552  0.4305 -0.3292 -0.7544
    1BTD    C82 5885   3.329   6.037   8.579  0.5821  0.3730 -0.0470
    2TTP     S1 5886   3.586   7.056   8.536 -0.1288 -0.2336  0.1651
    2TTP     S5 5887   3.251   6.838   8.379 -0.0634  0.0429 -0.3667
    2TTP     C1 5888   3.199   7.010   8.409  0.0061  0.0629 -0.3610
    2TTP     C2 5889   3.300   7.087   8.459 -0.0100 -0.0215 -0.1967
    2TTP     C3 5890   3.421   7.014   8.475 -0.0778 -0.1045 -0.0689
    2TTP     C4 5891   3.638   6.884   8.506 -0.1984 -0.2534  0.1597
    2TTP    C17 5892   3.537   6.807   8.456 -0.1822 -0.1693 -0.0048
    2TTP    C18 5893   3.416   6.880   8.439 -0.1144 -0.0859 -0.1326
    2TTP    C32 5894   3.291   7.233   8.496 -1.7419  0.0602  0.3102
    2TTP    C33 5895   3.225   7.281   8.624  0.3798  0.2049 -0.0019
    2TTP    C34 5896   3.277   7.250   8.764 -0.1091 -0.0412 -0.6761
    2TTP    C35 5897   3.294   7.100   8.801 -0.7165  0.6808 -0.1550
    2TTP    C36 5898   3.174   6.998   8.805  0.0882 -0.3490 -0.3258
    2TTP    C37 5899   3.210   6.858   8.863  0.2798 -0.2173  0.1891
    2TTP    C38 5900   3.091   6.760   8.871  0.0342 -0.0085  0.5550
    2TTP    C39 5901   3.012   6.745   8.735 -0.0799  0.4354 -1.1210
    2TTP    C40 5902   2.924   6.618   8.740 -0.2040  0.4653  0.2291
    2TTP    C41 5903   2.863   6.574   8.609 -0.3485 -0.2995 -0.3948
    2TTP    C42 5904   2.804   6.435   8.599 -0.1216  0.4846 -0.1599
    3TTP     S1 5905   4.165   6.380   8.601  0.0024 -0.1145 -0.0639
    3TTP     S5 5906   3.921   6.065   8.439  0.0440 -0.0769 -0.1998
    3TTP     C1 5907   4.080   5.994   8.490  0.0313 -0.0886 -0.1765
    3TTP     C2 5908   4.165   6.087   8.543  0.0178 -0.1007 -0.1328
    3TTP     C3 5909   4.107   6.218   8.545  0.0168 -0.1014 -0.1168
    3TTP     C4 5910   4.006   6.451   8.550  0.0150 -0.1029 -0.0873
    3TTP    C17 5911   3.921   6.358   8.497  0.0287 -0.0906 -0.1310
    3TTP    C18 5912   3.979   6.227   8.494  0.0296 -0.0900 -0.1471
    3TTP    C32 5913   4.307   6.062   8.597 -0.5119  0.1352 -0.2833
    3TTP    C33 5914   4.322   6.080   8.751 -0.1573 -0.2781  0.7138
    3TTP    C34 5915   4.464   6.058   8.801 -0.0810  0.0254 -0.3454
    3TTP    C35 5916   4.582   6.136   8.752  0.0667 -0.0623  0.2401
    3TTP    C36 5917   4.579   6.291   8.737 -0.3916 -0.3357 -0.0400
    3TTP    C37 5918   4.541   6.378   8.862  0.1104  0.1232 -1.0986
    3TTP    C38 5919   4.583   6.338   9.004 -0.0711 -1.0592 -0.2265
    3TTP    C39 5920   4.527   6.444   9.107 -0.3983  0.4639  0.3207
    3TTP    C40 5921   4.576   6.402   9.242  0.0601 -0.4879  0.4813
    3TTP    C41 5922   4.560   6.507   9.346  0.1379  0.2349  0.0896
    3TTP    C42 5923   4.627   6.479   9.474  0.0594  0.0468 -0.1977
    4BIM     F1 5924   2.504   6.679   8.115 -0.0988  0.1599  0.1624
    4BIM     F2 5925   2.400   6.930   8.100  0.1071  0.2360 -0.0083
    4BIM     O1 5926   2.993   6.784   8.324 -0.0644 -0.1140  0.2208
    4BIM     N5 5927   2.597   7.365   8.227  0.4277  0.1503 -0.2112
    4BIM     N6 5928   3.000   7.397   8.393  0.4131 -0.0790 -0.1309
    4BIM    C19 5929   3.066   7.061   8.384  0.1444 -0.1384  0.0787
    4BIM    C20 5930   2.947   7.025   8.332  0.1278 -0.0726  0.0708
    4BIM    C21 5931   2.917   6.880   8.304  0.0180 -0.0644  0.1466
    4BIM    C22 5932   2.781   6.876   8.248  0.0282  0.0138  0.1156
    4BIM    C23 5933   2.709   6.764   8.207 -0.0521  0.0480  0.1626
    4BIM    C24 5934   2.581   6.785   8.158 -0.0233  0.1228  0.1196
    4BIM    C25 5935   2.527   6.915   8.150  0.0829  0.1618  0.0318
    4BIM    C26 5936   2.598   7.027   8.191  0.1635  0.1283 -0.0157
    4BIM    C27 5937   2.728   7.008   8.241  0.1357  0.0526  0.0272
    4BIM    C28 5938   2.828   7.104   8.292  0.2012  0.0010 -0.0041
    4BIM    C29 5939   2.814   7.241   8.301  0.3092  0.0181 -0.0863
    4BIM    C30 5940   2.695   7.309   8.260  0.3739  0.0908 -0.1545
    4BIM    C31 5941   2.916   7.326   8.352  0.3656 -0.0354 -0.1104
    5BIM     F1 5942   3.711   5.302   8.235 -0.1173  0.1367 -0.3126
    5BIM     F2 5943   3.936   5.165   8.302 -0.2914  0.0045  0.0038
    5BIM     O1 5944   3.855   5.807   8.368  0.1044  0.0970 -0.3998
    5BIM     N5 5945   4.363   5.327   8.494 -0.3835 -0.2139  0.3958
    5BIM     N6 5946   4.430   5.749   8.584 -0.1751 -0.2185  0.2639
    5BIM    C19 5947   4.121   5.855   8.479  0.0168 -0.0436 -0.1289
    5BIM    C20 5948   4.076   5.733   8.443 -0.0322 -0.0283 -0.1192
    5BIM    C21 5949   3.938   5.717   8.387  0.0179  0.0451 -0.2639
    5BIM    C22 5950   3.922   5.573   8.358 -0.0558  0.0433 -0.2117
    5BIM    C23 5951   3.810   5.509   8.305 -0.0437  0.0988 -0.3040
    5BIM    C24 5952   3.818   5.372   8.287 -0.1242  0.0843 -0.2285
    5BIM    C25 5953   3.934   5.301   8.322 -0.2138  0.0161 -0.0657
    5BIM    C26 5954   4.046   5.364   8.375 -0.2265 -0.0396  0.0269
    5BIM    C27 5955   4.040   5.503   8.394 -0.1458 -0.0260 -0.0474
    5BIM    C28 5956   4.139   5.599   8.448 -0.1347 -0.0726  0.0157
    5BIM    C29 5957   4.266   5.569   8.493 -0.2060 -0.1434  0.1705
    5BIM    C30 5958   4.318   5.436   8.493 -0.3034 -0.1819  0.2937
    5BIM    C31 5959   4.355   5.669   8.543 -0.1886 -0.1842  0.2210
    1BTD     S2 5960   8.946   5.607   0.401  0.0729 -0.3622  0.0230
    1BTD     N1 5961   8.934   5.786   0.394  0.3242 -0.3607 -0.3784
    1BTD     N2 5962   8.780   5.579   0.339 -0.1044 -0.2667  0.4438
    1BTD     N3 5963   8.420   5.845   0.198 -0.0103 -0.0684  0.5766
    1BTD     N4 5964   8.610   6.101   0.265  0.5174 -0.1844 -0.4364
    1BTD     C5 5965   8.763   5.947   0.326  0.4187 -0.2674 -0.3965
    1BTD     C6 5966   8.813   5.814   0.347  0.2666 -0.2925 -0.1879
    1BTD     C7 5967   8.727   5.698   0.317  0.0267 -0.2396  0.2723
    1BTD     C8 5968   8.594   5.721   0.266 -0.0489 -0.1645  0.5009
    1BTD    C15 5969   8.549   5.853   0.247  0.1065 -0.1425  0.2835
    1BTD    C16 5970   8.632   5.965   0.276  0.3372 -0.1932 -0.1599
    1BTD    C43 5971   8.529   6.160   0.158 -0.1487  0.9435  0.0536
    1BTD    C44 5972   8.468   6.305   0.173  0.2649 -0.1922 -0.0533
    1BTD    C45 5973   8.444   6.369   0.039 -0.1748  0.4364 -0.5015
    1BTD    C46 5974   8.568   6.390  -0.042 -0.4111 -0.6827  0.2383
    1BTD    C47 5975   8.348   6.311   0.270  0.2679  0.5112 -0.7760
    1BTD    C48 5976   8.291   6.446   0.305 -0.2917 -0.2250  0.3803
    1BTD    C49 5977   8.194   6.448   0.427  0.6696  0.3673  0.1793
    1BTD    C50 5978   8.135   6.583   0.455 -0.2249 -0.3991 -0.0986
    1BTD    C75 5979   8.314   5.950   0.224 -0.0900  0.6732  0.5663
    1BTD    C76 5980   8.178   5.958   0.150 -0.0245 -0.7403  0.8361
    1BTD    C77 5981   8.071   6.038   0.222 -0.7030  0.0393  0.2495
    1BTD    C78 5982   8.032   5.989   0.355 -0.0080  0.0718 -0.1208
    1BTD    C79 5983   8.185   5.986  -0.001 -0.3460  0.3019  0.4896
    1BTD    C80 5984   8.064   5.973  -0.092 -0.0134  0.1351 -0.3549
    1BTD    C81 5985   8.113   6.000  -0.238  0.3121 -0.4303 -0.0627
    1BTD    C82 5986   8.008   5.990  -0.348  0.2075 -0.3218  0.3178
    2TTP     S1 5987   8.949   6.134   0.455 -0.0142 -0.1132  0.0743
    2TTP     S5 5988   8.640   6.433   0.441 -0.0319 -0.1320  0.0583
    2TTP     C1 5989   8.773   6.492   0.551  0.0140 -0.0714 -0.0287
    2TTP     C2 5990   8.876   6.402   0.562  0.0222 -0.0621 -0.0289
    2TTP     C3 5991   8.854   6.285   0.484 -0.0074 -0.1024  0.0397
    2TTP     C4 5992   8.816   6.075   0.345 -0.0601 -0.1736  0.1613
    2TTP    C17 5993   8.713   6.164   0.334 -0.0679 -0.1830  0.1615
    2TTP    C18 5994   8.735   6.282   0.413 -0.0386 -0.1428  0.0929
    2TTP    C32 5995   9.015   6.416   0.628  0.7973 -0.1887 -0.2645
    2TTP    C33 5996   9.125   6.467   0.533  0.5362  0.1730  0.8363
    2TTP    C34 5997   9.253   6.471   0.609  0.1137  0.0912 -0.3645
    2TTP    C35 5998   9.370   6.491   0.513  0.3118  0.1937 -0.1876
    2TTP    C36 5999   9.502   6.531   0.582  0.0014  0.4405 -0.3506
    2TTP    C37 6000   9.617   6.463   0.507 -0.3159  0.0840 -0.0203
    2TTP    C38 6001   9.759   6.492   0.555  0.0499  0.0188 -0.2784
    2TTP    C39 6002   9.875   6.436   0.477  0.2427  0.1050  0.0740
    2TTP    C40 6003  10.008   6.435   0.551  0.7441 -0.2564 -0.0035
    2TTP    C41 6004  10.124   6.388   0.464  0.4118  0.6033  0.1739
    2TTP    C42 6005  10.119   6.244   0.410  0.3800  0.8204  0.0655
    3TTP     S1 6006   8.462   5.453   0.215  0.2223  0.0303 -0.2488
    3TTP     S5 6007   8.128   5.656   0.036 -0.0782 -0.0976  0.1634
    3TTP     C1 6008   8.105   5.477   0.016  0.0529 -0.1011  0.0382
    3TTP     C2 6009   8.207   5.403   0.070  0.1533 -0.0620 -0.0964
    3TTP     C3 6010   8.307   5.486   0.130  0.1307 -0.0277 -0.1056
    3TTP     C4 6011   8.486   5.632   0.236  0.0913  0.0336 -0.1237
    3TTP    C17 6012   8.384   5.705   0.181 -0.0092 -0.0054  0.0110
    3TTP    C18 6013   8.284   5.622   0.122  0.0136 -0.0397  0.0202
    3TTP    C32 6014   8.218   5.248   0.071  0.3979 -0.3178 -0.1487
    3TTP    C33 6015   8.181   5.177   0.198 -0.6713  0.7371  0.2350
    3TTP    C34 6016   8.225   5.029   0.187  0.3319  0.2800  0.3004
    3TTP    C35 6017   8.191   4.966   0.324  0.0204 -0.3234  0.4802
    3TTP    C36 6018   8.249   4.832   0.352 -0.0032  0.2956 -0.4253
    3TTP    C37 6019   8.189   4.767   0.481  0.1791 -0.5163  0.1373
    3TTP    C38 6020   8.243   4.632   0.524  0.8742  0.0872 -0.0892
    3TTP    C39 6021   8.390   4.613   0.544  0.3509 -0.4160  0.3939
    3TTP    C40 6022   8.464   4.689   0.649  0.0936  0.2424 -0.3255
    3TTP    C41 6023   8.612   4.651   0.655  0.8363 -0.5908 -0.3606
    3TTP    C42 6024   8.674   4.699   0.783  0.7625 -0.2185  0.0855
    4BIM     F1 6025   8.224   7.097   0.661 -0.4549 -0.3794  0.4827
    4BIM     F2 6026   8.407   7.223   0.819 -0.1080  0.0911 -0.2847
    4BIM     O1 6027   8.503   6.655   0.518 -0.4783 -0.4141  0.5443
    4BIM     N5 6028   8.867   7.091   0.943  0.3741  0.7429 -1.3439
    4BIM     N6 6029   9.048   6.720   0.799  0.2856  0.6208 -1.1411
    4BIM    C19 6030   8.776   6.619   0.617 -0.1554  0.0230 -0.1669
    4BIM    C20 6031   8.698   6.725   0.647 -0.1631  0.0134 -0.1525
    4BIM    C21 6032   8.559   6.737   0.592 -0.3343 -0.2182  0.2242
    4BIM    C22 6033   8.504   6.863   0.644 -0.2959 -0.1656  0.1371
    4BIM    C23 6034   8.378   6.917   0.621 -0.4127 -0.3239  0.3944
    4BIM    C24 6035   8.348   7.038   0.681 -0.3463 -0.2326  0.2444
    4BIM    C25 6036   8.442   7.103   0.762 -0.1673  0.0100 -0.1510
    4BIM    C26 6037   8.568   7.050   0.786 -0.0496  0.1690 -0.4094
    4BIM    C27 6038   8.600   6.927   0.726 -0.1147  0.0798 -0.2629
    4BIM    C28 6039   8.723   6.845   0.731 -0.0262  0.1993 -0.4566
    4BIM    C29 6040   8.838   6.875   0.800  0.1493  0.4369 -0.8438
    4BIM    C30 6041   8.854   6.993   0.879  0.2723  0.6043 -1.1174
    4BIM    C31 6042   8.953   6.789   0.799  0.2232  0.5368 -1.0051
    5BIM     F1 6043   7.594   5.731  -0.571 -0.0298 -0.4373 -0.1557
    5BIM     F2 6044   7.445   5.506  -0.531 -0.2192 -0.2202  0.3700
    5BIM     O1 6045   7.996   5.652  -0.217  0.2540 -0.2569 -0.4365
    5BIM     N5 6046   7.518   5.128  -0.220 -0.2888  0.2205  0.9270
    5BIM     N6 6047   7.861   5.112   0.048 -0.0288  0.3175  0.6011
    5BIM    C19 6048   7.996   5.410  -0.052  0.1740  0.0145 -0.0340
    5BIM    C20 6049   7.901   5.439  -0.143  0.1099 -0.0392  0.0162
    5BIM    C21 6050   7.907   5.565  -0.224  0.1572 -0.1795 -0.2015
    5BIM    C22 6051   7.789   5.565  -0.312  0.0659 -0.2064 -0.0796
    5BIM    C23 6052   7.752   5.661  -0.405  0.0696 -0.3229 -0.2031
    5BIM    C24 6053   7.636   5.639  -0.477 -0.0276 -0.3248 -0.0465
    5BIM    C25 6054   7.560   5.524  -0.456 -0.1249 -0.2128  0.2242
    5BIM    C26 6055   7.596   5.427  -0.364 -0.1291 -0.0961  0.3488
    5BIM    C27 6056   7.713   5.447  -0.290 -0.0316 -0.0923  0.1936
    5BIM    C28 6057   7.779   5.365  -0.185 -0.0083  0.0147  0.2637
    5BIM    C29 6058   7.735   5.244  -0.136 -0.0825  0.1400  0.5102
    5BIM    C30 6059   7.615   5.181  -0.183 -0.1956  0.1836  0.7384
    5BIM    C31 6060   7.805   5.172  -0.035 -0.0525  0.2369  0.5589
    1BTD     S2 6061   9.321   1.873   0.602 -0.0438 -0.0733 -0.2016
    1BTD     N1 6062   9.368   2.045   0.628 -0.3009 -0.0269 -0.0349
    1BTD     N2 6063   9.189   1.912   0.485 -0.0002 -0.1679 -0.2818
    1BTD     N3 6064   9.006   2.300   0.295 -0.3765 -0.2770 -0.1444
    1BTD     N4 6065   9.226   2.464   0.470 -0.7465 -0.1033  0.1598
    1BTD     C5 6066   9.291   2.262   0.543 -0.5288 -0.0688  0.0630
    1BTD     C6 6067   9.287   2.118   0.552 -0.3390 -0.0815 -0.0471
    1BTD     C7 6068   9.187   2.044   0.472 -0.1712 -0.1604 -0.1852
    1BTD     C8 6069   9.096   2.116   0.388 -0.2012 -0.2227 -0.2064
    1BTD    C15 6070   9.104   2.257   0.383 -0.3900 -0.2076 -0.0956
    1BTD    C16 6071   9.200   2.329   0.459 -0.5517 -0.1317  0.0376
    1BTD    C43 6072   9.211   2.552   0.354  0.2867  0.3090  0.4517
    1BTD    C44 6073   9.165   2.693   0.369  0.1189  0.1753 -0.0121
    1BTD    C45 6074   9.038   2.706   0.452 -0.3768 -0.4469  0.2371
    1BTD    C46 6075   8.961   2.840   0.478 -0.5990 -0.0030  0.5865
    1BTD    C47 6076   9.159   2.771   0.241  0.8122  0.4409  0.0659
    1BTD    C48 6077   9.274   2.802   0.144  0.6870  0.2156  0.1306
    1BTD    C49 6078   9.395   2.875   0.197 -0.2566  0.3922 -0.3788
    1BTD    C50 6079   9.520   2.803   0.146  0.2051 -0.0581  0.8454
    1BTD    C75 6080   8.916   2.419   0.318 -0.1689 -0.0275  0.3962
    1BTD    C76 6081   8.849   2.497   0.198  0.5512 -0.2172 -0.4564
    1BTD    C77 6082   8.944   2.545   0.091  0.4577 -0.3036  0.5229
    1BTD    C78 6083   8.896   2.584  -0.050  0.1701  0.2665 -0.3716
    1BTD    C79 6084   8.739   2.603   0.235  0.5333 -0.0118 -0.3062
    1BTD    C80 6085   8.630   2.571   0.339 -0.1846 -0.0093  0.5407
    1BTD    C81 6086   8.529   2.684   0.344  0.2800 -0.0722  0.0900
    1BTD    C82 6087   8.418   2.650   0.440 -0.1163 -0.5111  0.3812
    2TTP     S1 6088   9.532   2.371   0.695  0.2295  0.0429 -0.4207
    2TTP     S5 6089   9.429   2.769   0.568 -0.0594  0.1339  0.0906
    2TTP     C1 6090   9.590   2.775   0.652  0.1574  0.0647 -0.3137
    2TTP     C2 6091   9.632   2.652   0.697  0.2596  0.0327 -0.4954
    2TTP     C3 6092   9.538   2.549   0.666  0.1702  0.0614 -0.3219
    2TTP     C4 6093   9.371   2.365   0.611  0.0126  0.1120 -0.0164
    2TTP    C17 6094   9.330   2.487   0.567 -0.0893  0.1441  0.1653
    2TTP    C18 6095   9.424   2.590   0.598  0.0000  0.1154 -0.0082
    2TTP    C32 6096   9.770   2.615   0.757  0.1158 -0.1698  0.1565
    2TTP    C33 6097   9.759   2.557   0.902  0.2488 -0.0946 -0.2388
    2TTP    C34 6098   9.890   2.499   0.967  0.2318 -0.2745  0.3058
    2TTP    C35 6099   9.951   2.364   0.917 -0.6445  0.0289  0.6380
    2TTP    C36 6100   9.870   2.243   0.924  0.1874  1.1017 -0.5424
    2TTP    C37 6101   9.943   2.107   0.929  0.1144  0.0159 -0.0369
    2TTP    C38 6102   9.864   1.985   0.987  1.0669 -0.7419  0.1249
    2TTP    C39 6103   9.936   1.854   0.970 -0.0980  0.1982 -0.0197
    2TTP    C40 6104   9.846   1.742   1.009 -0.3982  0.1710 -0.1697
    2TTP    C41 6105   9.902   1.608   0.975 -0.6004  0.8500 -0.8930
    2TTP    C42 6106   9.817   1.491   1.034 -0.6609 -1.4330 -0.2821
    3TTP     S1 6107   8.963   1.921   0.202  0.3009  0.0826 -0.1976
    3TTP     S5 6108   8.791   2.250  -0.017 -0.3295  0.0169  0.1926
    3TTP     C1 6109   8.754   2.095  -0.106 -0.0224  0.0511  0.0027
    3TTP     C2 6110   8.805   1.985  -0.044  0.1905  0.0734 -0.1290
    3TTP     C3 6111   8.875   2.018   0.077  0.1185  0.0643 -0.0846
    3TTP     C4 6112   9.000   2.076   0.291 -0.0060  0.0485 -0.0076
    3TTP    C17 6113   8.949   2.186   0.228 -0.2190  0.0261  0.1241
    3TTP    C18 6114   8.879   2.153   0.108 -0.1471  0.0352  0.0797
    3TTP    C32 6115   8.795   1.838  -0.085 -0.2373  0.3469  0.4970
    3TTP    C33 6116   8.769   1.729   0.017  0.3871  0.0739  0.0366
    3TTP    C34 6117   8.752   1.598  -0.065  0.5725 -0.8352  0.0541
    3TTP    C35 6118   8.692   1.477   0.006 -0.4916 -0.1327 -0.0282
    3TTP    C36 6119   8.640   1.367  -0.092 -0.6087 -0.1124  0.0837
    3TTP    C37 6120   8.533   1.405  -0.194  0.1408 -0.2696 -0.4572
    3TTP    C38 6121   8.450   1.284  -0.233 -0.0777  0.1994  0.1218
    3TTP    C39 6122   8.342   1.316  -0.334  0.8479 -0.5614  0.0759
    3TTP    C40 6123   8.246   1.195  -0.343  0.2608 -0.2961 -0.4441
    3TTP    C41 6124   8.122   1.213  -0.437  0.3898  0.6461  0.1133
    3TTP    C42 6125   8.029   1.332  -0.412 -0.1118  0.3316 -0.8126
    4BIM     F1 6126   9.601   3.529   0.320  0.0244  0.1121  0.1386
    4BIM     F2 6127   9.799   3.598   0.494  0.0941  0.0740  0.0744
    4BIM     O1 6128   9.520   3.012   0.456 -0.0453  0.1334  0.1785
    4BIM     N5 6129  10.025   3.327   0.841  0.1447  0.0345  0.0106
    4BIM     N6 6130   9.922   2.909   0.912  0.0761  0.0589  0.0548
    4BIM    C19 6131   9.680   2.893   0.670 -0.0036  0.1047  0.1314
    4BIM    C20 6132   9.693   3.021   0.629  0.0113  0.1008  0.1239
    4BIM    C21 6133   9.607   3.074   0.518 -0.0120  0.1163  0.1494
    4BIM    C22 6134   9.646   3.215   0.499  0.0125  0.1073  0.1331
    4BIM    C23 6135   9.594   3.306   0.408  0.0034  0.1160  0.1469
    4BIM    C24 6136   9.648   3.434   0.408  0.0314  0.1044  0.1265
    4BIM    C25 6137   9.749   3.469   0.498  0.0674  0.0848  0.0935
    4BIM    C26 6138   9.802   3.379   0.590  0.0766  0.0761  0.0796
    4BIM    C27 6139   9.749   3.249   0.591  0.0487  0.0875  0.0998
    4BIM    C28 6140   9.782   3.131   0.674  0.0493  0.0827  0.0928
    4BIM    C29 6141   9.876   3.125   0.774  0.0794  0.0650  0.0632
    4BIM    C30 6142   9.958   3.236   0.810  0.1152  0.0483  0.0344
    4BIM    C31 6143   9.901   3.006   0.849  0.0774  0.0617  0.0587
    5BIM     F1 6144   8.494   2.653  -0.648  0.1681 -0.0618 -0.0961
    5BIM     F2 6145   8.361   2.455  -0.779 -0.0834  0.0425 -0.0002
    5BIM     O1 6146   8.726   2.371  -0.247  0.1681 -0.2311 -0.2146
    5BIM     N5 6147   8.336   1.970  -0.684 -0.4454  0.0716  0.0520
    5BIM     N6 6148   8.543   1.790  -0.345 -0.3948 -0.0817 -0.0598
    5BIM    C19 6149   8.681   2.082  -0.231 -0.0726 -0.1917 -0.1656
    5BIM    C20 6150   8.628   2.161  -0.327 -0.0627 -0.1531 -0.1397
    5BIM    C21 6151   8.656   2.308  -0.328  0.0644 -0.1768 -0.1674
    5BIM    C22 6152   8.583   2.363  -0.445  0.0408 -0.1232 -0.1276
    5BIM    C23 6153   8.579   2.496  -0.487  0.1302 -0.1224 -0.1349
    5BIM    C24 6154   8.503   2.524  -0.600  0.0854 -0.0660 -0.0917
    5BIM    C25 6155   8.435   2.422  -0.668 -0.0444 -0.0123 -0.0423
    5BIM    C26 6156   8.439   2.289  -0.626 -0.1335 -0.0128 -0.0348
    5BIM    C27 6157   8.515   2.259  -0.512 -0.0904 -0.0695 -0.0784
    5BIM    C28 6158   8.540   2.130  -0.442 -0.1590 -0.0858 -0.0839
    5BIM    C29 6159   8.490   2.007  -0.478 -0.2875 -0.0460 -0.0443
    5BIM    C30 6160   8.405   1.987  -0.591 -0.3741  0.0186  0.0086
    5BIM    C31 6161   8.520   1.888  -0.404 -0.3459 -0.0659 -0.0532
    1BTD     S2 6162   7.619   8.210   7.457  0.1663 -0.1082 -0.0213
    1BTD     N1 6163   7.647   8.377   7.397 -0.0620  0.0219  0.2234
    1BTD     N2 6164   7.778   8.197   7.540  0.2344 -0.0594 -0.1436
    1BTD     N3 6165   8.154   8.472   7.598 -0.0398  0.2756  0.0490
    1BTD     N4 6166   7.993   8.694   7.422 -0.4045  0.3755  0.5013
    1BTD     C5 6167   7.830   8.540   7.412 -0.2365  0.2053  0.3631
    1BTD     C6 6168   7.768   8.413   7.439 -0.0751  0.0916  0.2024
    1BTD     C7 6169   7.841   8.312   7.519  0.0906  0.0463 -0.0031
    1BTD     C8 6170   7.972   8.344   7.568  0.0870  0.1168 -0.0377
    1BTD    C15 6171   8.029   8.469   7.540 -0.0742  0.2278  0.1241
    1BTD    C16 6172   7.959   8.566   7.462 -0.2339  0.2711  0.3222
    1BTD    C43 6173   8.124   8.751   7.385  0.0692 -0.1800 -0.4764
    1BTD    C44 6174   8.174   8.727   7.246 -0.9774 -0.0844  0.7146
    1BTD    C45 6175   8.188   8.578   7.206  1.0376 -0.7841  0.1525
    1BTD    C46 6176   8.180   8.538   7.057  0.5480 -1.0412  0.1379
    1BTD    C47 6177   8.295   8.815   7.196  0.2027  0.4375  0.0387
    1BTD    C48 6178   8.272   8.962   7.208 -0.3669  0.3255 -0.1955
    1BTD    C49 6179   8.396   9.029   7.258  0.4997 -0.6864  0.7597
    1BTD    C50 6180   8.375   9.183   7.244  0.1150 -0.1497  0.6021
    1BTD    C75 6181   8.220   8.596   7.647  0.7864 -0.0723 -0.0030
    1BTD    C76 6182   8.368   8.614   7.664 -0.0536 -0.8230 -0.0060
    1BTD    C77 6183   8.395   8.738   7.753 -0.1803  0.0921  0.1898
    1BTD    C78 6184   8.337   8.875   7.723 -0.6578 -0.7454  0.0796
    1BTD    C79 6185   8.446   8.629   7.527  0.8995  0.1799 -0.0650
    1BTD    C80 6186   8.446   8.504   7.440 -0.5018  0.4241  0.3249
    1BTD    C81 6187   8.565   8.475   7.345 -0.6033 -0.2191  0.0877
    1BTD    C82 6188   8.577   8.573   7.224  0.2603  0.1045 -0.5323
    2TTP     S1 6189   7.642   8.713   7.248  0.0016 -0.1775 -0.0496
    2TTP     S5 6190   7.927   9.034   7.278 -0.0288 -0.1590  0.0429
    2TTP     C1 6191   7.781   9.094   7.187 -0.0100 -0.1637  0.0096
    2TTP     C2 6192   7.685   8.999   7.173  0.0005 -0.1698 -0.0210
    2TTP     C3 6193   7.722   8.874   7.233 -0.0060 -0.1709 -0.0190
    2TTP     C4 6194   7.788   8.653   7.339 -0.0173 -0.1729 -0.0161
    2TTP    C17 6195   7.884   8.749   7.354 -0.0277 -0.1668  0.0143
    2TTP    C18 6196   7.847   8.873   7.294 -0.0213 -0.1657  0.0124
    2TTP    C32 6197   7.550   9.019   7.103 -0.0189  0.3158 -0.6112
    2TTP    C33 6198   7.481   8.886   7.043 -0.4914 -0.2878  0.0237
    2TTP    C34 6199   7.336   8.903   6.999 -0.9664  0.3157  0.3187
    2TTP    C35 6200   7.282   8.789   6.911 -0.0305  0.0740 -0.0363
    2TTP    C36 6201   7.278   8.640   6.959  0.3361  0.2764  0.4727
    2TTP    C37 6202   7.177   8.533   6.894 -0.3694 -0.1297 -0.4200
    2TTP    C38 6203   7.204   8.519   6.747  0.4625 -0.7624  0.4225
    2TTP    C39 6204   7.096   8.444   6.661 -0.5788  0.1485  0.0722
    2TTP    C40 6205   7.148   8.370   6.532  0.0251  0.2280 -0.8946
    2TTP    C41 6206   7.042   8.283   6.468  0.7285  0.0492  0.1447
    2TTP    C42 6207   6.920   8.362   6.412 -0.1666 -0.9435 -0.5804
    3TTP     S1 6208   8.094   8.089   7.676  0.2012 -0.1098 -0.0501
    3TTP     S5 6209   8.463   8.300   7.743  0.0024  0.1333  0.2818
    3TTP     C1 6210   8.489   8.125   7.783  0.1074  0.1337  0.2172
    3TTP     C2 6211   8.376   8.049   7.765  0.1750  0.0589  0.1107
    3TTP     C3 6212   8.266   8.127   7.719  0.1462 -0.0019  0.0767
    3TTP     C4 6213   8.069   8.265   7.637  0.0958 -0.1106  0.0148
    3TTP    C17 6214   8.181   8.340   7.655  0.0283 -0.0354  0.1211
    3TTP    C18 6215   8.291   8.262   7.701  0.0572  0.0253  0.1552
    3TTP    C32 6216   8.360   7.898   7.793 -0.2547  0.0376  0.7030
    3TTP    C33 6217   8.337   7.832   7.660  0.6412  0.6911  0.3041
    3TTP    C34 6218   8.301   7.681   7.666 -0.0731  0.5664  0.6028
    3TTP    C35 6219   8.167   7.630   7.738 -0.5035  0.0393  0.4020
    3TTP    C36 6220   8.037   7.666   7.672  1.2532 -0.4346 -0.4739
    3TTP    C37 6221   7.925   7.580   7.742 -0.0276 -0.1361 -0.7257
    3TTP    C38 6222   7.782   7.620   7.705  0.1825  0.1995  0.3147
    3TTP    C39 6223   7.734   7.763   7.725 -0.4313  0.2285  0.0583
    3TTP    C40 6224   7.584   7.780   7.727  0.2695  0.2672  0.6370
    3TTP    C41 6225   7.550   7.918   7.765  0.5985  0.5971 -0.0189
    3TTP    C42 6226   7.395   7.929   7.774  0.0310 -0.0193 -0.0806
    4BIM     F1 6227   8.202   9.793   7.257  0.0055 -0.0503 -0.0062
    4BIM     F2 6228   8.016   9.914   7.099  0.0994 -0.1185 -0.1695
    4BIM     O1 6229   8.007   9.289   7.279 -0.0811 -0.0079  0.2085
    4BIM     N5 6230   7.608   9.727   6.889  0.1730 -0.1860 -0.2512
    4BIM     N6 6231   7.493   9.309   6.938  0.0867 -0.1388 -0.0505
    4BIM    C19 6232   7.759   9.225   7.137 -0.0216 -0.0577  0.1286
    4BIM    C20 6233   7.816   9.347   7.137 -0.0039 -0.0658  0.0811
    4BIM    C21 6234   7.943   9.372   7.213 -0.0365 -0.0386  0.1270
    4BIM    C22 6235   7.977   9.514   7.192 -0.0054 -0.0563  0.0561
    4BIM    C23 6236   8.086   9.584   7.243 -0.0191 -0.0417  0.0660
    4BIM    C24 6237   8.097   9.718   7.210  0.0169 -0.0631 -0.0110
    4BIM    C25 6238   8.000   9.780   7.129  0.0652 -0.0983 -0.0951
    4BIM    C26 6239   7.891   9.711   7.078  0.0793 -0.1130 -0.1055
    4BIM    C27 6240   7.879   9.575   7.110  0.0434 -0.0916 -0.0284
    4BIM    C28 6241   7.776   9.475   7.073  0.0461 -0.0985 -0.0161
    4BIM    C29 6242   7.665   9.496   6.994  0.0874 -0.1302 -0.0826
    4BIM    C30 6243   7.634   9.623   6.937  0.1343 -0.1609 -0.1751
    4BIM    C31 6244   7.571   9.393   6.964  0.0868 -0.1347 -0.0645
    5BIM     F1 6245   9.104   8.403   8.238 -0.0131  0.0215 -0.3819
    5BIM     F2 6246   9.232   8.166   8.200 -0.2418 -0.1702  0.0308
    5BIM     O1 6247   8.646   8.318   7.963 -0.0250  0.0432 -0.3685
    5BIM     N5 6248   9.089   7.764   7.949 -0.5786 -0.4300  0.6337
    5BIM     N6 6249   8.705   7.745   7.742 -0.5419 -0.3741  0.5610
    5BIM    C19 6250   8.605   8.061   7.829 -0.2477 -0.1319  0.0306
    5BIM    C20 6251   8.716   8.092   7.900 -0.2353 -0.1299  0.0111
    5BIM    C21 6252   8.729   8.226   7.966 -0.1183 -0.0370 -0.1993
    5BIM    C22 6253   8.860   8.226   8.034 -0.1364 -0.0606 -0.1645
    5BIM    C23 6254   8.917   8.329   8.108 -0.0532  0.0021 -0.3133
    5BIM    C24 6255   9.042   8.306   8.163 -0.0910 -0.0365 -0.2433
    5BIM    C25 6256   9.108   8.184   8.143 -0.2084 -0.1357 -0.0304
    5BIM    C26 6257   9.052   8.081   8.069 -0.2921 -0.1984  0.1187
    5BIM    C27 6258   8.925   8.102   8.013 -0.2553 -0.1605  0.0505
    5BIM    C28 6259   8.839   8.015   7.929 -0.3211 -0.2069  0.1671
    5BIM    C29 6260   8.868   7.887   7.888 -0.4387 -0.3031  0.3790
    5BIM    C30 6261   8.990   7.820   7.922 -0.5155 -0.3725  0.5182
    5BIM    C31 6262   8.778   7.810   7.808 -0.4947 -0.3417  0.4778
    1BTD     S2 6263   3.056   4.745   9.447 -0.0496 -0.3941 -0.0758
    1BTD     N1 6264   3.120   4.593   9.518  0.0069 -0.2490  0.1850
    1BTD     N2 6265   3.202   4.842   9.486 -0.1217 -0.2506 -0.1621
    1BTD     N3 6266   3.616   4.766   9.694 -0.1668  0.3034  0.1338
    1BTD     N4 6267   3.515   4.459   9.734 -0.0083  0.3054  0.5610
    1BTD     C5 6268   3.328   4.526   9.630 -0.0029  0.0405  0.3765
    1BTD     C6 6269   3.241   4.621   9.565 -0.0290 -0.1085  0.1941
    1BTD     C7 6270   3.287   4.760   9.547 -0.1010 -0.1094 -0.0005
    1BTD     C8 6271   3.417   4.799   9.595 -0.1433  0.0387 -0.0024
    1BTD    C15 6272   3.498   4.703   9.658 -0.1156  0.1815  0.1795
    1BTD    C16 6273   3.454   4.568   9.676 -0.0462  0.1825  0.3668
    1BTD    C43 6274   3.632   4.458   9.830  0.7927 -0.6837  0.1683
    1BTD    C44 6275   3.747   4.357   9.834  0.8413  0.2898  0.6243
    1BTD    C45 6276   3.837   4.343   9.949 -0.5248 -0.0658 -0.1267
    1BTD    C46 6277   3.760   4.289  10.077  0.5282  0.0010  0.4357
    1BTD    C47 6278   3.827   4.347   9.699  0.3822  0.0561  0.1158
    1BTD    C48 6279   3.890   4.208   9.662  0.5021 -0.1206 -0.4034
    1BTD    C49 6280   3.976   4.212   9.536  0.2952 -0.6127 -0.7440
    1BTD    C50 6281   4.122   4.194   9.574  0.2920 -0.0059  0.3364
    1BTD    C75 6282   3.745   4.711   9.678  0.3267  0.3080 -0.2479
    1BTD    C76 6283   3.876   4.752   9.745  0.2681 -0.3214 -0.4123
    1BTD    C77 6284   3.859   4.752   9.893  0.1388  0.6791 -0.0748
    1BTD    C78 6285   3.966   4.812   9.984  0.3750  0.5564  0.6472
    1BTD    C79 6286   3.999   4.671   9.695 -0.0466 -0.5444 -0.3647
    1BTD    C80 6287   4.023   4.672   9.549 -0.1346 -0.3845  0.4727
    1BTD    C81 6288   4.156   4.604   9.517  0.0443 -0.1583 -0.7161
    1BTD    C82 6289   4.216   4.663   9.388 -0.4588  0.3423 -0.7693
    2TTP     S1 6290   3.191   4.252   9.661 -0.1062  0.0619  0.0405
    2TTP     S5 6291   3.540   4.107   9.866  0.0250 -0.1043 -0.2995
    2TTP     C1 6292   3.420   3.971   9.853  0.0158 -0.0933 -0.3296
    2TTP     C2 6293   3.305   4.008   9.789 -0.0253 -0.0414 -0.2264
    2TTP     C3 6294   3.307   4.144   9.748 -0.0509 -0.0083 -0.1198
    2TTP     C4 6295   3.311   4.388   9.674 -0.0969  0.0509  0.0707
    2TTP    C17 6296   3.426   4.351   9.737 -0.0559 -0.0011 -0.0325
    2TTP    C18 6297   3.423   4.214   9.779 -0.0301 -0.0341 -0.1392
    2TTP    C32 6298   3.183   3.916   9.768 -0.0388 -0.0739  0.0511
    2TTP    C33 6299   3.064   3.922   9.869 -0.3274  0.0398  0.0758
    2TTP    C34 6300   2.978   3.800   9.862  0.0709 -0.2197 -0.3533
    2TTP    C35 6301   2.829   3.815   9.897 -0.8060 -0.1086 -0.2909
    2TTP    C36 6302   2.747   3.923   9.820 -0.1420 -0.1988 -0.6015
    2TTP    C37 6303   2.626   3.963   9.903 -0.0334  0.2851  0.4888
    2TTP    C38 6304   2.534   4.045   9.815 -0.0462 -0.1319 -0.1099
    2TTP    C39 6305   2.410   4.100   9.875  0.0847  0.3438  0.0989
    2TTP    C40 6306   2.344   4.187   9.765 -0.1615 -0.4200 -0.3184
    2TTP    C41 6307   2.228   4.277   9.808  0.0326 -0.1219 -0.3480
    2TTP    C42 6308   2.197   4.385   9.710 -0.2362 -0.1547  0.0379
    3TTP     S1 6309   3.462   5.085   9.535 -0.0166  0.0346  0.3999
    3TTP     S5 6310   3.826   5.079   9.765  0.2804 -0.1273 -0.0723
    3TTP     C1 6311   3.793   5.250   9.712  0.1855 -0.0821  0.1321
    3TTP     C2 6312   3.679   5.262   9.638  0.0883 -0.0296  0.2900
    3TTP     C3 6313   3.613   5.137   9.620  0.0851 -0.0229  0.2552
    3TTP     C4 6314   3.495   4.914   9.588  0.0784 -0.0106  0.1956
    3TTP    C17 6315   3.609   4.902   9.662  0.1757 -0.0631  0.0377
    3TTP    C18 6316   3.675   5.028   9.679  0.1788 -0.0696  0.0725
    3TTP    C32 6317   3.617   5.383   9.572 -0.8098 -0.2834 -0.2478
    3TTP    C33 6318   3.487   5.431   9.629  0.2119  0.0419  0.6810
    3TTP    C34 6319   3.399   5.518   9.533 -0.2403  0.0936  0.0576
    3TTP    C35 6320   3.451   5.652   9.492  0.0860 -0.2404  0.0826
    3TTP    C36 6321   3.362   5.723   9.388  0.0250 -0.0463 -0.1356
    3TTP    C37 6322   3.433   5.835   9.318 -0.3923 -0.0732  0.5297
    3TTP    C38 6323   3.506   5.948   9.396  0.1664 -0.1115  0.6361
    3TTP    C39 6324   3.569   6.069   9.322 -0.2091 -0.1767 -0.2182
    3TTP    C40 6325   3.657   6.178   9.394  0.4158  0.2952 -0.1513
    3TTP    C41 6326   3.611   6.230   9.529  0.4748 -0.3925 -0.2516
    3TTP    C42 6327   3.709   6.338   9.570  0.1853  0.0597 -0.5789
    4BIM     F1 6328   3.885   3.653  10.451 -0.0228  0.0437 -0.0989
    4BIM     F2 6329   3.819   3.405  10.361  0.0095  0.0380 -0.1067
    4BIM     O1 6330   3.600   3.964  10.112 -0.1010  0.0156 -0.0589
    4BIM     N5 6331   3.520   3.270   9.989  0.0008  0.0098 -0.0894
    4BIM     N6 6332   3.311   3.564   9.743 -0.0668 -0.0109 -0.0566
    4BIM    C19 6333   3.435   3.838   9.906 -0.0977  0.0001 -0.0521
    4BIM    C20 6334   3.509   3.769   9.994 -0.0793  0.0075 -0.0619
    4BIM    C21 6335   3.591   3.841  10.098 -0.0824  0.0151 -0.0648
    4BIM    C22 6336   3.659   3.738  10.177 -0.0591  0.0219 -0.0759
    4BIM    C23 6337   3.746   3.756  10.284 -0.0533  0.0301 -0.0821
    4BIM    C24 6338   3.798   3.642  10.344 -0.0299  0.0355 -0.0924
    4BIM    C25 6339   3.764   3.514  10.297 -0.0132  0.0325 -0.0964
    4BIM    C26 6340   3.677   3.495  10.191 -0.0190  0.0243 -0.0903
    4BIM    C27 6341   3.624   3.609  10.129 -0.0424  0.0189 -0.0798
    4BIM    C28 6342   3.530   3.624  10.015 -0.0542  0.0099 -0.0714
    4BIM    C29 6343   3.474   3.522   9.942 -0.0437  0.0048 -0.0722
    4BIM    C30 6344   3.499   3.384   9.968 -0.0193  0.0075 -0.0816
    4BIM    C31 6345   3.384   3.546   9.833 -0.0565 -0.0038 -0.0636
    5BIM     F1 6346   4.511   5.402  10.077  0.1063  0.1470 -0.0078
    5BIM     F2 6347   4.499   5.658   9.985  0.0954  0.0936 -0.1556
    5BIM     O1 6348   4.049   5.201   9.878  0.1169  0.0112  0.1038
    5BIM     N5 6349   4.154   5.883   9.711  0.0873 -0.0796 -0.2886
    5BIM     N6 6350   3.796   5.675   9.574  0.0979 -0.1751 -0.1716
    5BIM    C19 6351   3.874   5.375   9.719  0.1104 -0.0879  0.0022
    5BIM    C20 6352   3.991   5.415   9.773  0.1080 -0.0519 -0.0201
    5BIM    C21 6353   4.075   5.320   9.853  0.1117 -0.0018  0.0354
    5BIM    C22 6354   4.194   5.396   9.896  0.1080  0.0286 -0.0072
    5BIM    C23 6355   4.300   5.350   9.973  0.1094  0.0776  0.0202
    5BIM    C24 6356   4.402   5.440  10.001  0.1051  0.0986 -0.0310
    5BIM    C25 6357   4.396   5.572   9.954  0.0996  0.0710 -0.1071
    5BIM    C26 6358   4.290   5.619   9.877  0.0980  0.0222 -0.1349
    5BIM    C27 6359   4.186   5.529   9.848  0.1024  0.0002 -0.0839
    5BIM    C28 6360   4.061   5.546   9.770  0.1022 -0.0503 -0.0948
    5BIM    C29 6361   4.019   5.661   9.707  0.0975 -0.0883 -0.1615
    5BIM    C30 6362   4.093   5.782   9.710  0.0919 -0.0834 -0.2311
    5BIM    C31 6363   3.896   5.668   9.634  0.0977 -0.1359 -0.1667
    1BTD     S2 6364   2.285   4.619   5.291 -0.0587 -0.1643  0.1767
    1BTD     N1 6365   2.257   4.790   5.241 -0.0479 -0.0015  0.7068
    1BTD     N2 6366   2.111   4.574   5.287 -0.0249 -0.2617 -0.3690
    1BTD     N3 6367   1.706   4.789   5.188  0.0633 -0.1658 -0.5233
    1BTD     N4 6368   1.885   5.054   5.131  0.0350  0.1547  0.8019
    1BTD     C5 6369   2.060   4.925   5.184 -0.0042  0.0762  0.7404
    1BTD     C6 6370   2.126   4.803   5.224 -0.0211 -0.0268  0.4624
    1BTD     C7 6371   2.044   4.682   5.250 -0.0082 -0.1724 -0.1396
    1BTD     C8 6372   1.902   4.689   5.235  0.0208 -0.2078 -0.4336
    1BTD    C15 6373   1.842   4.810   5.195  0.0364 -0.1036 -0.1442
    1BTD    C16 6374   1.920   4.927   5.170  0.0240  0.0367  0.4360
    1BTD    C43 6375   1.778   5.074   5.027 -0.7125  0.1302 -0.3537
    1BTD    C44 6376   1.701   5.204   5.010 -0.2396  0.1691  0.0422
    1BTD    C45 6377   1.620   5.215   4.878 -0.5205 -0.4409  0.8869
    1BTD    C46 6378   1.712   5.213   4.757 -0.4012 -0.2068  0.7995
    1BTD    C47 6379   1.629   5.252   5.136  0.0735 -0.5277 -0.1318
    1BTD    C48 6380   1.539   5.378   5.126 -0.5291 -0.0075  0.2238
    1BTD    C49 6381   1.466   5.425   5.250 -0.0819 -0.3169 -0.3308
    1BTD    C50 6382   1.357   5.340   5.314 -0.5784  0.7771 -0.0352
    1BTD    C75 6383   1.593   4.883   5.212 -0.1538 -0.1619 -0.5415
    1BTD    C76 6384   1.452   4.881   5.146  0.4147  0.0856 -0.1865
    1BTD    C77 6385   1.342   4.975   5.203 -0.0809 -0.0728  0.2385
    1BTD    C78 6386   1.301   4.948   5.341  0.0262 -0.0037 -0.0489
    1BTD    C79 6387   1.452   4.884   4.995 -0.0131  0.0090  0.0493
    1BTD    C80 6388   1.326   4.861   4.913 -0.0578 -0.5666  0.4116
    1BTD    C81 6389   1.244   4.745   4.952 -0.5400  0.1188  0.1084
    1BTD    C82 6390   1.112   4.739   4.872 -0.2203 -0.2965 -0.5092
    2TTP     S1 6391   2.262   5.149   5.161 -0.3031 -0.3441 -0.2408
    2TTP     S5 6392   1.945   5.426   5.073 -0.0548 -0.1090 -0.3976
    2TTP     C1 6393   2.101   5.519   5.089 -0.0308 -0.1978 -0.1035
    2TTP     C2 6394   2.208   5.439   5.118 -0.1060 -0.2759 -0.0377
    2TTP     C3 6395   2.171   5.301   5.127 -0.1854 -0.2680 -0.2173
    2TTP     C4 6396   2.107   5.056   5.145 -0.3271 -0.2552 -0.5348
    2TTP    C17 6397   2.000   5.136   5.117 -0.2518 -0.1772 -0.6007
    2TTP    C18 6398   2.036   5.274   5.107 -0.1726 -0.1850 -0.4212
    2TTP    C32 6399   2.355   5.492   5.137  0.2764  0.6176 -0.5400
    2TTP    C33 6400   2.455   5.436   5.044  0.2801  0.1655  0.5204
    2TTP    C34 6401   2.593   5.462   5.085 -0.2973  0.1821  0.1301
    2TTP    C35 6402   2.681   5.370   4.998 -0.3577  0.3356  0.1585
    2TTP    C36 6403   2.836   5.377   5.011  0.7561  0.3116 -0.3265
    2TTP    C37 6404   2.916   5.291   4.914 -0.3679  0.1161 -0.6056
    2TTP    C38 6405   3.064   5.301   4.940 -0.3434  0.5097  0.8262
    2TTP    C39 6406   3.142   5.430   4.911  0.1452 -0.0016  0.3708
    2TTP    C40 6407   3.292   5.396   4.901 -0.0809  0.1556  0.2821
    2TTP    C41 6408   3.377   5.513   4.888  0.1678  0.0424 -0.2772
    2TTP    C42 6409   3.395   5.617   4.999 -0.9078  0.5850 -0.0904
    3TTP     S1 6410   1.787   4.420   5.307 -0.1761 -0.2038 -0.0750
    3TTP     S5 6411   1.394   4.566   5.213 -0.2688 -0.1503  0.3917
    3TTP     C1 6412   1.380   4.392   5.262 -0.2453 -0.1268  0.4824
    3TTP     C2 6413   1.501   4.336   5.294 -0.2153 -0.1421  0.3438
    3TTP     C3 6414   1.608   4.430   5.281 -0.2098 -0.1725  0.1606
    3TTP     C4 6415   1.800   4.595   5.259 -0.1996 -0.2272 -0.1659
    3TTP    C17 6416   1.679   4.650   5.227 -0.2296 -0.2120 -0.0272
    3TTP    C18 6417   1.572   4.557   5.239 -0.2351 -0.1813  0.1560
    3TTP    C32 6418   1.525   4.192   5.332  0.1824 -0.7903 -0.0627
    3TTP    C33 6419   1.586   4.178   5.471  0.2379  0.5063  0.2531
    3TTP    C34 6420   1.641   4.042   5.493 -0.3275  0.1992 -0.0315
    3TTP    C35 6421   1.725   4.034   5.622 -0.0642 -0.5772 -0.2157
    3TTP    C36 6422   1.792   3.899   5.662  0.4687 -0.6492  0.0230
    3TTP    C37 6423   1.930   3.912   5.738  0.3080  0.7856 -0.4021
    3TTP    C38 6424   2.032   3.799   5.730 -0.2534 -0.5661 -0.6267
    3TTP    C39 6425   1.995   3.655   5.757 -0.4831  0.3053  0.2370
    3TTP    C40 6426   2.117   3.561   5.748 -0.8478  0.1645 -0.3815
    3TTP    C41 6427   2.081   3.411   5.758 -0.6434  0.3069 -0.4107
    3TTP    C42 6428   2.032   3.373   5.896  0.0686 -0.1189 -0.4048
    4BIM     F1 6429   1.594   6.163   5.111  0.1221 -0.0094  0.0659
    4BIM     F2 6430   1.790   6.311   4.994  0.1127 -0.0829 -0.0436
    4BIM     O1 6431   1.845   5.686   5.165  0.0893 -0.0063  0.2457
    4BIM     N5 6432   2.251   6.185   4.865  0.0761 -0.1864 -0.0732
    4BIM     N6 6433   2.407   5.782   4.931  0.0523 -0.1692  0.0893
    4BIM    C19 6434   2.121   5.658   5.073  0.0688 -0.0753  0.2047
    4BIM    C20 6435   2.050   5.773   5.064  0.0774 -0.0734  0.1638
    4BIM    C21 6436   1.909   5.779   5.113  0.0877 -0.0368  0.1885
    4BIM    C22 6437   1.862   5.917   5.089  0.0953 -0.0445  0.1316
    4BIM    C23 6438   1.737   5.970   5.118  0.1059 -0.0191  0.1304
    4BIM    C24 6439   1.716   6.103   5.085  0.1116 -0.0328  0.0706
    4BIM    C25 6440   1.817   6.180   5.025  0.1068 -0.0707  0.0144
    4BIM    C26 6441   1.942   6.127   4.995  0.0962 -0.0961  0.0153
    4BIM    C27 6442   1.965   5.992   5.028  0.0903 -0.0826  0.0752
    4BIM    C28 6443   2.085   5.907   5.010  0.0791 -0.1019  0.0927
    4BIM    C29 6444   2.205   5.944   4.955  0.0717 -0.1394  0.0509
    4BIM    C30 6445   2.230   6.076   4.906  0.0741 -0.1651 -0.0172
    4BIM    C31 6446   2.316   5.855   4.942  0.0611 -0.1556  0.0722
    5BIM     F1 6447   0.602   4.566   5.443 -0.0587 -0.2028  0.3310
    5BIM     F2 6448   0.548   4.300   5.437 -0.0633 -0.1940 -0.1215
    5BIM     O1 6449   1.131   4.566   5.328 -0.0234 -0.0271  0.4914
    5BIM     N5 6450   0.847   3.916   5.348 -0.0449 -0.0560 -0.6576
    5BIM     N6 6451   1.272   3.969   5.259 -0.0164  0.0796 -0.4411
    5BIM    C19 6452   1.268   4.311   5.282 -0.0154  0.0439  0.1160
    5BIM    C20 6453   1.137   4.321   5.311 -0.0241 -0.0008  0.0935
    5BIM    C21 6454   1.074   4.456   5.333 -0.0277 -0.0350  0.2942
    5BIM    C22 6455   0.931   4.431   5.363 -0.0373 -0.0800  0.2109
    5BIM    C23 6456   0.833   4.526   5.390 -0.0435 -0.1223  0.3349
    5BIM    C24 6457   0.705   4.479   5.415 -0.0522 -0.1600  0.2187
    5BIM    C25 6458   0.677   4.341   5.412 -0.0546 -0.1553 -0.0144
    5BIM    C26 6459   0.775   4.246   5.385 -0.0484 -0.1132 -0.1392
    5BIM    C27 6460   0.905   4.292   5.359 -0.0396 -0.0747 -0.0247
    5BIM    C28 6461   1.030   4.219   5.328 -0.0316 -0.0257 -0.1060
    5BIM    C29 6462   1.044   4.083   5.316 -0.0311 -0.0074 -0.3242
    5BIM    C30 6463   0.936   3.991   5.333 -0.0387 -0.0342 -0.5068
    5BIM    C31 6464   1.169   4.021   5.285 -0.0231  0.0405 -0.3873
    1BTD     S2 6465   1.586   2.869   7.018 -0.1333  0.0934 -0.1445
    1BTD     N1 6466   1.736   2.848   7.116 -0.1510  0.0086 -0.1353
    1BTD     N2 6467   1.602   3.048   7.006 -0.0456  0.0874 -0.1211
    1BTD     N3 6468   1.904   3.375   7.156  0.1012 -0.0775 -0.0570
    1BTD     N4 6469   2.069   3.129   7.292 -0.0286 -0.1746 -0.0745
    1BTD     C5 6470   1.908   2.998   7.206 -0.0855 -0.0859 -0.1034
    1BTD     C6 6471   1.787   2.969   7.133 -0.0935 -0.0183 -0.1163
    1BTD     C7 6472   1.712   3.081   7.072 -0.0346  0.0258 -0.1082
    1BTD     C8 6473   1.761   3.216   7.086  0.0295  0.0001 -0.0879
    1BTD    C15 6474   1.880   3.238   7.158  0.0350 -0.0663 -0.0758
    1BTD    C16 6475   1.953   3.131   7.218 -0.0218 -0.1088 -0.0833
    1BTD    C43 6476   2.095   3.227   7.403 -0.3530  0.2642  0.7410
    1BTD    C44 6477   2.234   3.245   7.469  0.4606 -0.2997  0.5125
    1BTD    C45 6478   2.342   3.302   7.376 -0.4068 -0.5425 -0.2383
    1BTD    C46 6479   2.378   3.246   7.232 -0.1021 -0.6150 -0.0305
    1BTD    C47 6480   2.202   3.327   7.593  0.3568 -0.1870 -0.2450
    1BTD    C48 6481   2.176   3.477   7.575 -0.0199 -0.1308 -0.4430
    1BTD    C49 6482   2.111   3.544   7.699  0.2818  0.1511 -0.5700
    1BTD    C50 6483   2.092   3.698   7.690 -0.3016 -0.0191 -0.0698
    1BTD    C75 6484   2.029   3.449   7.186  0.5831  0.4907 -0.1749
    1BTD    C76 6485   2.109   3.480   7.056  0.0926 -0.4707 -0.4965
    1BTD    C77 6486   2.147   3.358   6.974 -0.9555 -0.0446  0.9568
    1BTD    C78 6487   2.196   3.382   6.829 -1.0333 -0.4622 -0.4200
    1BTD    C79 6488   2.239   3.572   7.085  0.4159  0.3162 -0.3186
    1BTD    C80 6489   2.221   3.702   7.163  0.2062 -0.7246 -0.2101
    1BTD    C81 6490   2.333   3.803   7.150 -0.0720  0.2404  0.8482
    1BTD    C82 6491   2.325   3.929   7.231  0.7692  0.4749  0.1217
    2TTP     S1 6492   2.033   2.743   7.313  0.0758  0.1346  0.0219
    2TTP     S5 6493   2.373   2.962   7.459  0.1435  0.0955 -0.0768
    2TTP     C1 6494   2.401   2.785   7.490  0.0232  0.1137  0.1364
    2TTP     C2 6495   2.297   2.707   7.447 -0.0046  0.1268  0.1795
    2TTP     C3 6496   2.193   2.784   7.388  0.0678  0.1230  0.0457
    2TTP     C4 6497   2.005   2.920   7.282  0.1960  0.1165 -0.1913
    2TTP    C17 6498   2.109   2.998   7.325  0.2239  0.1032 -0.2343
    2TTP    C18 6499   2.214   2.921   7.385  0.1515  0.1070 -0.1004
    2TTP    C32 6500   2.266   2.559   7.474 -0.0853  0.0496 -0.2970
    2TTP    C33 6501   2.314   2.469   7.366  0.2887 -0.0538 -0.7584
    2TTP    C34 6502   2.307   2.320   7.392 -0.1847  0.0712 -0.0608
    2TTP    C35 6503   2.167   2.253   7.417 -0.8167  0.2197  0.0864
    2TTP    C36 6504   2.154   2.100   7.399 -0.2993  0.3719  0.6277
    2TTP    C37 6505   2.022   2.065   7.462 -0.0543 -0.2024 -0.2396
    2TTP    C38 6506   2.011   1.914   7.483  0.2593  0.4521 -0.1298
    2TTP    C39 6507   1.879   1.872   7.550  0.0393 -0.1656  0.3233
    2TTP    C40 6508   1.747   1.864   7.469  0.2740  0.3907  0.0352
    2TTP    C41 6509   1.625   1.851   7.547  0.5317 -0.1538  0.1073
    2TTP    C42 6510   1.510   1.804   7.456  0.0669 -0.1739 -0.3979
    3TTP     S1 6511   1.583   3.413   6.938  0.0038  0.2753 -0.4417
    3TTP     S5 6512   1.824   3.739   7.083  0.1738 -0.1523  0.2447
    3TTP     C1 6513   1.689   3.807   6.981  0.3220  0.1179  0.2282
    3TTP     C2 6514   1.607   3.711   6.931  0.2782  0.2657  0.0153
    3TTP     C3 6515   1.647   3.579   6.970  0.1261  0.1712 -0.1425
    3TTP     C4 6516   1.718   3.345   7.039 -0.1444  0.0051 -0.4250
    3TTP    C17 6517   1.800   3.441   7.090 -0.1006 -0.1428 -0.2122
    3TTP    C18 6518   1.760   3.573   7.050  0.0516 -0.0482 -0.0544
    3TTP    C32 6519   1.481   3.727   6.844  0.3242  0.1545 -0.1846
    3TTP    C33 6520   1.523   3.715   6.698 -0.3032  0.4962 -0.2509
    3TTP    C34 6521   1.423   3.642   6.620 -0.2224  0.2497  0.6641
    3TTP    C35 6522   1.487   3.586   6.493 -0.2762  0.6725 -0.2501
    3TTP    C36 6523   1.403   3.531   6.388 -0.0778  0.4296  0.1559
    3TTP    C37 6524   1.487   3.487   6.271 -0.2141 -0.1332  0.1124
    3TTP    C38 6525   1.412   3.447   6.142  0.7535  0.2471 -0.1298
    3TTP    C39 6526   1.318   3.324   6.131 -0.6988  0.4718 -0.5561
    3TTP    C40 6527   1.374   3.188   6.168  0.2838  0.3155 -0.3098
    3TTP    C41 6528   1.270   3.074   6.152 -0.3224 -0.5542  0.3682
    3TTP    C42 6529   1.292   2.939   6.209  0.4976  0.2920 -0.1484
    4BIM     F1 6530   3.165   3.035   7.649 -0.0167  0.1038  0.1439
    4BIM     F2 6531   3.188   2.836   7.832  0.0178  0.0743  0.1076
    4BIM     O1 6532   2.665   2.945   7.460  0.0220  0.0146  0.0838
    4BIM     N5 6533   2.864   2.484   7.961  0.0948 -0.0315  0.0126
    4BIM     N6 6534   2.469   2.454   7.777  0.1181 -0.0952 -0.0269
    4BIM    C19 6535   2.510   2.722   7.568  0.0686 -0.0452  0.0278
    4BIM    C20 6536   2.634   2.753   7.609  0.0576 -0.0216  0.0443
    4BIM    C21 6537   2.708   2.869   7.548  0.0337  0.0084  0.0728
    4BIM    C22 6538   2.840   2.874   7.614  0.0268  0.0288  0.0851
    4BIM    C23 6539   2.943   2.965   7.591  0.0061  0.0591  0.1115
    4BIM    C24 6540   3.059   2.949   7.666  0.0034  0.0739  0.1183
    4BIM    C25 6541   3.070   2.846   7.760  0.0212  0.0586  0.0997
    4BIM    C26 6542   2.968   2.755   7.784  0.0420  0.0286  0.0734
    4BIM    C27 6543   2.850   2.769   7.709  0.0449  0.0132  0.0660
    4BIM    C28 6544   2.724   2.691   7.709  0.0645 -0.0184  0.0402
    4BIM    C29 6545   2.696   2.581   7.788  0.0852 -0.0406  0.0169
    4BIM    C30 6546   2.789   2.528   7.883  0.0905 -0.0355  0.0148
    4BIM    C31 6547   2.571   2.512   7.781  0.1032 -0.0706 -0.0072
    5BIM     F1 6548   2.153   4.477   7.042 -0.0596  0.1280  0.1041
    5BIM     F2 6549   1.950   4.620   6.929 -0.0240  0.0232 -0.0921
    5BIM     O1 6550   1.935   3.981   7.052  0.0309  0.0917  0.2677
    5BIM     N5 6551   1.504   4.472   6.774  0.0916 -0.1533 -0.2578
    5BIM     N6 6552   1.375   4.055   6.805  0.1552 -0.1606 -0.0905
    5BIM    C19 6553   1.664   3.941   6.948  0.0970 -0.0213  0.1382
    5BIM    C20 6554   1.727   4.061   6.950  0.0729 -0.0081  0.1048
    5BIM    C21 6555   1.866   4.073   7.005  0.0395  0.0510  0.1760
    5BIM    C22 6556   1.904   4.215   6.992  0.0193  0.0507  0.1152
    5BIM    C23 6557   2.024   4.275   7.029 -0.0134  0.0956  0.1482
    5BIM    C24 6558   2.037   4.411   7.007 -0.0273  0.0851  0.0767
    5BIM    C25 6559   1.932   4.484   6.949 -0.0090  0.0312 -0.0242
    5BIM    C26 6560   1.813   4.425   6.911  0.0237 -0.0138 -0.0578
    5BIM    C27 6561   1.798   4.287   6.933  0.0382 -0.0041  0.0135
    5BIM    C28 6562   1.685   4.196   6.905  0.0719 -0.0424  0.0030
    5BIM    C29 6563   1.564   4.229   6.848  0.0972 -0.0988 -0.0843
    5BIM    C30 6564   1.532   4.362   6.807  0.0941 -0.1286 -0.1794
    5BIM    C31 6565   1.461   4.133   6.824  0.1290 -0.1324 -0.0873
    1BTD     S2 6566   0.832   4.834   4.101  0.0040  0.0527 -0.0725
    1BTD     N1 6567   0.804   4.668   4.163  0.0612  0.0824  0.0323
    1BTD     N2 6568   1.005   4.807   4.061 -0.0464  0.0174 -0.2704
    1BTD     N3 6569   1.309   4.450   4.093 -0.0457 -0.0008 -0.4842
    1BTD     N4 6570   1.061   4.279   4.218  0.0868  0.0793 -0.1110
    1BTD     C5 6571   0.942   4.467   4.190  0.0730  0.0798 -0.0470
    1BTD     C6 6572   0.920   4.603   4.152  0.0408  0.0654 -0.0795
    1BTD     C7 6573   1.032   4.681   4.095 -0.0193  0.0290 -0.2491
    1BTD     C8 6574   1.160   4.618   4.079 -0.0444  0.0088 -0.3774
    1BTD    C15 6575   1.177   4.484   4.118 -0.0113  0.0238 -0.3399
    1BTD    C16 6576   1.069   4.409   4.173  0.0467  0.0591 -0.1763
    1BTD    C43 6577   1.171   4.202   4.283  0.5917  0.3856  0.4235
    1BTD    C44 6578   1.176   4.054   4.259 -0.5276  0.0083 -0.2922
    1BTD    C45 6579   1.259   3.979   4.368 -0.0114  0.0329 -0.1669
    1BTD    C46 6580   1.209   3.967   4.515 -0.2652 -0.9227  0.1300
    1BTD    C47 6581   1.221   4.007   4.119 -0.4642  0.1869  0.9497
    1BTD    C48 6582   1.228   3.856   4.079  0.5138  0.2957 -0.8049
    1BTD    C49 6583   1.096   3.777   4.095 -0.4526 -0.4857  0.1347
    1BTD    C50 6584   1.094   3.661   4.001  0.1332  0.1216 -0.1143
    1BTD    C75 6585   1.367   4.319   4.058  0.4851  0.7466  0.2986
    1BTD    C76 6586   1.383   4.275   3.911  0.2650  0.1079 -0.0400
    1BTD    C77 6587   1.503   4.330   3.829 -0.6958 -0.1194 -0.3945
    1BTD    C78 6588   1.651   4.301   3.876  0.0157 -0.3404  0.0313
    1BTD    C79 6589   1.249   4.278   3.839  0.2960  0.5678  0.3068
    1BTD    C80 6590   1.242   4.210   3.702 -0.3504 -0.2194 -0.0380
    1BTD    C81 6591   1.108   4.234   3.633 -0.3782 -0.5011  0.0288
    1BTD    C82 6592   1.096   4.159   3.502 -0.5423 -0.1040 -0.2290
    2TTP     S1 6593   0.679   4.342   4.273 -0.0853 -0.0478 -0.1056
    2TTP     S5 6594   0.877   3.963   4.319 -0.4483 -0.2694 -0.3595
    2TTP     C1 6595   0.699   3.940   4.352 -0.4398 -0.0800 -0.1760
    2TTP     C2 6596   0.628   4.056   4.339 -0.3272 -0.0004 -0.0868
    2TTP     C3 6597   0.711   4.166   4.304 -0.2436 -0.0862 -0.1602
    2TTP     C4 6598   0.857   4.365   4.240 -0.0938 -0.2370 -0.2891
    2TTP    C17 6599   0.928   4.249   4.253 -0.2063 -0.3165 -0.3783
    2TTP    C18 6600   0.845   4.138   4.288 -0.2900 -0.2310 -0.3049
    2TTP    C32 6601   0.480   4.078   4.357 -0.4505 -0.2356 -0.0508
    2TTP    C33 6602   0.388   4.090   4.232  0.6083 -0.1016 -0.0513
    2TTP    C34 6603   0.418   4.002   4.111 -0.4581  0.2766  0.6157
    2TTP    C35 6604   0.315   4.016   4.001 -0.5696 -0.6706  0.1490
    2TTP    C36 6605   0.194   3.926   4.022 -0.6725  0.3295  0.1875
    2TTP    C37 6606   0.103   3.937   3.895 -0.3306 -0.3432 -0.4825
    2TTP    C38 6607  -0.045   3.917   3.920 -0.2414  0.4131  0.4019
    2TTP    C39 6608  -0.154   3.910   3.809 -0.7398 -0.0840 -0.0215
    2TTP    C40 6609  -0.162   4.020   3.707 -0.3576 -0.1282 -0.3340
    2TTP    C41 6610  -0.201   4.160   3.751 -0.0019 -0.7348  0.6874
    2TTP    C42 6611  -0.270   4.251   3.654  0.3215  0.3549  0.6708
    3TTP     S1 6612   1.366   4.832   4.028  0.2601  0.2163 -0.0235
    3TTP     S5 6613   1.674   4.545   4.117  0.2093  0.2351  0.2141
    3TTP     C1 6614   1.749   4.711   4.112  0.2528  0.2087 -0.0012
    3TTP     C2 6615   1.658   4.809   4.084  0.2711  0.2013 -0.0874
    3TTP     C3 6616   1.526   4.757   4.066  0.2513  0.2161  0.0137
    3TTP     C4 6617   1.291   4.666   4.034  0.2165  0.2425  0.1918
    3TTP    C17 6618   1.382   4.568   4.061  0.1982  0.2498  0.2779
    3TTP    C18 6619   1.513   4.620   4.079  0.2179  0.2350  0.1769
    3TTP    C32 6620   1.684   4.961   4.072  0.4141  0.8710 -0.2585
    3TTP    C33 6621   1.657   5.006   3.932  1.0192  0.3874  0.5974
    3TTP    C34 6622   1.647   5.161   3.934  0.4722 -0.1588  0.8803
    3TTP    C35 6623   1.639   5.232   3.796  0.6935  0.3018  0.6469
    3TTP    C36 6624   1.502   5.203   3.738 -0.2226 -0.0972 -0.2120
    3TTP    C37 6625   1.381   5.287   3.794 -0.2737  0.3550  0.3154
    3TTP    C38 6626   1.376   5.437   3.752  0.3305 -0.5388 -0.3436
    3TTP    C39 6627   1.277   5.526   3.833  0.3303 -0.2125 -0.2558
    3TTP    C40 6628   1.287   5.514   3.986  0.4515 -0.0871 -1.0057
    3TTP    C41 6629   1.250   5.633   4.063  0.4536  0.1995  0.2607
    3TTP    C42 6630   1.253   5.614   4.220  0.1495 -0.3887  0.4017
    4BIM     F1 6631   0.995   3.307   4.776 -0.3180 -0.0588  0.2320
    4BIM     F2 6632   0.781   3.160   4.693 -0.1054 -0.1172 -0.2189
    4BIM     O1 6633   0.883   3.787   4.552 -0.1812  0.0206  0.3339
    4BIM     N5 6634   0.394   3.292   4.414  0.2978 -0.1444 -0.7941
    4BIM     N6 6635   0.350   3.697   4.255  0.3618 -0.0707 -0.6237
    4BIM    C19 6636   0.639   3.818   4.393  0.0705 -0.0069 -0.0607
    4BIM    C20 6637   0.676   3.702   4.452  0.0278 -0.0247 -0.0685
    4BIM    C21 6638   0.802   3.695   4.532 -0.1028 -0.0087  0.1415
    4BIM    C22 6639   0.812   3.556   4.583 -0.1186 -0.0348  0.0732
    4BIM    C23 6640   0.912   3.501   4.662 -0.2242 -0.0318  0.2097
    4BIM    C24 6641   0.899   3.368   4.698 -0.2170 -0.0599  0.1069
    4BIM    C25 6642   0.789   3.293   4.655 -0.1074 -0.0900 -0.1252
    4BIM    C26 6643   0.688   3.347   4.576 -0.0017 -0.0930 -0.2626
    4BIM    C27 6644   0.700   3.482   4.539 -0.0072 -0.0649 -0.1614
    4BIM    C28 6645   0.612   3.569   4.457  0.0872 -0.0598 -0.2578
    4BIM    C29 6646   0.494   3.532   4.397  0.2067 -0.0834 -0.4801
    4BIM    C30 6647   0.439   3.400   4.406  0.2564 -0.1168 -0.6520
    4BIM    C31 6648   0.415   3.623   4.319  0.2913 -0.0762 -0.5578
    5BIM     F1 6649   2.437   4.310   4.307 -0.0153  0.1400  0.4209
    5BIM     F2 6650   2.575   4.541   4.265 -0.1315  0.1426  0.0420
    5BIM     O1 6651   1.931   4.473   4.205 -0.1182 -0.2390  0.3210
    5BIM     N5 6652   2.413   4.989   4.133 -0.3721 -0.1241 -0.5741
    5BIM     N6 6653   1.990   5.070   4.062 -0.4290 -0.4207 -0.5758
    5BIM    C19 6654   1.883   4.752   4.129 -0.2658 -0.3713 -0.0765
    5BIM    C20 6655   2.005   4.702   4.156 -0.2354 -0.2761 -0.0365
    5BIM    C21 6656   2.022   4.557   4.195 -0.1591 -0.2127  0.1718
    5BIM    C22 6657   2.166   4.536   4.217 -0.1432 -0.1141  0.1625
    5BIM    C23 6658   2.230   4.419   4.255 -0.0793 -0.0306  0.3186
    5BIM    C24 6659   2.368   4.423   4.270 -0.0769  0.0547  0.2736
    5BIM    C25 6660   2.438   4.542   4.248 -0.1369  0.0557  0.0784
    5BIM    C26 6661   2.375   4.660   4.211 -0.2008 -0.0272 -0.0781
    5BIM    C27 6662   2.236   4.657   4.195 -0.2043 -0.1142 -0.0355
    5BIM    C28 6663   2.140   4.764   4.157 -0.2633 -0.2137 -0.1656
    5BIM    C29 6664   2.170   4.895   4.127 -0.3309 -0.2427 -0.3673
    5BIM    C30 6665   2.304   4.946   4.130 -0.3532 -0.1775 -0.4803
    5BIM    C31 6666   2.071   4.991   4.091 -0.3844 -0.3406 -0.4809
    1BTD     S2 6667   1.837   5.234   5.440  0.2480  0.0113  0.0106
    1BTD     N1 6668   2.005   5.184   5.477  0.2415 -0.0417 -0.0318
    1BTD     N2 6669   1.765   5.073   5.477  0.1955  0.0576  0.1117
    1BTD     N3 6670   1.924   4.655   5.619  0.0770  0.0565  0.2413
    1BTD     N4 6671   2.220   4.791   5.620  0.1337 -0.0658  0.0645
    1BTD     C5 6672   2.114   4.977   5.552  0.1846 -0.0528  0.0205
    1BTD     C6 6673   2.000   5.056   5.513  0.2027 -0.0230  0.0285
    1BTD     C7 6674   1.866   4.994   5.513  0.1768  0.0325  0.1088
    1BTD     C8 6675   1.852   4.856   5.551  0.1343  0.0554  0.1773
    1BTD    C15 6676   1.966   4.783   5.588  0.1179  0.0250  0.1667
    1BTD    C16 6677   2.096   4.842   5.588  0.1427 -0.0286  0.0892
    1BTD    C43 6678   2.247   4.698   5.726 -0.0349  0.1032 -0.2512
    1BTD    C44 6679   2.383   4.636   5.762 -0.6185 -0.1651  0.4082
    1BTD    C45 6680   2.400   4.611   5.914 -0.1893 -0.0159 -0.2434
    1BTD    C46 6681   2.319   4.506   5.988 -0.1166  0.2406 -0.1190
    1BTD    C47 6682   2.426   4.517   5.671 -0.1210 -1.0876  0.6715
    1BTD    C48 6683   2.576   4.487   5.697 -0.1609 -0.7111 -0.2798
    1BTD    C49 6684   2.626   4.372   5.618 -0.0712  0.1027  0.7561
    1BTD    C50 6685   2.773   4.352   5.621  0.0334 -0.0242  0.3858
    1BTD    C75 6686   2.007   4.530   5.594  0.1365 -0.3420 -0.0883
    1BTD    C76 6687   1.974   4.394   5.657 -0.1584  0.1822  0.0270
    1BTD    C77 6688   2.021   4.275   5.569  0.0642  0.3387 -0.8086
    1BTD    C78 6689   2.171   4.240   5.569  0.2175 -0.4141  0.2535
    1BTD    C79 6690   2.012   4.389   5.808  0.0623 -0.2598 -0.2595
    1BTD    C80 6691   1.960   4.265   5.876  0.1829  0.0780 -0.1856
    1BTD    C81 6692   1.999   4.262   6.025 -0.1486 -0.1402  0.2288
    1BTD    C82 6693   1.969   4.128   6.092  0.9483 -0.1138 -0.0636
    2TTP     S1 6694   2.361   5.135   5.487 -0.0532  0.0161 -0.1193
    2TTP     S5 6695   2.589   4.772   5.528 -0.1131 -0.0023  0.0486
    2TTP     C1 6696   2.697   4.901   5.459 -0.0759 -0.0364  0.0434
    2TTP     C2 6697   2.633   5.021   5.442 -0.0553 -0.0325 -0.0088
    2TTP     C3 6698   2.496   5.015   5.483 -0.0681 -0.0030 -0.0465
    2TTP     C4 6699   2.253   5.006   5.556 -0.0903  0.0502 -0.1142
    2TTP    C17 6700   2.317   4.887   5.573 -0.1110  0.0463 -0.0617
    2TTP    C18 6701   2.454   4.892   5.532 -0.0982  0.0166 -0.0242
    2TTP    C32 6702   2.689   5.156   5.405 -0.3826 -0.8982 -0.0906
    2TTP    C33 6703   2.691   5.272   5.510  0.0661 -0.1124 -0.1414
    2TTP    C34 6704   2.740   5.416   5.465 -0.3077  0.0123  0.6301
    2TTP    C35 6705   2.876   5.413   5.405  0.5734 -0.0637 -0.0516
    2TTP    C36 6706   2.921   5.552   5.362 -0.8708 -0.2643  0.0286
    2TTP    C37 6707   3.060   5.564   5.297 -0.6141  0.2154  0.0719
    2TTP    C38 6708   3.138   5.694   5.296 -0.4623 -0.4824 -0.0927
    2TTP    C39 6709   3.056   5.814   5.245  0.7086  0.1269  0.1935
    2TTP    C40 6710   3.153   5.922   5.197  1.5022 -0.3861  0.3203
    2TTP    C41 6711   3.089   6.060   5.195  1.2409  0.7643 -0.1861
    2TTP    C42 6712   3.188   6.160   5.146 -0.2055  0.2007  0.0281
    3TTP     S1 6713   1.562   4.788   5.559 -0.0483 -0.1869 -0.4702
    3TTP     S5 6714   1.665   4.404   5.723  0.3847  0.2674  0.3382
    3TTP     C1 6715   1.484   4.418   5.717  0.3684  0.0292  0.2543
    3TTP     C2 6716   1.441   4.538   5.666  0.2337 -0.1253 -0.0001
    3TTP     C3 6717   1.550   4.623   5.630  0.1386 -0.0608 -0.1384
    3TTP     C4 6718   1.744   4.774   5.565 -0.0319  0.0514 -0.3866
    3TTP    C17 6719   1.786   4.655   5.616  0.1028  0.2057 -0.1322
    3TTP    C18 6720   1.677   4.570   5.652  0.1979  0.1414  0.0060
    3TTP    C32 6721   1.302   4.589   5.626  0.1459  0.0427 -0.2873
    3TTP    C33 6722   1.242   4.696   5.720  0.4824  0.2498 -0.1989
    3TTP    C34 6723   1.220   4.656   5.865  0.2925  0.1093  0.0040
    3TTP    C35 6724   1.103   4.558   5.883  0.2703  0.4658 -0.1230
    3TTP    C36 6725   1.099   4.494   6.022  0.1069 -0.4472 -0.1516
    3TTP    C37 6726   0.968   4.423   6.039 -0.0004  0.0074 -0.6772
    3TTP    C38 6727   0.959   4.341   6.167 -0.4082  0.8343 -0.8389
    3TTP    C39 6728   0.829   4.262   6.175  0.0720  0.1963 -0.5860
    3TTP    C40 6729   0.806   4.165   6.292  0.3185 -0.1655 -0.3608
    3TTP    C41 6730   0.676   4.100   6.269  0.0772 -0.0963  1.0117
    3TTP    C42 6731   0.667   3.981   6.355  0.5637  0.3254  0.5103
    4BIM     F1 6732   3.299   4.408   5.719 -0.0704 -0.1544  0.1191
    4BIM     F2 6733   3.454   4.501   5.515 -0.0824 -0.0610  0.1520
    4BIM     O1 6734   2.849   4.699   5.645 -0.0755 -0.1223  0.2779
    4BIM     N5 6735   3.357   4.842   5.171 -0.1033  0.0956  0.3127
    4BIM     N6 6736   2.973   5.051   5.154 -0.1049  0.1020  0.4300
    4BIM    C19 6737   2.837   4.892   5.425 -0.0888 -0.0219  0.3658
    4BIM    C20 6738   2.944   4.815   5.451 -0.0870 -0.0334  0.3245
    4BIM    C21 6739   2.943   4.718   5.566 -0.0801 -0.0858  0.2807
    4BIM    C22 6740   3.074   4.651   5.567 -0.0799 -0.0857  0.2426
    4BIM    C23 6741   3.120   4.553   5.655 -0.0745 -0.1256  0.1956
    4BIM    C24 6742   3.248   4.504   5.635 -0.0755 -0.1162  0.1658
    4BIM    C25 6743   3.328   4.552   5.530 -0.0817 -0.0684  0.1830
    4BIM    C26 6744   3.283   4.650   5.442 -0.0870 -0.0281  0.2298
    4BIM    C27 6745   3.153   4.701   5.460 -0.0862 -0.0368  0.2605
    4BIM    C28 6746   3.077   4.803   5.385 -0.0908 -0.0029  0.3113
    4BIM    C29 6747   3.120   4.874   5.276 -0.0974  0.0472  0.3408
    4BIM    C30 6748   3.250   4.856   5.218 -0.1006  0.0738  0.3252
    4BIM    C31 6749   3.039   4.971   5.210 -0.1014  0.0770  0.3897
    5BIM     F1 6750   1.532   3.793   6.239 -0.1178 -0.1751  0.1915
    5BIM     F2 6751   1.270   3.738   6.191 -0.1960  0.0828  0.3184
    5BIM     O1 6752   1.605   4.228   5.926  0.1998 -0.3340  0.0435
    5BIM     N5 6753   0.945   3.970   5.898 -0.0820  0.3405  0.3954
    5BIM     N6 6754   1.055   4.321   5.663  0.1818  0.1643  0.2542
    5BIM    C19 6755   1.381   4.331   5.769  0.2379 -0.1441  0.1123
    5BIM    C20 6756   1.372   4.223   5.849  0.1611 -0.1142  0.1445
    5BIM    C21 6757   1.492   4.177   5.927  0.1464 -0.2173  0.1056
    5BIM    C22 6758   1.449   4.058   6.004  0.0567 -0.1521  0.1559
    5BIM    C23 6759   1.525   3.981   6.091  0.0136 -0.2078  0.1439
    5BIM    C24 6760   1.462   3.874   6.152 -0.0713 -0.1264  0.1994
    5BIM    C25 6761   1.327   3.846   6.127 -0.1115  0.0064  0.2649
    5BIM    C26 6762   1.250   3.923   6.040 -0.0689  0.0626  0.2770
    5BIM    C27 6763   1.312   4.032   5.977  0.0171 -0.0182  0.2214
    5BIM    C28 6764   1.260   4.132   5.881  0.0797  0.0105  0.2170
    5BIM    C29 6765   1.132   4.138   5.832  0.0649  0.1296  0.2702
    5BIM    C30 6766   1.030   4.046   5.868 -0.0159  0.2450  0.3388
    5BIM    C31 6767   1.090   4.239   5.739  0.1293  0.1479  0.2609
    1BTD     S2 6768   2.140   7.517   5.486 -0.1486  0.2378  0.2423
    1BTD     N1 6769   2.228   7.450   5.628 -0.0254  0.1650  0.1308
    1BTD     N2 6770   2.016   7.387   5.483 -0.1849  0.2701  0.3184
    1BTD     N3 6771   1.924   6.999   5.731 -0.0363  0.2046  0.2718
    1BTD     N4 6772   2.185   7.076   5.909  0.1604  0.0751  0.0405
    1BTD     C5 6773   2.203   7.254   5.773  0.0692  0.1197  0.0864
    1BTD     C6 6774   2.164   7.339   5.663 -0.0180  0.1684  0.1547
    1BTD     C7 6775   2.046   7.304   5.582 -0.1073  0.2272  0.2596
    1BTD     C8 6776   1.971   7.185   5.615 -0.1050  0.2344  0.2911
    1BTD    C15 6777   2.012   7.105   5.723 -0.0179  0.1853  0.2218
    1BTD    C16 6778   2.127   7.139   5.801  0.0681  0.1289  0.1207
    1BTD    C43 6779   2.105   7.023   6.023 -0.2033 -0.4610  0.0848
    1BTD    C44 6780   2.163   6.913   6.111 -0.4504  0.3988  0.4364
    1BTD    C45 6781   2.221   6.806   6.016 -0.3142  0.4484 -0.2190
    1BTD    C46 6782   2.312   6.698   6.068  0.8092 -0.5368  0.0347
    1BTD    C47 6783   2.067   6.876   6.223  0.0872  0.2577 -0.0215
    1BTD    C48 6784   2.047   6.986   6.332  0.3345 -0.2612  0.4270
    1BTD    C49 6785   1.914   6.964   6.412 -0.3442 -0.1519 -0.0657
    1BTD    C50 6786   1.783   6.951   6.337  0.0488 -0.0338 -0.5537
    1BTD    C75 6787   1.953   6.869   5.793  0.2541  0.6383  0.0316
    1BTD    C76 6788   1.853   6.775   5.851  0.4277  0.5613 -0.5343
    1BTD    C77 6789   1.905   6.637   5.899  0.0688 -0.1459 -0.1537
    1BTD    C78 6790   1.960   6.556   5.786 -0.3356  0.1309 -0.0169
    1BTD    C79 6791   1.762   6.845   5.956  0.1233 -0.0568 -0.0752
    1BTD    C80 6792   1.638   6.771   6.008  0.5156 -0.2418 -0.4738
    1BTD    C81 6793   1.557   6.861   6.097  0.4160 -0.0130 -0.1941
    1BTD    C82 6794   1.420   6.797   6.121 -0.0069 -0.5108 -0.1789
    2TTP     S1 6795   2.451   7.363   5.904 -0.0207 -0.1163 -0.1778
    2TTP     S5 6796   2.432   7.057   6.206  0.2697 -0.0561 -0.0981
    2TTP     C1 6797   2.569   7.170   6.246  0.3330 -0.0701 -0.2732
    2TTP     C2 6798   2.583   7.271   6.155  0.2471 -0.0894 -0.3083
    2TTP     C3 6799   2.486   7.263   6.050  0.1281 -0.0939 -0.1980
    2TTP     C4 6800   2.314   7.251   5.864 -0.0840 -0.1023 -0.0027
    2TTP    C17 6801   2.300   7.149   5.954  0.0019 -0.0830  0.0321
    2TTP    C18 6802   2.397   7.157   6.059  0.1209 -0.0784 -0.0781
    2TTP    C32 6803   2.678   7.386   6.164 -0.6743 -0.1159  0.5357
    2TTP    C33 6804   2.634   7.531   6.140  0.0128  0.0394  0.1915
    2TTP    C34 6805   2.750   7.629   6.149  0.3452  0.3167 -0.0053
    2TTP    C35 6806   2.710   7.774   6.123  0.2330  0.6399 -0.9137
    2TTP    C36 6807   2.811   7.878   6.152  0.3755  0.2837  0.3567
    2TTP    C37 6808   2.753   8.017   6.119 -0.5127 -0.2019 -0.1958
    2TTP    C38 6809   2.852   8.131   6.150  0.1528 -0.1050  0.7736
    2TTP    C39 6810   2.993   8.141   6.083  0.4347 -0.3472  0.0027
    2TTP    C40 6811   2.995   8.204   5.942  0.3457  0.3077 -0.3746
    2TTP    C41 6812   3.135   8.207   5.891 -0.9589 -0.8808  0.2512
    2TTP    C42 6813   3.141   8.267   5.756  0.1582  0.1572 -0.1174
    3TTP     S1 6814   1.755   7.151   5.408  0.1305 -0.0080 -0.0777
    3TTP     S5 6815   1.618   6.802   5.619  0.0988 -0.0594 -0.1826
    3TTP     C1 6816   1.516   6.824   5.471 -0.0171  0.0992 -0.0802
    3TTP     C2 6817   1.552   6.933   5.397 -0.0143  0.1243 -0.0417
    3TTP     C3 6818   1.662   7.003   5.455  0.0798  0.0193 -0.0919
    3TTP     C4 6819   1.858   7.129   5.557  0.2464 -0.1667 -0.1801
    3TTP    C17 6820   1.822   7.020   5.631  0.2435 -0.1918 -0.2187
    3TTP    C18 6821   1.711   6.950   5.573  0.1496 -0.0868 -0.1684
    3TTP    C32 6822   1.485   6.976   5.263 -0.7766 -0.6002 -0.3440
    3TTP    C33 6823   1.582   7.009   5.156  0.1660  0.1260  0.1902
    3TTP    C34 6824   1.517   7.087   5.045  0.2391 -0.1081  0.6323
    3TTP    C35 6825   1.603   7.099   4.923  0.8114 -0.4008 -0.3566
    3TTP    C36 6826   1.555   7.207   4.824 -0.4144  0.3050  0.3485
    3TTP    C37 6827   1.647   7.217   4.702  0.4856  0.0201  0.3809
    3TTP    C38 6828   1.801   7.205   4.709  0.4102 -0.2254 -1.0367
    3TTP    C39 6829   1.869   7.226   4.578  0.2123 -0.1666 -0.4263
    3TTP    C40 6830   2.016   7.253   4.587 -0.0699 -0.0484 -0.5026
    3TTP    C41 6831   2.053   7.394   4.617  0.0721  0.1364 -0.2174
    3TTP    C42 6832   2.201   7.407   4.659  0.0349 -0.4266 -0.4364
    4BIM     F1 6833   2.452   6.813   6.976 -0.3245  0.0747 -0.3514
    4BIM     F2 6834   2.713   6.864   7.036 -0.3514 -0.0753 -0.1078
    4BIM     O1 6835   2.417   7.034   6.483  0.2251  0.2216 -0.3265
    4BIM     N5 6836   3.062   7.093   6.771  0.0019 -0.1863  0.2601
    4BIM     N6 6837   2.982   7.255   6.374  0.4368 -0.0414  0.2303
    4BIM    C19 6838   2.653   7.160   6.365  0.3948  0.1305 -0.0849
    4BIM    C20 6839   2.652   7.102   6.487  0.2576  0.0993 -0.1007
    4BIM    C21 6840   2.526   7.040   6.540  0.1774  0.1501 -0.2279
    4BIM    C22 6841   2.560   6.987   6.674  0.0321  0.0980 -0.2118
    4BIM    C23 6842   2.475   6.920   6.763 -0.0807  0.1184 -0.3033
    4BIM    C24 6843   2.530   6.880   6.884 -0.2085  0.0588 -0.2656
    4BIM    C25 6844   2.664   6.906   6.915 -0.2221 -0.0185 -0.1401
    4BIM    C26 6845   2.748   6.973   6.827 -0.1099 -0.0391 -0.0483
    4BIM    C27 6846   2.695   7.014   6.704  0.0204  0.0203 -0.0845
    4BIM    C28 6847   2.757   7.086   6.590  0.1584  0.0180 -0.0114
    4BIM    C29 6848   2.888   7.129   6.581  0.1884 -0.0470  0.1150
    4BIM    C30 6849   2.983   7.109   6.686  0.0857 -0.1234  0.1943
    4BIM    C31 6850   2.939   7.198   6.467  0.3248 -0.0434  0.1779
    5BIM     F1 6851   1.049   6.277   5.864  0.2154 -0.2538 -0.0255
    5BIM     F2 6852   0.913   6.234   5.632 -0.1516  0.0862  0.1235
    5BIM     O1 6853   1.399   6.660   5.708  0.0618 -0.1249 -0.0544
    5BIM     N5 6854   0.968   6.445   5.188 -0.7888  0.6667  0.3172
    5BIM     N6 6855   1.269   6.752   5.113 -0.8348  0.6989  0.2646
    5BIM    C19 6856   1.394   6.754   5.432 -0.3434  0.2458  0.0778
    5BIM    C20 6857   1.311   6.660   5.480 -0.2904  0.2000  0.0792
    5BIM    C21 6858   1.320   6.616   5.623 -0.0790  0.0066  0.0089
    5BIM    C22 6859   1.216   6.513   5.642 -0.0732  0.0046  0.0302
    5BIM    C23 6860   1.186   6.443   5.759  0.0907 -0.1442 -0.0161
    5BIM    C24 6861   1.084   6.350   5.753  0.0599 -0.1129  0.0169
    5BIM    C25 6862   1.014   6.328   5.633 -0.1294  0.0624  0.0937
    5BIM    C26 6863   1.043   6.397   5.516 -0.2935  0.2115  0.1401
    5BIM    C27 6864   1.147   6.492   5.521 -0.2653  0.1824  0.1079
    5BIM    C28 6865   1.202   6.581   5.416 -0.4063  0.3095  0.1409
    5BIM    C29 6866   1.161   6.590   5.285 -0.6060  0.4934  0.2147
    5BIM    C30 6867   1.055   6.510   5.232 -0.7058  0.5879  0.2708
    5BIM    C31 6868   1.220   6.679   5.191 -0.7307  0.6053  0.2416
    1BTD     S2 6869   1.019   7.889   1.702  0.0710 -0.2478 -0.0558
    1BTD     N1 6870   0.999   8.059   1.756  0.0292 -0.2339 -0.1138
    1BTD     N2 6871   1.178   7.866   1.784  0.1367 -0.1400 -0.1526
    1BTD     N3 6872   1.464   8.127   2.049  0.1952  0.1042 -0.4548
    1BTD     N4 6873   1.243   8.365   2.015  0.0627 -0.0119 -0.4070
    1BTD     C5 6874   1.129   8.216   1.892  0.0483 -0.1166 -0.2674
    1BTD     C6 6875   1.105   8.089   1.829  0.0646 -0.1543 -0.1980
    1BTD     C7 6876   1.206   7.981   1.844  0.1248 -0.1014 -0.2198
    1BTD     C8 6877   1.324   8.006   1.922  0.1657 -0.0141 -0.3098
    1BTD    C15 6878   1.343   8.132   1.982  0.1478  0.0200 -0.3756
    1BTD    C16 6879   1.247   8.236   1.967  0.0898 -0.0305 -0.3547
    1BTD    C43 6880   1.362   8.449   2.031 -0.4076  0.4457 -0.4395
    1BTD    C44 6881   1.352   8.577   2.123  0.1347  0.1897 -0.1503
    1BTD    C45 6882   1.441   8.698   2.101 -0.0086  0.7076 -0.4811
    1BTD    C46 6883   1.439   8.756   1.967 -0.1126  0.2379 -0.0588
    1BTD    C47 6884   1.373   8.524   2.269 -0.3011 -0.9264 -0.0242
    1BTD    C48 6885   1.343   8.628   2.384 -0.5818 -0.1101  0.1065
    1BTD    C49 6886   1.194   8.654   2.401  0.0439  0.0249 -0.2458
    1BTD    C50 6887   1.149   8.758   2.506  0.0647  0.9407  0.2380
    1BTD    C75 6888   1.499   8.209   2.163 -0.6208  0.7986 -0.2805
    1BTD    C76 6889   1.468   8.144   2.302 -0.4424  0.1836  0.2426
    1BTD    C77 6890   1.546   8.202   2.421  0.3496 -0.2949 -0.5163
    1BTD    C78 6891   1.699   8.220   2.432  0.2503 -0.3894  0.2067
    1BTD    C79 6892   1.314   8.135   2.324  0.1174 -0.2720 -0.0575
    1BTD    C80 6893   1.261   8.060   2.447 -1.0796  0.1037  0.3139
    1BTD    C81 6894   1.115   8.029   2.457 -0.4259  0.3359 -0.1771
    1BTD    C82 6895   1.082   7.983   2.602 -0.3883 -0.1131 -0.1071
    2TTP     S1 6896   0.895   8.385   1.836  0.0926 -0.1264  0.0845
    2TTP     S5 6897   1.062   8.700   2.076 -0.1072  0.0560 -0.0157
    2TTP     C1 6898   0.901   8.755   2.012  0.1296  0.1694 -0.5309
    2TTP     C2 6899   0.840   8.661   1.934  0.2052  0.1197 -0.5302
    2TTP     C3 6900   0.918   8.542   1.922  0.0789 -0.0098 -0.1229
    2TTP     C4 6901   1.057   8.330   1.899 -0.1441 -0.2401  0.5997
    2TTP    C17 6902   1.118   8.424   1.977 -0.2198 -0.1903  0.5991
    2TTP    C18 6903   1.039   8.543   1.989 -0.0935 -0.0608  0.1918
    2TTP    C32 6904   0.694   8.666   1.883 -1.1007 -0.0895  0.1501
    2TTP    C33 6905   0.587   8.576   1.943 -0.0879  0.0165 -0.3408
    2TTP    C34 6906   0.499   8.629   2.057 -0.0941 -0.1505  0.2104
    2TTP    C35 6907   0.428   8.762   2.020 -0.3291  0.3773 -0.0539
    2TTP    C36 6908   0.332   8.767   1.907 -0.4112  0.1212  0.0689
    2TTP    C37 6909   0.217   8.860   1.920  0.2483  0.2976 -0.0480
    2TTP    C38 6910   0.122   8.864   1.797 -0.0604 -0.0428  0.4860
    2TTP    C39 6911  -0.007   8.947   1.806  0.1581 -0.1781 -0.4809
    2TTP    C40 6912  -0.083   8.951   1.673  0.4033 -0.1729 -0.2258
    2TTP    C41 6913  -0.151   8.821   1.627  0.2667 -0.3676  0.4266
    2TTP    C42 6914  -0.276   8.851   1.540  0.0824  0.0828 -0.2816
    3TTP     S1 6915   1.519   7.778   1.887 -0.0919  0.1596 -0.2690
    3TTP     S5 6916   1.818   8.022   2.076 -0.3017 -0.0379  0.3221
    3TTP     C1 6917   1.898   7.871   2.012 -0.2233  0.0486  0.2155
    3TTP     C2 6918   1.810   7.787   1.950 -0.1539  0.1147  0.0266
    3TTP     C3 6919   1.677   7.838   1.951 -0.1601  0.0994 -0.0407
    3TTP     C4 6920   1.439   7.929   1.951 -0.1704  0.0733 -0.1624
    3TTP    C17 6921   1.527   8.013   2.013 -0.2397  0.0074  0.0264
    3TTP    C18 6922   1.660   7.961   2.013 -0.2335  0.0224  0.0938
    3TTP    C32 6923   1.829   7.651   1.875 -0.7080  0.2819 -0.6549
    3TTP    C33 6924   1.800   7.531   1.972 -0.7966  0.2820  0.4948
    3TTP    C34 6925   1.780   7.400   1.901  0.3481 -0.2034  0.2780
    3TTP    C35 6926   1.671   7.398   1.794  0.5706  0.5208 -0.1375
    3TTP    C36 6927   1.531   7.407   1.850  0.0598  0.4158 -0.2735
    3TTP    C37 6928   1.428   7.425   1.737 -0.1229 -0.0560 -0.1827
    3TTP    C38 6929   1.294   7.481   1.795  0.7917  0.2091 -0.0577
    3TTP    C39 6930   1.177   7.494   1.694 -0.2417  0.1568 -0.2590
    3TTP    C40 6931   1.144   7.359   1.622  0.0807 -0.4779 -0.5160
    3TTP    C41 6932   1.034   7.381   1.525 -0.2756 -0.9018  0.4396
    3TTP    C42 6933   0.983   7.252   1.469  0.2186  0.4554  0.7812
    4BIM     F1 6934   1.105   9.411   2.464  0.0737  0.0110 -0.0574
    4BIM     F2 6935   0.908   9.551   2.338 -0.0518 -0.0153  0.1100
    4BIM     O1 6936   1.048   8.924   2.234  0.1039  0.0687 -0.1870
    4BIM     N5 6937   0.584   9.404   1.994 -0.2107 -0.0124  0.2582
    4BIM     N6 6938   0.579   8.995   1.840 -0.1618  0.0379  0.1232
    4BIM    C19 6939   0.840   8.884   2.033 -0.0053  0.0637 -0.0731
    4BIM    C20 6940   0.862   9.001   2.096 -0.0080  0.0503 -0.0471
    4BIM    C21 6941   0.971   9.014   2.198  0.0502  0.0539 -0.1094
    4BIM    C22 6942   0.967   9.153   2.246  0.0307  0.0365 -0.0603
    4BIM    C23 6943   1.050   9.213   2.341  0.0683  0.0329 -0.0905
    4BIM    C24 6944   1.027   9.346   2.371  0.0393  0.0155 -0.0318
    4BIM    C25 6945   0.926   9.418   2.306 -0.0254  0.0019  0.0544
    4BIM    C26 6946   0.843   9.360   2.210 -0.0632  0.0052  0.0851
    4BIM    C27 6947   0.864   9.224   2.180 -0.0346  0.0229  0.0265
    4BIM    C28 6948   0.795   9.134   2.085 -0.0610  0.0310  0.0381
    4BIM    C29 6949   0.690   9.166   2.002 -0.1227  0.0219  0.1133
    4BIM    C30 6950   0.632   9.297   1.998 -0.1709  0.0031  0.1927
    4BIM    C31 6951   0.630   9.072   1.913 -0.1439  0.0310  0.1183
    5BIM     F1 6952   2.555   8.336   2.161  0.2316  0.1431 -0.6829
    5BIM     F2 6953   2.709   8.111   2.157  0.0607 -0.0010  0.3377
    5BIM     O1 6954   2.066   8.128   2.058  0.2480  0.1953 -0.8654
    5BIM     N5 6955   2.581   7.640   2.078 -0.1733 -0.1707  1.6752
    5BIM     N6 6956   2.168   7.523   1.998 -0.1260 -0.1007  1.3269
    5BIM    C19 6957   2.039   7.839   2.017  0.0904  0.0763  0.0450
    5BIM    C20 6958   2.156   7.901   2.044  0.0930  0.0687  0.0510
    5BIM    C21 6959   2.162   8.049   2.063  0.1764  0.1323 -0.4330
    5BIM    C22 6960   2.303   8.083   2.090  0.1563  0.1054 -0.2910
    5BIM    C23 6961   2.358   8.208   2.114  0.2131  0.1450 -0.6109
    5BIM    C24 6962   2.495   8.215   2.136  0.1791  0.1074 -0.3888
    5BIM    C25 6963   2.574   8.099   2.134  0.0911  0.0333  0.1370
    5BIM    C26 6964   2.520   7.973   2.110  0.0342 -0.0060  0.4586
    5BIM    C27 6965   2.382   7.965   2.087  0.0674  0.0306  0.2408
    5BIM    C28 6966   2.294   7.848   2.059  0.0249  0.0051  0.4719
    5BIM    C29 6967   2.334   7.717   2.049 -0.0610 -0.0643  0.9789
    5BIM    C30 6968   2.470   7.675   2.065 -0.1224 -0.1224  1.3599
    5BIM    C31 6969   2.242   7.611   2.021 -0.0963 -0.0839  1.1674
    1BTD     S2 6970   0.991   1.144   7.236  0.1710  0.0896  0.3784
    1BTD     N1 6971   0.978   0.978   7.304  0.1638 -0.0593  0.0218
    1BTD     N2 6972   0.817   1.154   7.190  0.1110  0.3059  0.6503
    1BTD     N3 6973   0.441   0.875   7.222 -0.0244  0.4777  0.5610
    1BTD     N4 6974   0.640   0.659   7.362  0.0406  0.0277 -0.2135
    1BTD     C5 6975   0.799   0.814   7.333  0.0987 -0.0084 -0.0916
    1BTD     C6 6976   0.852   0.941   7.291  0.1193  0.0540  0.1189
    1BTD     C7 6977   0.762   1.039   7.227  0.0898  0.2584  0.4708
    1BTD     C8 6978   0.623   1.006   7.209  0.0411  0.3902  0.5944
    1BTD    C15 6979   0.576   0.880   7.252  0.0225  0.3226  0.3790
    1BTD    C16 6980   0.663   0.786   7.313  0.0509  0.1257  0.0403
    1BTD    C43 6981   0.509   0.617   7.428 -0.3726  0.9228 -0.4963
    1BTD    C44 6982   0.466   0.466   7.437  0.6184 -0.0511 -0.1014
    1BTD    C45 6983   0.448   0.401   7.294 -0.6047  0.3612  0.0040
    1BTD    C46 6984   0.455   0.247   7.283 -0.0557  0.0477  0.2551
    1BTD    C47 6985   0.360   0.429   7.540 -0.2795  0.7596 -0.5307
    1BTD    C48 6986   0.368   0.481   7.688  0.2883  0.0406 -0.7509
    1BTD    C49 6987   0.251   0.434   7.770  0.0393 -0.3222  0.1674
    1BTD    C50 6988   0.231   0.484   7.910 -0.0787 -0.4590 -0.1006
    1BTD    C75 6989   0.372   0.754   7.178 -0.4296 -0.1907  0.5912
    1BTD    C76 6990   0.225   0.720   7.210  0.4604  0.1177  0.9823
    1BTD    C77 6991   0.188   0.735   7.355 -0.0971  0.8286 -0.0029
    1BTD    C78 6992   0.043   0.734   7.409 -0.4474 -0.6272 -0.2049
    1BTD    C79 6993   0.170   0.594   7.151  0.3698 -0.0913 -0.0146
    1BTD    C80 6994   0.198   0.551   7.004  0.0513  0.0577  0.5353
    1BTD    C81 6995   0.161   0.646   6.890 -0.0142  0.5175  0.7806
    1BTD    C82 6996   0.012   0.674   6.869  1.1555  0.1775 -0.3978
    2TTP     S1 6997   1.017   0.659   7.469 -0.1200  0.1958 -0.0120
    2TTP     S5 6998   0.750   0.323   7.497 -0.1380  0.2083 -0.0345
    2TTP     C1 6999   0.913   0.273   7.561 -0.2055  0.2650  0.1812
    2TTP     C2 7000   1.005   0.374   7.556 -0.2039  0.2645  0.2009
    2TTP     C3 7001   0.950   0.494   7.502 -0.1493  0.2193  0.0465
    2TTP     C4 7002   0.855   0.709   7.404 -0.0525  0.1391 -0.2277
    2TTP    C17 7003   0.763   0.608   7.409 -0.0541  0.1396 -0.2472
    2TTP    C18 7004   0.817   0.488   7.464 -0.1086  0.1848 -0.0927
    2TTP    C32 7005   1.152   0.373   7.604  0.0109  0.1337 -0.1733
    2TTP    C33 7006   1.190   0.461   7.719 -0.8154 -0.4455  0.1991
    2TTP    C34 7007   1.333   0.441   7.761 -0.4576 -0.5199 -0.9203
    2TTP    C35 7008   1.410   0.556   7.822 -0.1420 -0.7186 -0.0414
    2TTP    C36 7009   1.564   0.545   7.819  0.3518  0.2610  0.3022
    2TTP    C37 7010   1.620   0.477   7.942  0.5327 -0.0927  0.4091
    2TTP    C38 7011   1.770   0.472   7.919  0.6744  0.5199  0.0269
    2TTP    C39 7012   1.855   0.388   8.010 -0.3342  0.4946 -0.1399
    2TTP    C40 7013   1.876   0.439   8.143  0.7906  0.0446  0.2906
    2TTP    C41 7014   1.929   0.579   8.167 -0.5599 -0.0349 -0.4996
    2TTP    C42 7015   1.945   0.620   8.316 -0.1241 -0.2310  0.2344
    3TTP     S1 7016   0.475   1.240   7.081 -0.0386  0.0363 -0.1388
    3TTP     S5 7017   0.105   1.024   7.122 -0.0797  0.1697  0.2022
    3TTP     C1 7018   0.068   1.190   7.058 -0.0638  0.1329  0.0960
    3TTP     C2 7019   0.180   1.267   7.042 -0.0502  0.0895 -0.0156
    3TTP     C3 7020   0.299   1.197   7.079 -0.0518  0.0838 -0.0212
    3TTP     C4 7021   0.512   1.073   7.144 -0.0545  0.0732 -0.0327
    3TTP    C17 7022   0.400   0.997   7.161 -0.0681  0.1165  0.0789
    3TTP    C18 7023   0.281   1.067   7.124 -0.0665  0.1222  0.0845
    3TTP    C32 7024   0.196   1.405   6.990 -0.0846  0.1092  0.2979
    3TTP    C33 7025   0.240   1.513   7.091 -0.1231  0.1201 -0.4329
    3TTP    C34 7026   0.152   1.567   7.207  1.2837 -0.2025 -0.3296
    3TTP    C35 7027   0.026   1.651   7.164 -0.3375  0.8889 -0.1037
    3TTP    C36 7028   0.056   1.780   7.085  0.7854  0.3608  0.6410
    3TTP    C37 7029   0.128   1.890   7.157 -0.3416 -0.4273  0.5126
    3TTP    C38 7030   0.166   2.013   7.079  0.2433  0.0607 -0.2044
    3TTP    C39 7031   0.262   2.110   7.152 -0.1968  0.8264  0.2734
    3TTP    C40 7032   0.346   2.191   7.056 -0.0905 -0.1958  0.6911
    3TTP    C41 7033   0.457   2.278   7.113 -0.2487  0.0221  0.7825
    3TTP    C42 7034   0.424   2.377   7.229 -0.1090 -0.3610  0.0049
    4BIM     F1 7035   0.572  -0.471   7.562  0.1113  0.1507  0.0079
    4BIM     F2 7036   0.774  -0.557   7.723 -0.0160  0.1402  0.1630
    4BIM     O1 7037   0.714   0.046   7.487  0.3527  0.0655 -0.1240
    4BIM     N5 7038   1.166  -0.312   7.900 -0.0269  0.0641  0.2921
    4BIM     N6 7039   1.236   0.110   7.809  0.1874 -0.0001  0.1578
    4BIM    C19 7040   0.957   0.148   7.613  0.3168  0.0253 -0.0225
    4BIM    C20 7041   0.914   0.021   7.626  0.2611  0.0470  0.0045
    4BIM    C21 7042   0.787  -0.024   7.558  0.2841  0.0668 -0.0513
    4BIM    C22 7043   0.769  -0.166   7.593  0.2097  0.0880 -0.0026
    4BIM    C23 7044   0.666  -0.251   7.553  0.2009  0.1106 -0.0280
    4BIM    C24 7045   0.670  -0.382   7.598  0.1243  0.1279  0.0290
    4BIM    C25 7046   0.775  -0.426   7.681  0.0588  0.1223  0.1087
    4BIM    C26 7047   0.878  -0.342   7.721  0.0671  0.0997  0.1347
    4BIM    C27 7048   0.875  -0.209   7.676  0.1442  0.0823  0.0778
    4BIM    C28 7049   0.968  -0.095   7.700  0.1732  0.0567  0.0854
    4BIM    C29 7050   1.083  -0.098   7.776  0.1273  0.0446  0.1540
    4BIM    C30 7051   1.128  -0.216   7.844  0.0427  0.0556  0.2297
    4BIM    C31 7052   1.166   0.016   7.794  0.1606  0.0200  0.1558
    5BIM     F1 7053  -0.652   0.811   6.946  0.1616  0.1087  0.3119
    5BIM     F2 7054  -0.747   1.038   6.830  0.1073 -0.0115  0.1187
    5BIM     O1 7055  -0.149   0.964   7.074  0.1144  0.3489  0.2110
    5BIM     N5 7056  -0.526   1.474   6.756 -0.0050 -0.0131 -0.2307
    5BIM     N6 7057  -0.114   1.548   6.880 -0.0308  0.1987 -0.2705
    5BIM    C19 7058  -0.061   1.236   7.009  0.0456  0.3193 -0.0093
    5BIM    C20 7059  -0.184   1.188   6.982  0.0596  0.2636  0.0236
    5BIM    C21 7060  -0.222   1.047   7.018  0.0954  0.2834  0.1383
    5BIM    C22 7061  -0.361   1.029   6.974  0.1025  0.2098  0.1465
    5BIM    C23 7062  -0.440   0.914   6.986  0.1321  0.1989  0.2371
    5BIM    C24 7063  -0.569   0.920   6.937  0.1331  0.1238  0.2254
    5BIM    C25 7064  -0.618   1.038   6.877  0.1051  0.0619  0.1259
    5BIM    C26 7065  -0.541   1.152   6.865  0.0751  0.0725  0.0352
    5BIM    C27 7066  -0.409   1.148   6.914  0.0737  0.1481  0.0454
    5BIM    C28 7067  -0.302   1.251   6.917  0.0463  0.1787 -0.0342
    5BIM    C29 7068  -0.311   1.379   6.868  0.0148  0.1363 -0.1408
    5BIM    C30 7069  -0.429   1.431   6.807  0.0041  0.0543 -0.1898
    5BIM    C31 7070  -0.202   1.471   6.875 -0.0103  0.1709 -0.2115
    1BTD     S2 7071   6.492   0.070   4.372  0.1745 -0.1227 -0.0292
    1BTD     N1 7072   6.601  -0.062   4.425  0.0612 -0.1273  0.1963
    1BTD     N2 7073   6.367  -0.040   4.305  0.3231 -0.1168 -0.3210
    1BTD     N3 7074   6.310  -0.505   4.265  0.4213 -0.1128 -0.5088
    1BTD     N4 7075   6.599  -0.532   4.412  0.0983 -0.1259  0.1290
    1BTD     C5 7076   6.597  -0.307   4.416  0.0843 -0.1264  0.1535
    1BTD     C6 7077   6.542  -0.176   4.392  0.1360 -0.1242  0.0501
    1BTD     C7 7078   6.411  -0.164   4.325  0.2826 -0.1185 -0.2396
    1BTD     C8 7079   6.340  -0.283   4.286  0.3706 -0.1147 -0.4114
    1BTD    C15 7080   6.398  -0.409   4.312  0.3156 -0.1170 -0.3013
    1BTD    C16 7081   6.524  -0.421   4.377  0.1741 -0.1227 -0.0222
    1BTD    C43 7082   6.621  -0.649   4.325 -0.2137  0.6167  0.0510
    1BTD    C44 7083   6.666  -0.787   4.378  0.2001 -0.1122 -0.3961
    1BTD    C45 7084   6.711  -0.889   4.277 -0.0088 -0.3377 -0.1163
    1BTD    C46 7085   6.835  -0.855   4.194  0.0516  0.9559  0.5339
    1BTD    C47 7086   6.565  -0.836   4.485 -0.1174  0.1304  0.1425
    1BTD    C48 7087   6.625  -0.954   4.567  0.2520 -0.4179 -0.1917
    1BTD    C49 7088   6.559  -1.015   4.692  0.2353 -0.4144 -0.2648
    1BTD    C50 7089   6.640  -1.123   4.752 -0.0233  0.4033 -0.1995
    1BTD    C75 7090   6.274  -0.635   4.331 -0.6389  0.0265  0.5216
    1BTD    C76 7091   6.220  -0.763   4.252  0.3962 -0.2735 -0.5120
    1BTD    C77 7092   6.146  -0.865   4.343 -0.7259  0.1599 -0.5040
    1BTD    C78 7093   6.230  -0.918   4.471  0.8694  0.1714  0.2517
    1BTD    C79 7094   6.318  -0.818   4.152 -0.0079 -0.0803  0.1537
    1BTD    C80 7095   6.261  -0.921   4.054  0.3758  0.4158 -0.4268
    1BTD    C81 7096   6.351  -0.982   3.955 -0.0900 -0.1934 -0.0329
    1BTD    C82 7097   6.262  -1.073   3.867 -0.2469 -0.2544  0.1216
    2TTP     S1 7098   6.857  -0.279   4.565  0.0019 -0.1227  0.0807
    2TTP     S5 7099   6.882  -0.707   4.601  0.0588 -0.1085  0.2060
    2TTP     C1 7100   7.026  -0.633   4.684  0.1640 -0.0743 -0.0061
    2TTP     C2 7101   7.027  -0.496   4.678  0.1526 -0.0770 -0.0571
    2TTP     C3 7102   6.914  -0.445   4.607  0.0604 -0.1056  0.0691
    2TTP     C4 7103   6.713  -0.353   4.482 -0.1034 -0.1564  0.2929
    2TTP    C17 7104   6.712  -0.489   4.488 -0.0920 -0.1538  0.3437
    2TTP    C18 7105   6.825  -0.540   4.559  0.0002 -0.1252  0.2176
    2TTP    C32 7106   7.134  -0.405   4.738 -0.0874  0.2865  0.4072
    2TTP    C33 7107   7.210  -0.317   4.643 -0.5441  0.3189 -0.3099
    2TTP    C34 7108   7.332  -0.265   4.726 -0.4572  0.3426  0.0442
    2TTP    C35 7109   7.412  -0.147   4.673  0.2932  0.2813  0.1331
    2TTP    C36 7110   7.552  -0.131   4.726  1.1230  0.6940  0.2496
    2TTP    C37 7111   7.622  -0.018   4.654 -0.6922 -0.0841 -1.2665
    2TTP    C38 7112   7.763  -0.010   4.722 -0.1654 -0.1482 -0.1771
    2TTP    C39 7113   7.863   0.095   4.665 -0.2095  0.0199  0.0400
    2TTP    C40 7114   7.999   0.077   4.738 -0.2279  0.0519 -0.4251
    2TTP    C41 7115   8.097   0.145   4.649  0.3171 -0.1714  0.0493
    2TTP    C42 7116   8.238   0.165   4.715  0.1212 -0.2699 -0.1945
    3TTP     S1 7117   6.110  -0.208   4.108  0.0130  0.0197 -0.0013
    3TTP     S5 7118   6.078  -0.620   3.986 -0.0839  0.0885 -0.2089
    3TTP     C1 7119   5.975  -0.518   3.876 -0.2112  0.1455 -0.0389
    3TTP     C2 7120   5.979  -0.385   3.907 -0.1889  0.1273  0.0352
    3TTP     C3 7121   6.064  -0.359   4.019 -0.0703  0.0679 -0.0396
    3TTP     C4 7122   6.213  -0.310   4.218  0.1404 -0.0372 -0.1711
    3TTP    C17 7123   6.210  -0.443   4.187  0.1180 -0.0194 -0.2453
    3TTP    C18 7124   6.125  -0.469   4.075 -0.0005  0.0401 -0.1706
    3TTP    C32 7125   5.902  -0.269   3.833 -0.3395 -0.1311 -0.1075
    3TTP    C33 7126   5.828  -0.166   3.924  0.4125  0.6624  0.3007
    3TTP    C34 7127   5.768  -0.052   3.846  0.6240 -0.1953  0.5131
    3TTP    C35 7128   5.681   0.045   3.927  0.6402  0.0589 -0.7091
    3TTP    C36 7129   5.604   0.161   3.857 -0.0251  0.0361  0.2424
    3TTP    C37 7130   5.706   0.266   3.804  0.6566 -0.1783  0.3631
    3TTP    C38 7131   5.634   0.383   3.734  0.7961  0.3796  0.3173
    3TTP    C39 7132   5.537   0.472   3.818 -0.0226 -0.4248  0.3733
    3TTP    C40 7133   5.610   0.542   3.932 -0.5441  0.2886 -0.0461
    3TTP    C41 7134   5.537   0.634   4.025 -0.0627  0.5969  0.4168
    3TTP    C42 7135   5.607   0.639   4.157 -0.2395 -0.3579  0.0658
    4BIM     F1 7136   7.058  -1.368   5.048 -0.1030  0.0117  0.1113
    4BIM     F2 7137   7.327  -1.337   5.072 -0.0805 -0.0825 -0.0200
    4BIM     O1 7138   6.921  -0.898   4.817 -0.0174 -0.0427 -0.0515
    4BIM     N5 7139   7.617  -0.957   4.944  0.0130 -0.2568 -0.3251
    4BIM     N6 7140   7.456  -0.596   4.759  0.0753 -0.2806 -0.4259
    4BIM    C19 7141   7.130  -0.701   4.759  0.0344 -0.1521 -0.2349
    4BIM    C20 7142   7.154  -0.820   4.816  0.0122 -0.1347 -0.1888
    4BIM    C21 7143   7.041  -0.916   4.843 -0.0139 -0.0777 -0.0947
    4BIM    C22 7144   7.102  -1.036   4.905 -0.0340 -0.0722 -0.0647
    4BIM    C23 7145   7.037  -1.151   4.948 -0.0610 -0.0269  0.0181
    4BIM    C24 7146   7.116  -1.251   5.003 -0.0763 -0.0315  0.0313
    4BIM    C25 7147   7.254  -1.235   5.016 -0.0644 -0.0800 -0.0367
    4BIM    C26 7148   7.319  -1.120   4.974 -0.0376 -0.1256 -0.1192
    4BIM    C27 7149   7.242  -1.018   4.917 -0.0218 -0.1218 -0.1338
    4BIM    C28 7150   7.279  -0.885   4.863  0.0069 -0.1621 -0.2129
    4BIM    C29 7151   7.406  -0.831   4.857  0.0253 -0.2146 -0.2930
    4BIM    C30 7152   7.522  -0.901   4.905  0.0184 -0.2377 -0.3102
    4BIM    C31 7153   7.433  -0.702   4.803  0.0526 -0.2506 -0.3657
    5BIM     F1 7154   5.850  -1.257   3.532  0.1038  0.0436 -0.0210
    5BIM     F2 7155   5.706  -1.135   3.336 -0.1659 -0.0033  0.1466
    5BIM     O1 7156   5.992  -0.831   3.835  0.2873  0.0863 -0.1665
    5BIM     N5 7157   5.600  -0.656   3.270 -0.4227 -0.0410  0.2838
    5BIM     N6 7158   5.741  -0.348   3.546 -0.2251  0.0017  0.1364
    5BIM    C19 7159   5.905  -0.564   3.755  0.0949  0.0561 -0.0582
    5BIM    C20 7160   5.875  -0.675   3.686  0.0592  0.0474 -0.0281
    5BIM    C21 7161   5.924  -0.810   3.734  0.1640  0.0641 -0.0878
    5BIM    C22 7162   5.873  -0.909   3.637  0.0914  0.0484 -0.0346
    5BIM    C23 7163   5.892  -1.047   3.639  0.1459  0.0556 -0.0613
    5BIM    C24 7164   5.835  -1.120   3.536  0.0568  0.0383  0.0011
    5BIM    C25 7165   5.761  -1.057   3.436 -0.0820  0.0135  0.0874
    5BIM    C26 7166   5.741  -0.920   3.433 -0.1371  0.0060  0.1146
    5BIM    C27 7167   5.799  -0.844   3.536 -0.0485  0.0241  0.0523
    5BIM    C28 7168   5.797  -0.698   3.562 -0.0738  0.0224  0.0597
    5BIM    C29 7169   5.735  -0.601   3.486 -0.1971  0.0014  0.1339
    5BIM    C30 7170   5.661  -0.632   3.368 -0.3207 -0.0217  0.2160
    5BIM    C31 7171   5.738  -0.463   3.520 -0.2117  0.0017  0.1348
    1BTD     S2 7172   6.968   2.944   2.307  0.4609  0.0120 -0.0515
    1BTD     N1 7173   6.852   2.969   2.172  0.5702 -0.0011 -0.1484
    1BTD     N2 7174   6.905   2.782   2.351  0.2263  0.1466  0.1103
    1BTD     N3 7175   6.565   2.497   2.197 -0.0553  0.3971  0.2651
    1BTD     N4 7176   6.500   2.728   1.977  0.3685  0.2151 -0.0537
    1BTD     C5 7177   6.669   2.840   2.073  0.4597  0.1140 -0.0951
    1BTD     C6 7178   6.776   2.861   2.167  0.4331  0.0908 -0.0597
    1BTD     C7 7179   6.805   2.756   2.267  0.2404  0.1734  0.0851
    1BTD     C8 7180   6.727   2.636   2.268  0.0843  0.2753  0.1873
    1BTD    C15 7181   6.623   2.620   2.174  0.1171  0.2944  0.1479
    1BTD    C16 7182   6.595   2.721   2.077  0.3026  0.2148  0.0084
    1BTD    C43 7183   6.453   2.614   1.895 -0.0705  0.2601 -0.4680
    1BTD    C44 7184   6.332   2.608   1.801  0.6339  0.5147 -0.2694
    1BTD    C45 7185   6.201   2.613   1.885 -0.5038  0.7140 -0.0220
    1BTD    C46 7186   6.070   2.641   1.817 -0.5096 -0.1163 -0.0613
    1BTD    C47 7187   6.345   2.503   1.688 -0.3586  0.4341  0.1491
    1BTD    C48 7188   6.470   2.512   1.591  0.2451  0.6086  0.1527
    1BTD    C49 7189   6.466   2.405   1.477 -0.1313 -0.0532 -0.0631
    1BTD    C50 7190   6.348   2.399   1.381 -0.2718 -0.3720 -0.4798
    1BTD    C75 7191   6.421   2.468   2.177 -0.4737  0.0848 -0.1705
    1BTD    C76 7192   6.351   2.330   2.169  0.1533  0.4832 -0.0752
    1BTD    C77 7193   6.203   2.355   2.193 -0.3795 -0.2954  0.1258
    1BTD    C78 7194   6.157   2.386   2.335  0.0614  0.0123  0.0197
    1BTD    C79 7195   6.396   2.246   2.048  0.3090  0.7907 -0.5083
    1BTD    C80 7196   6.344   2.103   2.042 -0.2443 -0.0162 -0.1437
    1BTD    C81 7197   6.387   2.026   1.920 -0.1402  0.0778  0.0562
    1BTD    C82 7198   6.323   2.070   1.795  0.9286  0.1066 -0.3793
    2TTP     S1 7199   6.605   3.102   1.955  0.0426 -0.1422  0.1413
    2TTP     S5 7200   6.262   2.927   1.765  0.1079  0.0226 -0.1297
    2TTP     C1 7201   6.255   3.107   1.742  0.2332  0.0225 -0.1691
    2TTP     C2 7202   6.361   3.172   1.799  0.2205 -0.0285 -0.0877
    2TTP     C3 7203   6.451   3.081   1.864  0.1113 -0.0692  0.0087
    2TTP     C4 7204   6.612   2.922   1.979 -0.0826 -0.1421  0.1806
    2TTP    C17 7205   6.507   2.857   1.921 -0.0700 -0.0911  0.0993
    2TTP    C18 7206   6.417   2.947   1.857  0.0393 -0.0504  0.0029
    2TTP    C32 7207   6.399   3.317   1.806  0.4390 -0.0357  0.3853
    2TTP    C33 7208   6.299   3.419   1.863 -0.5564 -0.2389  0.0370
    2TTP    C34 7209   6.258   3.389   2.010  0.4239 -0.1684 -0.5104
    2TTP    C35 7210   6.123   3.441   2.073 -0.2975  0.0257 -0.1383
    2TTP    C36 7211   5.993   3.380   2.030  0.3543 -0.2976 -0.0588
    2TTP    C37 7212   5.918   3.424   1.910 -0.1777 -0.2240  0.1054
    2TTP    C38 7213   5.867   3.561   1.879 -0.1437 -0.0695 -0.2711
    2TTP    C39 7214   5.932   3.626   1.755  0.4445  0.2284 -0.2929
    2TTP    C40 7215   6.066   3.702   1.772  0.3075  0.6087 -0.2488
    2TTP    C41 7216   6.099   3.776   1.643 -0.0256  1.3358 -0.2607
    2TTP    C42 7217   6.217   3.860   1.678  0.5259 -0.5817  0.5523
    3TTP     S1 7218   6.834   2.438   2.474  0.0945  0.0734 -0.3409
    3TTP     S5 7219   6.562   2.136   2.336  0.0938 -0.2249  0.3074
    3TTP     C1 7220   6.667   2.064   2.466  0.4683 -0.1045  0.0737
    3TTP     C2 7221   6.758   2.153   2.516  0.4907 -0.0051 -0.1402
    3TTP     C3 7222   6.747   2.281   2.454  0.2127 -0.0208 -0.1274
    3TTP     C4 7223   6.729   2.510   2.344 -0.2800 -0.0471 -0.1072
    3TTP    C17 7224   6.639   2.421   2.294 -0.3023 -0.1464  0.1068
    3TTP    C18 7225   6.649   2.293   2.356 -0.0244 -0.1308  0.0939
    3TTP    C32 7226   6.865   2.133   2.620  0.0357  0.1619 -0.2293
    3TTP    C33 7227   7.013   2.152   2.580 -0.3158  0.6731  0.1866
    3TTP    C34 7228   7.079   2.047   2.491 -0.4685  0.1939  0.2723
    3TTP    C35 7229   7.214   2.089   2.436 -0.2862 -0.2253 -0.0653
    3TTP    C36 7230   7.279   1.994   2.339 -0.4966  0.2110  0.3847
    3TTP    C37 7231   7.335   1.862   2.392 -0.5812 -0.1066  0.8909
    3TTP    C38 7232   7.424   1.792   2.287  0.2802  0.0157 -0.1391
    3TTP    C39 7233   7.506   1.674   2.348 -0.7515 -0.2743 -0.1838
    3TTP    C40 7234   7.584   1.614   2.229  0.3802 -0.7072  0.1046
    3TTP    C41 7235   7.660   1.493   2.262 -0.0946  0.0642  0.2069
    3TTP    C42 7236   7.723   1.437   2.137 -0.2953 -0.0782  0.2813
    4BIM     F1 7237   5.449   2.998   1.797  0.2092  0.0097 -0.0365
    4BIM     F2 7238   5.416   3.197   1.614  0.1060  0.3417  0.3380
    4BIM     O1 7239   5.987   2.996   1.850  0.2359 -0.0552 -0.3079
    4BIM     N5 7240   5.753   3.480   1.388 -0.0231  0.7728  0.6832
    4BIM     N6 7241   6.180   3.438   1.466  0.0184  0.6551  0.3957
    4BIM    C19 7242   6.147   3.184   1.693  0.1469  0.2389 -0.0464
    4BIM    C20 7243   6.013   3.177   1.687  0.1442  0.2423  0.0073
    4BIM    C21 7244   5.938   3.077   1.771  0.1918  0.0858 -0.1355
    4BIM    C22 7245   5.795   3.096   1.740  0.1752  0.1335 -0.0304
    4BIM    C23 7246   5.687   3.027   1.793  0.2056  0.0307 -0.1023
    4BIM    C24 7247   5.560   3.063   1.749  0.1813  0.1041  0.0250
    4BIM    C25 7248   5.544   3.165   1.654  0.1283  0.2753  0.2179
    4BIM    C26 7249   5.651   3.235   1.601  0.0976  0.3785  0.2906
    4BIM    C27 7250   5.780   3.200   1.645  0.1215  0.3064  0.1640
    4BIM    C28 7251   5.913   3.254   1.608  0.1004  0.3800  0.1948
    4BIM    C29 7252   5.939   3.355   1.519  0.0497  0.5445  0.3646
    4BIM    C30 7253   5.837   3.423   1.447  0.0099  0.6695  0.5392
    4BIM    C31 7254   6.072   3.400   1.490  0.0329  0.6045  0.3808
    5BIM     F1 7255   6.326   1.369   2.198 -0.2923  0.1624  0.3167
    5BIM     F2 7256   6.439   1.239   2.409  0.3135  0.0210 -0.0894
    5BIM     O1 7257   6.501   1.874   2.283 -0.4603  0.2016  0.4296
    5BIM     N5 7258   6.726   1.412   2.773  1.0647 -0.1545 -0.5929
    5BIM     N6 7259   6.840   1.833   2.797  0.8113 -0.0953 -0.4228
    5BIM    C19 7260   6.671   1.929   2.515  0.0588  0.0803  0.0817
    5BIM    C20 7261   6.623   1.807   2.485  0.0775  0.0761  0.0692
    5BIM    C21 7262   6.536   1.787   2.364 -0.1996  0.1407  0.2549
    5BIM    C22 7263   6.501   1.643   2.362 -0.0999  0.1175  0.1879
    5BIM    C23 7264   6.422   1.577   2.268 -0.2763  0.1587  0.3062
    5BIM    C24 7265   6.403   1.441   2.286 -0.1313  0.1248  0.2089
    5BIM    C25 7266   6.461   1.374   2.395  0.1810  0.0520 -0.0005
    5BIM    C26 7267   6.540   1.440   2.489  0.3585  0.0105 -0.1194
    5BIM    C27 7268   6.561   1.578   2.472  0.2155  0.0438 -0.0235
    5BIM    C28 7269   6.638   1.676   2.552  0.3369  0.0155 -0.1048
    5BIM    C29 7270   6.709   1.649   2.667  0.6330 -0.0537 -0.3033
    5BIM    C30 7271   6.718   1.519   2.725  0.8694 -0.1088 -0.4619
    5BIM    C31 7272   6.781   1.751   2.738  0.7293 -0.0762 -0.3679
    1BTD     S2 7273   2.748   3.280   5.753 -0.0953 -0.3564  0.1940
    1BTD     N1 7274   2.826   3.140   5.835  0.0845 -0.3221  0.0815
    1BTD     N2 7275   2.896   3.382   5.754 -0.2375 -0.1515  0.3122
    1BTD     N3 7276   3.338   3.339   5.905 -0.2024  0.3282  0.3500
    1BTD     N4 7277   3.253   3.041   6.004  0.1945  0.1180  0.0657
    1BTD     C5 7278   3.050   3.092   5.922  0.1372 -0.0898  0.0768
    1BTD     C6 7279   2.952   3.175   5.858  0.0321 -0.1676  0.1351
    1BTD     C7 7280   2.991   3.311   5.813 -0.1482 -0.0722  0.2643
    1BTD     C8 7281   3.126   3.356   5.834 -0.2144  0.0964  0.3287
    1BTD    C15 7282   3.218   3.271   5.898 -0.1069  0.1675  0.2677
    1BTD    C16 7283   3.181   3.140   5.941  0.0669  0.0755  0.1434
    1BTD    C43 7284   3.399   3.015   5.974 -0.0007 -0.4051  0.4000
    1BTD    C44 7285   3.498   2.919   6.049  0.0311 -0.0823 -0.4465
    1BTD    C45 7286   3.515   2.970   6.193  0.0024 -0.3503 -0.1156
    1BTD    C46 7287   3.582   2.874   6.286  0.0809 -0.0682 -0.2956
    1BTD    C47 7288   3.611   2.878   5.956 -0.0755 -0.3933 -0.3127
    1BTD    C48 7289   3.710   2.772   5.988 -0.1807  0.7765  0.4229
    1BTD    C49 7290   3.651   2.628   5.989 -0.2444 -0.3000 -0.0437
    1BTD    C50 7291   3.762   2.527   6.018  0.4484  0.0513 -0.3178
    1BTD    C75 7292   3.424   3.337   6.026  0.1773 -0.0796  0.0320
    1BTD    C76 7293   3.568   3.383   6.048 -0.6626  0.2031  0.2348
    1BTD    C77 7294   3.678   3.288   6.003  0.2311 -0.1497  0.0189
    1BTD    C78 7295   3.686   3.263   5.854 -0.0371  0.0648  0.1462
    1BTD    C79 7296   3.604   3.419   6.194  0.7487  0.3953  0.4498
    1BTD    C80 7297   3.543   3.544   6.260  0.0501  0.3171 -0.5724
    1BTD    C81 7298   3.568   3.679   6.196 -0.8497  0.1346 -0.6949
    1BTD    C82 7299   3.499   3.775   6.296  0.5650 -0.6296  0.1785
    2TTP     S1 7300   2.925   2.820   5.999  0.1466  0.0203 -0.0037
    2TTP     S5 7301   3.303   2.700   6.167  0.2378  0.0987 -0.1529
    2TTP     C1 7302   3.185   2.562   6.183  0.2133  0.1461  0.0787
    2TTP     C2 7303   3.062   2.591   6.133  0.1836  0.1248  0.1384
    2TTP     C3 7304   3.055   2.723   6.079  0.1793  0.0701  0.0035
    2TTP     C4 7305   3.042   2.958   5.983  0.1712 -0.0272 -0.2353
    2TTP    C17 7306   3.166   2.929   6.034  0.2009 -0.0058 -0.2952
    2TTP    C18 7307   3.172   2.797   6.088  0.2052  0.0489 -0.1600
    2TTP    C32 7308   2.940   2.500   6.122  0.1583  0.1442 -0.4980
    2TTP    C33 7309   2.835   2.526   6.235  0.7029 -0.2480  0.3210
    2TTP    C34 7310   2.722   2.434   6.231 -0.0934  0.0175  0.7808
    2TTP    C35 7311   2.753   2.321   6.328  0.1657  0.0967  0.0871
    2TTP    C36 7312   2.654   2.196   6.328 -0.3642 -0.7044 -0.1264
    2TTP    C37 7313   2.691   2.077   6.416  0.0146  0.0829  0.1153
    2TTP    C38 7314   2.587   1.971   6.401 -0.2407  0.4831  0.0336
    2TTP    C39 7315   2.633   1.831   6.439 -0.6627  0.0908 -0.6402
    2TTP    C40 7316   2.740   1.774   6.344  0.6047  0.1535  0.4668
    2TTP    C41 7317   2.809   1.652   6.396  0.0759  0.5583  0.0300
    2TTP    C42 7318   2.924   1.635   6.300  0.3552  0.0180  0.0403
    3TTP     S1 7319   3.161   3.625   5.706 -0.0778  0.3721 -0.2070
    3TTP     S5 7320   3.583   3.604   5.787 -0.1702  0.4351  0.2996
    3TTP     C1 7321   3.550   3.752   5.686 -0.0922  0.5150  0.3917
    3TTP     C2 7322   3.418   3.767   5.655 -0.0591  0.5003  0.2406
    3TTP     C3 7323   3.337   3.662   5.710 -0.0941  0.4254  0.0468
    3TTP     C4 7324   3.193   3.476   5.807 -0.1559  0.2923 -0.2990
    3TTP    C17 7325   3.326   3.461   5.837 -0.1891  0.3070 -0.1478
    3TTP    C18 7326   3.406   3.566   5.783 -0.1540  0.3819  0.0458
    3TTP    C32 7327   3.361   3.881   5.573  0.3011  0.1680  0.1740
    3TTP    C33 7328   3.276   3.991   5.643 -0.7485  1.0862 -0.5997
    3TTP    C34 7329   3.346   4.087   5.738 -0.7499  0.9067 -0.4198
    3TTP    C35 7330   3.477   4.158   5.694  0.1244  0.0428 -0.3923
    3TTP    C36 7331   3.544   4.240   5.802  0.6178  0.2344  0.4166
    3TTP    C37 7332   3.683   4.274   5.762 -0.1800 -0.4564  0.1368
    3TTP    C38 7333   3.758   4.359   5.861  0.0265 -0.2500 -0.7780
    3TTP    C39 7334   3.897   4.407   5.824 -0.5782 -0.2119  0.4412
    3TTP    C40 7335   3.971   4.457   5.948  0.4927 -0.9660  0.1761
    3TTP    C41 7336   4.086   4.553   5.912 -0.6113 -0.4280 -0.4749
    3TTP    C42 7337   4.178   4.582   6.030 -0.7733  0.2243 -0.0532
    4BIM     F1 7338   3.822   2.260   6.610  0.0463 -0.0650  0.0815
    4BIM     F2 7339   3.717   2.011   6.578 -0.0188 -0.0465  0.1496
    4BIM     O1 7340   3.446   2.561   6.363  0.1624 -0.0413 -0.0666
    4BIM     N5 7341   3.298   1.867   6.356 -0.0297 -0.0031  0.1421
    4BIM     N6 7342   3.026   2.154   6.170  0.0741  0.0117  0.0125
    4BIM    C19 7343   3.212   2.431   6.245  0.1414 -0.0152 -0.0542
    4BIM    C20 7344   3.311   2.364   6.308  0.1147 -0.0219 -0.0196
    4BIM    C21 7345   3.428   2.439   6.367  0.1278 -0.0352 -0.0288
    4BIM    C22 7346   3.516   2.337   6.428  0.0916 -0.0398  0.0161
    4BIM    C23 7347   3.636   2.358   6.494  0.0888 -0.0514  0.0250
    4BIM    C24 7348   3.702   2.246   6.543  0.0512 -0.0535  0.0703
    4BIM    C25 7349   3.648   2.118   6.527  0.0178 -0.0440  0.1052
    4BIM    C26 7350   3.527   2.097   6.461  0.0204 -0.0322  0.0966
    4BIM    C27 7351   3.459   2.209   6.410  0.0582 -0.0300  0.0509
    4BIM    C28 7352   3.331   2.220   6.336  0.0710 -0.0187  0.0305
    4BIM    C29 7353   3.248   2.117   6.300  0.0469 -0.0074  0.0535
    4BIM    C30 7354   3.276   1.980   6.331  0.0048 -0.0051  0.1019
    4BIM    C31 7355   3.126   2.138   6.228  0.0620  0.0030  0.0308
    5BIM     F1 7356   4.226   4.029   6.043 -0.1390 -0.1795  0.0976
    5BIM     F2 7357   4.292   4.156   5.812 -0.2540  0.3214  0.3366
    5BIM     O1 7358   3.751   3.807   5.908  0.0763 -0.3801 -0.3314
    5BIM     N5 7359   4.047   4.180   5.382 -0.2657  0.8981  0.3749
    5BIM     N6 7360   3.663   3.981   5.323 -0.0744  0.6404 -0.0085
    5BIM    C19 7361   3.645   3.849   5.638  0.0429  0.0270 -0.2552
    5BIM    C20 7362   3.762   3.900   5.681 -0.0067  0.0579 -0.1568
    5BIM    C21 7363   3.810   3.874   5.821  0.0145 -0.1606 -0.2042
    5BIM    C22 7364   3.939   3.943   5.835 -0.0520 -0.0620 -0.0706
    5BIM    C23 7365   4.022   3.948   5.947 -0.0592 -0.1942 -0.0597
    5BIM    C24 7366   4.140   4.020   5.936 -0.1278 -0.0604  0.0787
    5BIM    C25 7367   4.173   4.085   5.817 -0.1871  0.1977  0.2018
    5BIM    C26 7368   4.091   4.081   5.705 -0.1802  0.3308  0.1917
    5BIM    C27 7369   3.972   4.009   5.714 -0.1112  0.1984  0.0525
    5BIM    C28 7370   3.864   3.985   5.614 -0.0857  0.2823  0.0044
    5BIM    C29 7371   3.860   4.032   5.485 -0.1273  0.5223  0.0925
    5BIM    C30 7372   3.963   4.113   5.429 -0.2033  0.7281  0.2475
    5BIM    C31 7373   3.752   4.004   5.397 -0.0979  0.5859  0.0365
    1BTD     S2 7374   6.802   3.010   7.112  0.0137  0.1169 -0.0409
    1BTD     N1 7375   6.855   2.839   7.113 -0.0880  0.0862  0.2943
    1BTD     N2 7376   6.951   3.073   7.190  0.2009  0.2289 -0.4805
    1BTD     N3 7377   7.352   2.890   7.352  0.3982  0.4017 -0.7713
    1BTD     N4 7378   7.234   2.601   7.257  0.0421  0.2261  0.1835
    1BTD     C5 7379   7.054   2.718   7.189 -0.0157  0.1613  0.2249
    1BTD     C6 7380   6.975   2.837   7.169  0.0172  0.1574  0.0727
    1BTD     C7 7381   7.029   2.968   7.212  0.1789  0.2372 -0.3611
    1BTD     C8 7382   7.159   2.974   7.273  0.2996  0.3170 -0.6210
    1BTD    C15 7383   7.232   2.855   7.291  0.2619  0.3178 -0.4584
    1BTD    C16 7384   7.181   2.729   7.250  0.1060  0.2409 -0.0407
    1BTD    C43 7385   7.381   2.563   7.240  0.7781 -0.6161 -0.1029
    1BTD    C44 7386   7.440   2.423   7.247 -0.3927 -0.0603  0.3602
    1BTD    C45 7387   7.458   2.350   7.110 -0.1684 -0.2956  0.3712
    1BTD    C46 7388   7.557   2.402   7.016 -0.0990  0.1510  0.4142
    1BTD    C47 7389   7.555   2.427   7.351 -0.5324  0.0437 -0.0542
    1BTD    C48 7390   7.635   2.302   7.401  0.2194 -0.9840  0.3675
    1BTD    C49 7391   7.544   2.216   7.480 -0.0825  0.3579  0.5121
    1BTD    C50 7392   7.597   2.079   7.502 -0.7481  0.3303 -0.2513
    1BTD    C75 7393   7.443   2.807   7.426 -0.1943 -0.6225 -0.1832
    1BTD    C76 7394   7.428   2.792   7.577  0.0068  0.2783 -0.2475
    1BTD    C77 7395   7.299   2.727   7.615  0.1178  0.7396  0.5672
    1BTD    C78 7396   7.267   2.673   7.748 -0.2388  0.6099 -0.2558
    1BTD    C79 7397   7.558   2.724   7.631  0.1674 -0.0234  0.0334
    1BTD    C80 7398   7.682   2.811   7.643 -0.2096 -0.0211  0.4055
    1BTD    C81 7399   7.822   2.749   7.679  0.4031 -0.1077 -0.7847
    1BTD    C82 7400   7.936   2.846   7.698  0.4023  0.3065  0.0618
    2TTP     S1 7401   6.872   2.474   7.163 -0.0539 -0.0984  0.0561
    2TTP     S5 7402   7.177   2.235   7.348  0.2108  0.1795 -0.0190
    2TTP     C1 7403   7.028   2.133   7.328  0.3715 -0.0239 -0.1890
    2TTP     C2 7404   6.925   2.201   7.270  0.2992 -0.1217 -0.1758
    2TTP     C3 7405   6.960   2.336   7.239  0.1144 -0.0396 -0.0309
    2TTP     C4 7406   7.021   2.576   7.184 -0.2147  0.1048  0.2261
    2TTP    C17 7407   7.124   2.508   7.242 -0.1423  0.2026  0.2131
    2TTP    C18 7408   7.089   2.373   7.273  0.0427  0.1205  0.0682
    2TTP    C32 7409   6.778   2.168   7.242 -0.3163 -0.5809 -0.3765
    2TTP    C33 7410   6.724   2.184   7.101 -0.0561  0.1188 -0.2464
    2TTP    C34 7411   6.575   2.153   7.090 -0.4751 -0.5620 -0.0357
    2TTP    C35 7412   6.524   2.212   6.959 -0.6696  0.4370 -0.3365
    2TTP    C36 7413   6.386   2.183   6.915  0.1293 -0.7650 -0.0749
    2TTP    C37 7414   6.274   2.198   7.012  0.0612  0.1101 -0.5385
    2TTP    C38 7415   6.151   2.200   6.934  0.4728 -0.0883  0.2158
    2TTP    C39 7416   6.022   2.208   7.014  0.3112 -0.4869  0.4617
    2TTP    C40 7417   6.001   2.315   7.127 -0.3529 -0.1132  0.1771
    2TTP    C41 7418   5.985   2.455   7.078  0.0189 -0.2200  0.2135
    2TTP    C42 7419   5.932   2.566   7.177  0.6334  0.1860 -0.6925
    3TTP     S1 7420   7.254   3.265   7.317  0.0129 -0.0445  0.0829
    3TTP     S5 7421   7.631   3.114   7.456  0.2100  0.2406 -0.1402
    3TTP     C1 7422   7.642   3.296   7.444  0.0409  0.2559 -0.0721
    3TTP     C2 7423   7.526   3.353   7.400 -0.0302  0.1687  0.0007
    3TTP     C3 7424   7.425   3.256   7.375  0.0467  0.0868  0.0055
    3TTP     C4 7425   7.243   3.084   7.329  0.1822 -0.0598  0.0148
    3TTP    C17 7426   7.359   3.027   7.373  0.2531  0.0273 -0.0581
    3TTP    C18 7427   7.460   3.124   7.399  0.1763  0.1094 -0.0627
    3TTP    C32 7428   7.491   3.503   7.404  0.2738  0.0147 -0.6103
    3TTP    C33 7429   7.459   3.574   7.271 -0.5383 -0.5052  0.5661
    3TTP    C34 7430   7.452   3.733   7.277 -0.8067  0.0292  0.6553
    3TTP    C35 7431   7.513   3.793   7.148 -0.0761  0.1959 -0.3494
    3TTP    C36 7432   7.517   3.943   7.132 -0.1485  0.0119  0.0744
    3TTP    C37 7433   7.588   3.985   7.002 -0.7050 -0.8065 -0.7383
    3TTP    C38 7434   7.607   4.137   6.979  0.1274 -0.1179  0.1674
    3TTP    C39 7435   7.478   4.203   6.925 -0.3985 -0.4156  0.3332
    3TTP    C40 7436   7.476   4.359   6.901 -0.1048 -0.0703  0.4728
    3TTP    C41 7437   7.581   4.411   6.798 -0.2306  0.0332 -0.6607
    3TTP    C42 7438   7.609   4.565   6.788  0.5423 -0.0667 -0.3186
    4BIM     F1 7439   7.404   1.651   7.875  0.2517 -0.0316 -0.3988
    4BIM     F2 7440   7.222   1.457   7.817 -0.2798  0.2675  0.2385
    4BIM     O1 7441   7.238   2.049   7.549  0.3284 -0.0767 -0.4927
    4BIM     N5 7442   6.842   1.462   7.500 -0.9890  0.6656  1.0880
    4BIM     N6 7443   6.748   1.813   7.257 -0.8221  0.5701  0.8861
    4BIM    C19 7444   7.005   2.006   7.377 -0.1522  0.1933  0.0829
    4BIM    C20 7445   7.054   1.913   7.461 -0.1507  0.1929  0.0817
    4BIM    C21 7446   7.174   1.943   7.546  0.1044  0.0496 -0.2239
    4BIM    C22 7447   7.200   1.821   7.626  0.0353  0.0890 -0.1404
    4BIM    C23 7448   7.302   1.801   7.719  0.2059 -0.0067 -0.3448
    4BIM    C24 7449   7.306   1.678   7.782  0.0945  0.0566 -0.2105
    4BIM    C25 7450   7.213   1.578   7.752 -0.1795  0.2107  0.1179
    4BIM    C26 7451   7.111   1.597   7.659 -0.3508  0.3068  0.3229
    4BIM    C27 7452   7.105   1.722   7.594 -0.2416  0.2449  0.1916
    4BIM    C28 7453   7.011   1.774   7.492 -0.3667  0.3149  0.3413
    4BIM    C29 7454   6.905   1.707   7.436 -0.6323  0.4641  0.6593
    4BIM    C30 7455   6.870   1.573   7.472 -0.8276  0.5744  0.8940
    4BIM    C31 7456   6.819   1.765   7.338 -0.7352  0.5216  0.7823
    5BIM     F1 7457   8.287   3.192   7.951  0.2043 -0.0411 -0.2973
    5BIM     F2 7458   8.364   3.447   7.896 -0.1953  0.2192  0.3312
    5BIM     O1 7459   7.842   3.150   7.646  0.4240 -0.0834 -0.6137
    5BIM     N5 7460   8.156   3.784   7.599 -0.6127  0.5632  1.0095
    5BIM     N6 7461   7.793   3.700   7.372 -0.3606  0.4777  0.6356
    5BIM    C19 7462   7.757   3.379   7.485  0.1206  0.1503 -0.1256
    5BIM    C20 7463   7.866   3.380   7.564  0.0807  0.1507 -0.0705
    5BIM    C21 7464   7.903   3.258   7.644  0.2446  0.0266 -0.3338
    5BIM    C22 7465   8.026   3.293   7.718  0.1509  0.0617 -0.1932
    5BIM    C23 7466   8.098   3.212   7.805  0.2429 -0.0208 -0.3450
    5BIM    C24 7467   8.211   3.266   7.864  0.1229  0.0348 -0.1625
    5BIM    C25 7468   8.250   3.398   7.835 -0.0831  0.1690  0.1612
    5BIM    C26 7469   8.179   3.479   7.748 -0.1760  0.2519  0.3140
    5BIM    C27 7470   8.064   3.426   7.688 -0.0570  0.1974  0.1333
    5BIM    C28 7471   7.967   3.484   7.592 -0.1079  0.2574  0.2216
    5BIM    C29 7472   7.971   3.612   7.540 -0.2944  0.3870  0.5177
    5BIM    C30 7473   8.073   3.706   7.573 -0.4690  0.4835  0.7869
    5BIM    C31 7474   7.873   3.660   7.448 -0.3297  0.4361  0.5808
    1BTD     S2 7475   1.467   6.098   1.208 -0.0551  0.1542  0.1030
    1BTD     N1 7476   1.635   6.064   1.262 -0.0066  0.0222 -0.1309
    1BTD     N2 7477   1.512   6.242   1.111 -0.1009  0.2151  0.1717
    1BTD     N3 7478   1.906   6.475   1.008 -0.1066  0.1009 -0.1107
    1BTD     N4 7479   2.059   6.255   1.194  0.0095 -0.1366 -0.4835
    1BTD     C5 7480   1.855   6.166   1.224  0.0004 -0.0578 -0.3105
    1BTD     C6 7481   1.712   6.157   1.207 -0.0260  0.0299 -0.1450
    1BTD     C7 7482   1.643   6.257   1.122 -0.0788  0.1378  0.0243
    1BTD     C8 7483   1.720   6.361   1.059 -0.1025  0.1526  0.0197
    1BTD    C15 7484   1.859   6.366   1.079 -0.0751  0.0642 -0.1454
    1BTD    C16 7485   1.926   6.270   1.161 -0.0243 -0.0398 -0.3086
    1BTD    C43 7486   2.152   6.365   1.201 -0.9682 -0.0536 -0.2994
    1BTD    C44 7487   2.312   6.353   1.184  0.0119 -0.7038  0.3193
    1BTD    C45 7488   2.410   6.475   1.204  0.5886  0.3375 -0.4662
    1BTD    C46 7489   2.415   6.530   1.347  0.4394  0.6012 -0.7368
    1BTD    C47 7490   2.328   6.290   1.040 -0.2357 -0.4117 -0.2586
    1BTD    C48 7491   2.468   6.272   0.969  0.1913 -0.0780 -0.3451
    1BTD    C49 7492   2.466   6.183   0.851  0.0634  0.6226  0.4964
    1BTD    C50 7493   2.563   6.235   0.740 -0.1599 -0.7217  0.3549
    1BTD    C75 7494   2.038   6.474   0.937 -0.4776 -0.8138 -0.1133
    1BTD    C76 7495   2.129   6.596   0.907  0.4576 -0.0091  0.1432
    1BTD    C77 7496   2.248   6.554   0.824  0.2992 -0.1778 -0.2715
    1BTD    C78 7497   2.215   6.495   0.687  0.6622 -0.3920  0.2480
    1BTD    C79 7498   2.156   6.674   1.037 -0.2113  0.1416  0.2710
    1BTD    C80 7499   2.246   6.796   1.024 -0.8142 -0.0058  0.4527
    1BTD    C81 7500   2.193   6.904   0.928 -0.0751 -0.1079 -0.1888
    1BTD    C82 7501   2.291   7.021   0.916 -0.3082  0.3541  1.2048
    2TTP     S1 7502   1.944   5.962   1.427  0.1030 -0.2660  0.0452
    2TTP     S5 7503   2.332   6.146   1.434 -0.2049  0.3929  0.0048
    2TTP     C1 7504   2.327   6.017   1.562  0.0522  0.3306 -0.0461
    2TTP     C2 7505   2.206   5.952   1.568  0.1625  0.1234 -0.0366
    2TTP     C3 7506   2.114   6.003   1.471  0.0478  0.0064  0.0112
    2TTP     C4 7507   1.949   6.091   1.299 -0.1542 -0.2036  0.0961
    2TTP    C17 7508   2.069   6.156   1.294 -0.2645  0.0036  0.0866
    2TTP    C18 7509   2.162   6.105   1.391 -0.1497  0.1204  0.0388
    2TTP    C32 7510   2.158   5.843   1.666 -0.7306 -0.2093 -0.3792
    2TTP    C33 7511   2.128   5.703   1.609 -0.1429 -0.1597  0.1271
    2TTP    C34 7512   2.088   5.612   1.720  0.5702  0.1016  0.0013
    2TTP    C35 7513   2.072   5.467   1.674 -0.6145 -0.0281 -0.2637
    2TTP    C36 7514   2.022   5.376   1.778  0.1456 -0.5826 -0.5710
    2TTP    C37 7515   2.028   5.225   1.748 -0.2433 -0.0156 -0.2591
    2TTP    C38 7516   2.047   5.128   1.860  0.3733 -0.2828 -0.5668
    2TTP    C39 7517   2.187   5.146   1.916 -0.0145 -0.2233 -0.1959
    2TTP    C40 7518   2.217   5.068   2.041 -0.0785 -0.0738  0.1003
    2TTP    C41 7519   2.368   5.077   2.045 -0.3435  0.1237 -0.3735
    2TTP    C42 7520   2.437   4.998   2.156 -0.3913 -0.0225 -0.0890
    3TTP     S1 7521   1.535   6.548   0.921  0.1373 -0.0607  0.2418
    3TTP     S5 7522   1.868   6.813   0.857  0.2209 -0.2040  0.0813
    3TTP     C1 7523   1.715   6.899   0.808  0.2493 -0.1899  0.0168
    3TTP     C2 7524   1.604   6.823   0.825  0.2252 -0.1450  0.0626
    3TTP     C3 7525   1.635   6.693   0.877  0.1834 -0.1198  0.1502
    3TTP     C4 7526   1.688   6.463   0.969  0.1089 -0.0746  0.3062
    3TTP    C17 7527   1.800   6.539   0.952  0.1331 -0.1198  0.2604
    3TTP    C18 7528   1.769   6.669   0.900  0.1749 -0.1448  0.1728
    3TTP    C32 7529   1.458   6.863   0.810 -0.6491  0.0802 -0.0010
    3TTP    C33 7530   1.390   6.780   0.700 -0.6856  0.2853  0.7436
    3TTP    C34 7531   1.244   6.790   0.672 -0.5931 -0.1423 -0.4684
    3TTP    C35 7532   1.188   6.929   0.663  0.9607 -0.1655  0.3247
    3TTP    C36 7533   1.044   6.926   0.590 -0.2781 -0.4847  0.0566
    3TTP    C37 7534   0.955   7.061   0.586 -0.5992  0.1392  0.5368
    3TTP    C38 7535   0.942   7.140   0.717  0.1920 -0.0476 -0.0112
    3TTP    C39 7536   0.866   7.273   0.696 -0.5135 -0.3602 -0.0855
    3TTP    C40 7537   0.895   7.380   0.801  0.0721  0.9905  0.2749
    3TTP    C41 7538   0.812   7.504   0.782 -0.7626 -0.4748 -0.8145
    3TTP    C42 7539   0.838   7.601   0.899 -0.6627 -0.4498 -0.7905
    4BIM     F1 7540   3.076   6.309   1.720  0.0126 -0.0261 -0.2845
    4BIM     F2 7541   3.148   6.062   1.812 -0.1068  0.0992  0.1504
    4BIM     O1 7542   2.557   6.224   1.594  0.1026 -0.1252 -0.5909
    4BIM     N5 7543   2.880   5.648   1.853 -0.2144  0.2086  0.5572
    4BIM     N6 7544   2.460   5.632   1.736 -0.1200  0.1060  0.2302
    4BIM    C19 7545   2.440   5.959   1.637  0.0205 -0.0408 -0.2843
    4BIM    C20 7546   2.568   5.990   1.665  0.0025 -0.0206 -0.2241
    4BIM    C21 7547   2.621   6.128   1.640  0.0474 -0.0669 -0.3914
    4BIM    C22 7548   2.762   6.127   1.682  0.0130 -0.0297 -0.2715
    4BIM    C23 7549   2.853   6.233   1.677  0.0351 -0.0517 -0.3569
    4BIM    C24 7550   2.982   6.208   1.722 -0.0063 -0.0072 -0.2111
    4BIM    C25 7551   3.018   6.082   1.769 -0.0677  0.0571  0.0128
    4BIM    C26 7552   2.929   5.976   1.773 -0.0901  0.0796  0.0992
    4BIM    C27 7553   2.798   5.999   1.729 -0.0489  0.0354 -0.0458
    4BIM    C28 7554   2.680   5.909   1.720 -0.0578  0.0435 -0.0078
    4BIM    C29 7555   2.675   5.777   1.757 -0.1117  0.0995  0.1900
    4BIM    C30 7556   2.788   5.706   1.810 -0.1680  0.1593  0.3912
    4BIM    C31 7557   2.557   5.698   1.745 -0.1159  0.1028  0.2110
    5BIM     F1 7558   2.272   7.412   0.482  0.2936  0.2097  0.5972
    5BIM     F2 7559   2.090   7.613   0.504  0.0050  0.0622 -0.3588
    5BIM     O1 7560   1.984   6.994   0.671  0.1838  0.2875  0.6025
    5BIM     N5 7561   1.624   7.605   0.669 -0.4881 -0.0943 -1.7294
    5BIM     N6 7562   1.436   7.238   0.812 -0.5157 -0.0038 -1.5325
    5BIM    C19 7563   1.708   7.038   0.758 -0.1309  0.1742 -0.3089
    5BIM    C20 7564   1.788   7.135   0.710 -0.0920  0.1605 -0.2729
    5BIM    C21 7565   1.928   7.105   0.667  0.0723  0.2216  0.2086
    5BIM    C22 7566   1.986   7.232   0.620  0.0741  0.1876  0.1186
    5BIM    C23 7567   2.115   7.254   0.570  0.2005  0.2224  0.4551
    5BIM    C24 7568   2.147   7.383   0.532  0.1738  0.1788  0.2841
    5BIM    C25 7569   2.053   7.487   0.543  0.0250  0.1029 -0.2085
    5BIM    C26 7570   1.925   7.466   0.593 -0.1016  0.0679 -0.5462
    5BIM    C27 7571   1.890   7.336   0.632 -0.0769  0.1111 -0.3801
    5BIM    C28 7572   1.765   7.280   0.688 -0.1848  0.0914 -0.6402
    5BIM    C29 7573   1.649   7.350   0.714 -0.3410  0.0223 -1.1283
    5BIM    C30 7574   1.636   7.490   0.689 -0.4213 -0.0416 -1.4571
    5BIM    C31 7575   1.532   7.288   0.768 -0.4362  0.0083 -1.3479
    1BTD     S2 7576   3.671   1.185   8.651  0.3953  0.1973  0.1937
    1BTD     N1 7577   3.499   1.135   8.636  0.4359  0.0839  0.1047
    1BTD     N2 7578   3.691   1.119   8.817  0.2937  0.3943  0.2851
    1BTD     N3 7579   3.421   0.894   9.128  0.1594  0.5908  0.3114
    1BTD     N4 7580   3.185   0.914   8.905  0.3347  0.2083  0.0889
    1BTD     C5 7581   3.338   1.019   8.779  0.3810  0.1535  0.0994
    1BTD     C6 7582   3.467   1.075   8.750  0.3747  0.1931  0.1459
    1BTD     C7 7583   3.575   1.066   8.851  0.2950  0.3668  0.2468
    1BTD     C8 7584   3.547   1.002   8.977  0.2257  0.4923  0.2961
    1BTD    C15 7585   3.419   0.949   9.001  0.2348  0.4478  0.2478
    1BTD    C16 7586   3.316   0.957   8.904  0.3114  0.2804  0.1502
    1BTD    C43 7587   3.136   0.798   8.984 -0.0669  0.3190 -0.0208
    1BTD    C44 7588   2.992   0.790   9.038 -0.0797  0.6207  0.0962
    1BTD    C45 7589   2.968   0.917   9.127 -0.4523 -0.0065  0.5549
    1BTD    C46 7590   2.829   0.943   9.186  0.6356  0.9261  0.1538
    1BTD    C47 7591   2.958   0.653   9.094 -0.1253  0.1396  0.2046
    1BTD    C48 7592   2.962   0.526   9.011  0.2474  0.4009  0.5781
    1BTD    C49 7593   2.925   0.392   9.069 -0.2278  0.6725 -0.0118
    1BTD    C50 7594   3.011   0.353   9.193 -0.6943  0.3804 -0.4474
    1BTD    C75 7595   3.308   0.901   9.227  0.4865  0.1547  0.0825
    1BTD    C76 7596   3.280   0.813   9.351 -0.3957 -0.2218  1.0966
    1BTD    C77 7597   3.289   0.660   9.311  0.4735  0.0456 -0.4669
    1BTD    C78 7598   3.333   0.560   9.414 -0.0342  0.5402 -0.1812
    1BTD    C79 7599   3.163   0.862   9.443  0.3419  0.9794  0.0181
    1BTD    C80 7600   3.130   0.774   9.566  0.3531  0.3591  0.1083
    1BTD    C81 7601   3.241   0.774   9.680 -0.1571  0.0907 -0.5006
    1BTD    C82 7602   3.211   0.686   9.809 -0.2236 -0.2488  0.2454
    2TTP     S1 7603   3.149   1.049   8.541  0.1175 -0.1734 -0.0933
    2TTP     S5 7604   2.827   0.899   8.782  0.0972 -0.1227 -0.0889
    2TTP     C1 7605   2.762   0.938   8.617  0.1125 -0.1633 -0.1044
    2TTP     C2 7606   2.858   0.986   8.533  0.1197 -0.1814 -0.1068
    2TTP     C3 7607   2.986   0.995   8.596  0.1134 -0.1637 -0.0963
    2TTP     C4 7608   3.214   1.010   8.706  0.1023 -0.1327 -0.0777
    2TTP    C17 7609   3.118   0.962   8.791  0.0951 -0.1147 -0.0754
    2TTP    C18 7610   2.990   0.953   8.728  0.1014 -0.1323 -0.0858
    2TTP    C32 7611   2.849   1.033   8.384 -0.2475  0.4547  0.4054
    2TTP    C33 7612   2.872   1.180   8.365  0.7251  0.2562 -0.0594
    2TTP    C34 7613   2.840   1.252   8.229  0.1032  0.4165  0.8909
    2TTP    C35 7614   2.922   1.204   8.112  0.4157  0.3864  0.3160
    2TTP    C36 7615   2.891   1.268   7.971 -0.1171  0.1743 -0.4370
    2TTP    C37 7616   2.743   1.310   7.936 -0.2189  0.5168  0.8554
    2TTP    C38 7617   2.643   1.192   7.940  0.6586 -0.6779  0.5606
    2TTP    C39 7618   2.498   1.241   7.917 -0.5121 -0.0931  0.3714
    2TTP    C40 7619   2.415   1.117   7.949  0.5023  0.7330  0.4333
    2TTP    C41 7620   2.271   1.137   7.909  0.3685  0.4473 -0.2522
    2TTP    C42 7621   2.176   1.025   7.952  0.1315 -0.0391 -0.1841
    3TTP     S1 7622   3.807   0.973   9.134  0.0124  0.3579  0.0362
    3TTP     S5 7623   3.594   0.743   9.429  0.0592 -0.1689 -0.3374
    3TTP     C1 7624   3.771   0.743   9.472  0.0228  0.0307 -0.1846
    3TTP     C2 7625   3.847   0.814   9.383  0.0063  0.2051 -0.0598
    3TTP     C3 7626   3.769   0.871   9.278  0.0218  0.1874 -0.0811
    3TTP     C4 7627   3.630   0.973   9.091  0.0488  0.1583 -0.1171
    3TTP    C17 7628   3.554   0.902   9.179  0.0655 -0.0161 -0.2412
    3TTP    C18 7629   3.633   0.845   9.284  0.0500  0.0015 -0.2203
    3TTP    C32 7630   4.001   0.819   9.381  0.3577 -0.2249 -1.0361
    3TTP    C33 7631   4.077   0.730   9.287 -0.0777  0.6385 -0.5916
    3TTP    C34 7632   4.227   0.752   9.305 -0.2181 -0.2554 -0.1987
    3TTP    C35 7633   4.315   0.694   9.201 -0.1843  0.1328  0.2223
    3TTP    C36 7634   4.464   0.680   9.243 -0.0493 -0.2519  0.0924
    3TTP    C37 7635   4.562   0.684   9.121 -0.5366  0.3040 -0.2227
    3TTP    C38 7636   4.714   0.673   9.164  0.4570  0.2033  0.1197
    3TTP    C39 7637   4.751   0.540   9.230  0.1671 -0.7895 -0.0048
    3TTP    C40 7638   4.902   0.519   9.230  0.3156 -0.1584 -0.0448
    3TTP    C41 7639   4.945   0.376   9.211  0.2313 -0.2791  0.1393
    3TTP    C42 7640   5.076   0.347   9.286 -1.0308  0.2939  1.2324
    4BIM     F1 7641   2.102   0.534   8.895  0.0041  0.0032  0.0942
    4BIM     F2 7642   1.961   0.626   8.681  0.0936 -0.2624 -0.0808
    4BIM     O1 7643   2.588   0.754   8.800 -0.0352  0.1270  0.1810
    4BIM     N5 7644   2.105   0.915   8.306  0.1944 -0.5559 -0.2706
    4BIM     N6 7645   2.513   1.069   8.275  0.1456 -0.4057 -0.1674
    4BIM    C19 7646   2.626   0.920   8.563  0.0364 -0.0828  0.0448
    4BIM    C20 7647   2.509   0.861   8.595  0.0428 -0.1035  0.0296
    4BIM    C21 7648   2.497   0.777   8.719  0.0043  0.0094  0.1032
    4BIM    C22 7649   2.358   0.729   8.723  0.0228 -0.0474  0.0644
    4BIM    C23 7650   2.300   0.647   8.820 -0.0001  0.0188  0.1066
    4BIM    C24 7651   2.166   0.614   8.803  0.0246 -0.0560  0.0562
    4BIM    C25 7652   2.094   0.662   8.692  0.0707 -0.1928 -0.0338
    4BIM    C26 7653   2.152   0.743   8.596  0.0938 -0.2596 -0.0768
    4BIM    C27 7654   2.287   0.778   8.611  0.0693 -0.1854 -0.0267
    4BIM    C28 7655   2.377   0.861   8.528  0.0834 -0.2254 -0.0513
    4BIM    C29 7656   2.343   0.925   8.411  0.1260 -0.3512 -0.1342
    4BIM    C30 7657   2.213   0.920   8.354  0.1635 -0.4633 -0.2089
    4BIM    C31 7658   2.437   1.004   8.337  0.1366 -0.3805 -0.1519
    5BIM     F1 7659   3.478   0.483  10.195  0.0488  0.0700 -0.0300
    5BIM     F2 7660   3.733   0.421  10.268  0.0318  0.0015 -0.0300
    5BIM     O1 7661   3.560   0.686   9.700  0.1254  0.2280  0.0471
    5BIM     N5 7662   4.157   0.475  10.019  0.0621  0.0157  0.0250
    5BIM     N6 7663   4.170   0.646   9.618  0.1254  0.1530  0.0852
    5BIM    C19 7664   3.832   0.698   9.593  0.1365  0.2187  0.0745
    5BIM    C20 7665   3.802   0.649   9.715  0.1178  0.1817  0.0551
    5BIM    C21 7666   3.659   0.646   9.763  0.1133  0.1893  0.0419
    5BIM    C22 7667   3.662   0.588   9.898  0.0919  0.1419  0.0219
    5BIM    C23 7668   3.553   0.565   9.983  0.0808  0.1309  0.0048
    5BIM    C24 7669   3.580   0.509  10.107  0.0605  0.0834 -0.0125
    5BIM    C25 7670   3.712   0.477  10.144  0.0519  0.0481 -0.0124
    5BIM    C26 7671   3.820   0.499  10.060  0.0628  0.0588  0.0046
    5BIM    C27 7672   3.795   0.556   9.934  0.0833  0.1068  0.0222
    5BIM    C28 7673   3.886   0.593   9.823  0.0989  0.1298  0.0426
    5BIM    C29 7674   4.023   0.577   9.821  0.0964  0.1074  0.0487
    5BIM    C30 7675   4.096   0.521   9.930  0.0775  0.0571  0.0357
    5BIM    C31 7676   4.103   0.615   9.709  0.1124  0.1326  0.0688
    1BTD     S2 7677   4.908   6.184   6.518  0.2693 -0.2139  0.0633
    1BTD     N1 7678   5.045   6.299   6.527  0.2766 -0.2004 -0.2216
    1BTD     N2 7679   5.008   6.040   6.560  0.2817 -0.1357  0.3073
    1BTD     N3 7680   5.459   5.956   6.660  0.3198  0.0483  0.2904
    1BTD     N4 7681   5.505   6.276   6.619  0.3136 -0.0317 -0.3617
    1BTD     C5 7682   5.285   6.283   6.576  0.2959 -0.1113 -0.2867
    1BTD     C6 7683   5.153   6.229   6.559  0.2872 -0.1415 -0.1252
    1BTD     C7 7684   5.132   6.083   6.577  0.2902 -0.1051  0.1709
    1BTD     C8 7685   5.244   6.000   6.612  0.3016 -0.0408  0.2905
    1BTD    C15 7686   5.371   6.058   6.627  0.3098 -0.0133  0.1244
    1BTD    C16 7687   5.391   6.198   6.610  0.3071 -0.0481 -0.1611
    1BTD    C43 7688   5.622   6.255   6.714  0.5251  0.6446 -0.2036
    1BTD    C44 7689   5.618   6.325   6.853 -0.6665  0.7738 -0.1473
    1BTD    C45 7690   5.477   6.342   6.919 -0.0104  1.0724  0.5665
    1BTD    C46 7691   5.410   6.215   6.978 -0.2007 -0.5254  0.3043
    1BTD    C47 7692   5.736   6.281   6.947  0.1243 -0.2094 -0.1137
    1BTD    C48 7693   5.887   6.290   6.900  0.8249 -0.2093  0.0617
    1BTD    C49 7694   5.931   6.437   6.896 -0.0485 -0.0346 -0.2047
    1BTD    C50 7695   6.071   6.450   6.855  0.0882 -0.5598  0.9680
    1BTD    C75 7696   5.605   5.951   6.623  0.0420  0.8590 -0.3263
    1BTD    C76 7697   5.645   5.915   6.479 -0.3456 -0.2574  0.0311
    1BTD    C77 7698   5.792   5.877   6.456 -0.0525  0.0697  0.4052
    1BTD    C78 7699   5.839   5.756   6.540  0.0496 -0.2915 -0.1622
    1BTD    C79 7700   5.591   6.015   6.377  0.0961  0.0938 -0.0860
    1BTD    C80 7701   5.562   5.967   6.231 -0.6351 -0.3279 -0.3539
    1BTD    C81 7702   5.548   6.090   6.132 -0.1218  0.2106 -0.5651
    1BTD    C82 7703   5.668   6.183   6.120 -0.0545 -0.2321  0.2505
    2TTP     S1 7704   5.290   6.591   6.527  0.0036  0.0259 -0.0621
    2TTP     S5 7705   5.718   6.576   6.562  0.0138  0.4063 -0.0159
    2TTP     C1 7706   5.669   6.745   6.516 -0.1340  0.3716  0.0121
    2TTP     C2 7707   5.534   6.760   6.503 -0.1458  0.2525 -0.0004
    2TTP     C3 7708   5.464   6.638   6.528 -0.0385  0.1837 -0.0327
    2TTP     C4 7709   5.338   6.422   6.573  0.1514  0.0606 -0.0900
    2TTP    C17 7710   5.473   6.407   6.587  0.1632  0.1797 -0.0775
    2TTP    C18 7711   5.543   6.529   6.561  0.0561  0.2484 -0.0452
    2TTP    C32 7712   5.454   6.884   6.465 -0.5631 -0.4643  0.0688
    2TTP    C33 7713   5.382   6.941   6.579  0.0700 -0.2561  0.4586
    2TTP    C34 7714   5.283   7.057   6.565 -0.1013 -0.5639  0.5416
    2TTP    C35 7715   5.178   7.026   6.457 -0.0515 -0.2566  0.1040
    2TTP    C36 7716   5.076   7.127   6.419  0.3744 -0.0918  0.1380
    2TTP    C37 7717   4.977   7.071   6.315 -0.6150  0.3073  0.2426
    2TTP    C38 7718   4.929   7.167   6.210 -0.0375 -0.5972 -0.3747
    2TTP    C39 7719   5.032   7.235   6.122 -0.2763 -0.5114  0.1318
    2TTP    C40 7720   4.960   7.346   6.047 -0.1292 -0.1771 -0.1777
    2TTP    C41 7721   5.039   7.430   5.944  1.0725  0.5865 -0.5620
    2TTP    C42 7722   4.966   7.546   5.883 -0.2401 -0.2477  0.2608
    3TTP     S1 7723   5.150   5.715   6.649  0.1716  0.2456 -0.0265
    3TTP     S5 7724   5.557   5.602   6.726  0.1661  0.2592  0.0219
    3TTP     C1 7725   5.453   5.454   6.738  0.2015  0.2157 -0.2158
    3TTP     C2 7726   5.321   5.480   6.714  0.2052  0.2087 -0.2449
    3TTP     C3 7727   5.298   5.618   6.687  0.1804  0.2378 -0.0802
    3TTP     C4 7728   5.254   5.863   6.637  0.1361  0.2892  0.2111
    3TTP    C17 7729   5.386   5.837   6.661  0.1324  0.2961  0.2403
    3TTP    C18 7730   5.410   5.699   6.688  0.1574  0.2670  0.0757
    3TTP    C32 7731   5.201   5.389   6.733 -0.4252  0.1710  0.0829
    3TTP    C33 7732   5.130   5.360   6.597  0.4340  0.0839 -0.4849
    3TTP    C34 7733   4.985   5.338   6.610  0.2008  0.1084  0.1581
    3TTP    C35 7734   4.909   5.356   6.477 -0.8214 -0.0025  0.6251
    3TTP    C36 7735   4.768   5.303   6.477  0.1179  0.6361  0.6844
    3TTP    C37 7736   4.753   5.155   6.512  0.2414  0.4107 -0.2228
    3TTP    C38 7737   4.620   5.102   6.473 -0.5008  0.5522 -0.5392
    3TTP    C39 7738   4.613   4.949   6.498  1.0796  0.2585  0.0167
    3TTP    C40 7739   4.592   4.914   6.643  0.5609  0.0933  0.0554
    3TTP    C41 7740   4.459   4.957   6.703 -0.4955  0.9139 -0.0153
    3TTP    C42 7741   4.450   4.916   6.845  0.5349 -0.2444 -0.0841
    4BIM     F1 7742   6.438   6.931   6.741  0.0373 -0.1434 -0.3058
    4BIM     F2 7743   6.430   7.139   6.566 -0.2011  0.2016  0.1116
    4BIM     O1 7744   5.940   6.728   6.681  0.1535 -0.3853 -0.4565
    4BIM     N5 7745   6.063   7.294   6.272 -0.4613  0.5250  0.6037
    4BIM     N6 7746   5.675   7.093   6.261 -0.3227  0.2666  0.4017
    4BIM    C19 7747   5.755   6.855   6.493 -0.0333 -0.1417 -0.1115
    4BIM    C20 7748   5.881   6.898   6.515 -0.0529 -0.0942 -0.0900
    4BIM    C21 7749   5.970   6.827   6.613  0.0476 -0.2270 -0.2747
    4BIM    C22 7750   6.098   6.899   6.613 -0.0048 -0.1324 -0.1968
    4BIM    C23 7751   6.212   6.871   6.688  0.0536 -0.2004 -0.3107
    4BIM    C24 7752   6.322   6.953   6.670 -0.0146 -0.0850 -0.2028
    4BIM    C25 7753   6.318   7.060   6.580 -0.1375  0.0926  0.0122
    4BIM    C26 7754   6.205   7.089   6.504 -0.1965  0.1615  0.1266
    4BIM    C27 7755   6.092   7.007   6.521 -0.1289  0.0466  0.0201
    4BIM    C28 7756   5.958   7.010   6.457 -0.1633  0.0770  0.0945
    4BIM    C29 7757   5.915   7.101   6.363 -0.2761  0.2341  0.2956
    4BIM    C30 7758   5.997   7.207   6.313 -0.3774  0.3934  0.4644
    4BIM    C31 7759   5.783   7.096   6.307 -0.3009  0.2509  0.3527
    5BIM     F1 7760   6.173   5.066   6.656 -0.1386 -0.1218  0.1532
    5BIM     F2 7761   6.079   4.876   6.826 -0.0992  0.2862  0.6359
    5BIM     O1 7762   5.739   5.386   6.610 -0.1364 -0.2081 -0.4857
    5BIM     N5 7763   5.634   4.830   7.038 -0.0407  0.8109  0.8744
    5BIM     N6 7764   5.313   5.119   6.968 -0.0467  0.6613  0.2779
    5BIM    C19 7765   5.494   5.318   6.756 -0.0979  0.1509 -0.2516
    5BIM    C20 7766   5.607   5.245   6.761 -0.0999  0.1568 -0.1097
    5BIM    C21 7767   5.729   5.286   6.683 -0.1203 -0.0343 -0.2443
    5BIM    C22 7768   5.833   5.186   6.711 -0.1172  0.0257 -0.0336
    5BIM    C23 7769   5.963   5.182   6.661 -0.1316 -0.0991 -0.0620
    5BIM    C24 7770   6.043   5.076   6.702 -0.1251 -0.0073  0.1668
    5BIM    C25 7771   5.995   4.978   6.789 -0.1047  0.2030  0.4151
    5BIM    C26 7772   5.865   4.982   6.840 -0.0901  0.3284  0.4450
    5BIM    C27 7773   5.782   5.088   6.800 -0.0964  0.2383  0.2156
    5BIM    C28 7774   5.642   5.120   6.834 -0.0851  0.3271  0.1788
    5BIM    C29 7775   5.559   5.048   6.917 -0.0648  0.5286  0.3746
    5BIM    C30 7776   5.600   4.929   6.984 -0.0516  0.6832  0.6487
    5BIM    C31 7777   5.424   5.087   6.945 -0.0550  0.6005  0.3204
    1BTD     S2 7778   6.705   6.954   5.220  0.0780  0.2502 -0.4456
    1BTD     N1 7779   6.814   7.094   5.193  0.1347  0.2006 -0.4756
    1BTD     N2 7780   6.837   6.842   5.270 -0.0093  0.3009 -0.0970
    1BTD     N3 7781   7.302   6.868   5.324 -0.0844  0.3144  0.5590
    1BTD     N4 7782   7.274   7.179   5.230  0.0931  0.1907  0.0924
    1BTD     C5 7783   7.055   7.135   5.214  0.1109  0.1968 -0.1734
    1BTD     C6 7784   6.937   7.053   5.222  0.0883  0.2230 -0.2369
    1BTD     C7 7785   6.949   6.912   5.265  0.0075  0.2792 -0.0247
    1BTD     C8 7786   7.079   6.860   5.297 -0.0464  0.3065  0.2397
    1BTD    C15 7787   7.192   6.943   5.288 -0.0215  0.2793  0.2925
    1BTD    C16 7788   7.180   7.079   5.246  0.0561  0.2250  0.0883
    1BTD    C43 7789   7.403   7.188   5.308  0.1040  0.3806 -0.1251
    1BTD    C44 7790   7.410   7.239   5.450  0.2332  0.1224 -0.8738
    1BTD    C45 7791   7.394   7.388   5.482  0.2316 -0.7778  0.5331
    1BTD    C46 7792   7.503   7.469   5.421  0.1835  0.0572  0.3117
    1BTD    C47 7793   7.343   7.139   5.548  0.6519  0.8494  0.2379
    1BTD    C48 7794   7.343   7.167   5.704  0.0413 -0.1195  0.9179
    1BTD    C49 7795   7.474   7.196   5.774  0.1123 -0.0595  0.3165
    1BTD    C50 7796   7.466   7.248   5.911  0.4429  0.0590  0.2925
    1BTD    C75 7797   7.436   6.876   5.261  0.3707  0.6656  0.1145
    1BTD    C76 7798   7.565   6.831   5.323 -0.4655  0.4442 -0.5657
    1BTD    C77 7799   7.681   6.846   5.225 -0.1521  0.2532  0.3056
    1BTD    C78 7800   7.674   6.798   5.077  0.2291 -0.7122 -0.3363
    1BTD    C79 7801   7.595   6.893   5.459 -0.1603 -0.0015 -0.6587
    1BTD    C80 7802   7.719   6.855   5.533  0.6334  0.6107 -0.4925
    1BTD    C81 7803   7.758   6.947   5.644  0.3224 -0.3982 -0.5235
    1BTD    C82 7804   7.880   6.909   5.724 -0.4779  0.2960  0.0945
    2TTP     S1 7805   6.983   7.403   5.092 -0.1150 -0.0797  0.3480
    2TTP     S5 7806   7.396   7.521   5.109 -0.1163 -0.0112 -0.0793
    2TTP     C1 7807   7.299   7.659   5.040 -0.2175 -0.0112  0.0618
    2TTP     C2 7808   7.165   7.630   5.030 -0.2230 -0.0322  0.2019
    2TTP     C3 7809   7.135   7.499   5.078 -0.1476 -0.0494  0.2031
    2TTP     C4 7810   7.079   7.265   5.161 -0.0138 -0.0798  0.2069
    2TTP    C17 7811   7.213   7.294   5.171 -0.0081 -0.0588  0.0667
    2TTP    C18 7812   7.243   7.425   5.123 -0.0836 -0.0417  0.0656
    2TTP    C32 7813   7.055   7.725   4.990  0.0447  0.2706 -0.3464
    2TTP    C33 7814   6.943   7.752   5.092  0.3693  0.0628  0.5379
    2TTP    C34 7815   6.864   7.869   5.037 -0.1174  0.4265 -0.5152
    2TTP    C35 7816   6.737   7.910   5.121  0.3786 -0.2613  0.4198
    2TTP    C36 7817   6.624   7.808   5.135  0.2836  0.1031  0.1928
    2TTP    C37 7818   6.590   7.722   5.007 -0.3563 -0.0757 -0.8887
    2TTP    C38 7819   6.513   7.591   5.027 -0.3216 -0.4588 -0.0728
    2TTP    C39 7820   6.595   7.497   5.115  0.4638 -0.4420 -0.1445
    2TTP    C40 7821   6.543   7.354   5.135  0.4318 -0.4253 -0.1373
    2TTP    C41 7822   6.397   7.333   5.184 -0.4420 -0.1213 -0.3926
    2TTP    C42 7823   6.366   7.188   5.196  0.6277 -0.3113  0.3260
    3TTP     S1 7824   7.050   6.581   5.415  0.1975 -0.0653 -0.2177
    3TTP     S5 7825   7.470   6.579   5.506  0.0604 -0.2514  0.4179
    3TTP     C1 7826   7.395   6.429   5.576 -0.0965 -0.2610  0.2303
    3TTP     C2 7827   7.261   6.421   5.552 -0.0633 -0.2042  0.0228
    3TTP     C3 7828   7.213   6.533   5.478  0.0870 -0.1509  0.0046
    3TTP     C4 7829   7.125   6.732   5.345  0.3544 -0.0557 -0.0302
    3TTP    C17 7830   7.259   6.740   5.369  0.3214 -0.1126  0.1774
    3TTP    C18 7831   7.308   6.628   5.444  0.1709 -0.1659  0.1955
    3TTP    C32 7832   7.171   6.309   5.611  0.3296 -0.7959 -1.0870
    3TTP    C33 7833   7.033   6.351   5.665 -0.1595  0.3008 -0.0554
    3TTP    C34 7834   6.916   6.248   5.641 -0.2945  0.5412 -0.3435
    3TTP    C35 7835   6.877   6.213   5.492 -0.6119 -0.3539  0.4981
    3TTP    C36 7836   6.777   6.113   5.442 -0.1931 -0.5443 -0.0732
    3TTP    C37 7837   6.792   5.979   5.511 -0.4296 -0.4978 -0.1481
    3TTP    C38 7838   6.916   5.909   5.473 -0.8741  0.3098 -0.6946
    3TTP    C39 7839   6.963   5.796   5.573  0.1604 -0.5999  0.5531
    3TTP    C40 7840   7.113   5.760   5.558  0.4963  0.2405  0.7530
    3TTP    C41 7841   7.152   5.661   5.669 -0.2397  0.3602  0.8409
    3TTP    C42 7842   7.301   5.642   5.677 -0.3020 -0.2345  0.5382
    4BIM     F1 7843   8.019   8.036   5.161  0.3181 -0.1836 -0.3710
    4BIM     F2 7844   7.953   8.218   4.970 -0.0571  0.2644  0.1789
    4BIM     O1 7845   7.571   7.731   5.171  0.3887 -0.2856 -0.3034
    4BIM     N5 7846   7.539   8.263   4.702 -0.5454  0.8357  1.0178
    4BIM     N6 7847   7.203   7.987   4.748 -0.4140  0.6653  0.9599
    4BIM    C19 7848   7.350   7.796   4.991  0.0560  0.1058  0.2460
    4BIM    C20 7849   7.465   7.866   4.997  0.0528  0.1141  0.2075
    4BIM    C21 7850   7.574   7.826   5.091  0.2296 -0.0944 -0.0815
    4BIM    C22 7851   7.684   7.922   5.071  0.1764 -0.0265 -0.0482
    4BIM    C23 7852   7.807   7.926   5.137  0.2933 -0.1616 -0.2574
    4BIM    C24 7853   7.895   8.026   5.101  0.2105 -0.0593 -0.1748
    4BIM    C25 7854   7.861   8.120   5.002  0.0177  0.1714  0.1086
    4BIM    C26 7855   7.739   8.117   4.937 -0.0995  0.3076  0.3185
    4BIM    C27 7856   7.648   8.016   4.972 -0.0186  0.2067  0.2390
    4BIM    C28 7857   7.512   7.985   4.922 -0.1024  0.3024  0.4073
    4BIM    C29 7858   7.443   8.054   4.825 -0.2882  0.5231  0.6938
    4BIM    C30 7859   7.496   8.169   4.758 -0.4289  0.6943  0.8709
    4BIM    C31 7860   7.311   8.017   4.783 -0.3564  0.5999  0.8385
    5BIM     F1 7861   8.103   6.355   5.987  0.0148  0.0116 -0.1161
    5BIM     F2 7862   8.036   6.097   6.042 -0.0508  0.0488 -0.0207
    5BIM     O1 7863   7.669   6.515   5.705 -0.0277  0.0722 -0.0166
    5BIM     N5 7864   7.631   5.840   5.920 -0.1755  0.1454  0.1874
    5BIM     N6 7865   7.305   6.017   5.689 -0.1954  0.1853  0.2459
    5BIM    C19 7866   7.451   6.325   5.657 -0.1054  0.1293  0.1099
    5BIM    C20 7867   7.563   6.295   5.726 -0.0921  0.1125  0.0812
    5BIM    C21 7868   7.671   6.398   5.746 -0.0517  0.0834  0.0161
    5BIM    C22 7869   7.777   6.332   5.825 -0.0470  0.0713 -0.0010
    5BIM    C23 7870   7.897   6.388   5.868 -0.0143  0.0447 -0.0567
    5BIM    C24 7871   7.982   6.306   5.941 -0.0164  0.0375 -0.0620
    5BIM    C25 7872   7.947   6.173   5.970 -0.0503  0.0568 -0.0130
    5BIM    C26 7873   7.828   6.117   5.927 -0.0831  0.0833  0.0430
    5BIM    C27 7874   7.740   6.198   5.853 -0.0813  0.0907  0.0492
    5BIM    C28 7875   7.607   6.170   5.793 -0.1105  0.1168  0.1017
    5BIM    C29 7876   7.539   6.051   5.799 -0.1473  0.1408  0.1583
    5BIM    C30 7877   7.590   5.935   5.866 -0.1627  0.1432  0.1742
    5BIM    C31 7878   7.411   6.033   5.738 -0.1736  0.1651  0.2061
    1BTD     S2 7879   8.068   8.716   3.830 -0.0025 -0.1876 -0.0288
    1BTD     N1 7880   8.194   8.626   3.920  0.0019 -0.1991 -0.0467
    1BTD     N2 7881   8.169   8.864   3.808 -0.0334 -0.1528  0.0580
    1BTD     N3 7882   8.603   8.999   3.925 -0.0882 -0.1025  0.2027
    1BTD     N4 7883   8.634   8.706   4.063 -0.0446 -0.1593  0.0736
    1BTD     C5 7884   8.424   8.671   3.993 -0.0229 -0.1776  0.0176
    1BTD     C6 7885   8.300   8.705   3.929 -0.0188 -0.1774  0.0101
    1BTD     C7 7886   8.285   8.839   3.866 -0.0384 -0.1516  0.0686
    1BTD     C8 7887   8.396   8.931   3.871 -0.0613 -0.1273  0.1320
    1BTD    C15 7888   8.515   8.893   3.935 -0.0648 -0.1285  0.1371
    1BTD    C16 7889   8.529   8.765   3.996 -0.0457 -0.1534  0.0806
    1BTD    C43 7890   8.751   8.781   4.122 -0.3139  0.7246  0.2338
    1BTD    C44 7891   8.738   8.806   4.274  0.2085 -0.1417 -0.0614
    1BTD    C45 7892   8.868   8.825   4.357 -0.3249  0.5390 -0.3819
    1BTD    C46 7893   8.956   8.693   4.349  0.2536 -0.3961 -0.2306
    1BTD    C47 7894   8.618   8.886   4.321  0.6620 -0.6059 -0.4466
    1BTD    C48 7895   8.574   8.880   4.466 -0.4198  0.4182 -0.1921
    1BTD    C49 7896   8.566   8.743   4.533  0.1483  0.4399 -0.4263
    1BTD    C50 7897   8.568   8.746   4.688  1.0852 -0.7352  0.3282
    1BTD    C75 7898   8.752   9.005   3.912 -0.1114  0.1348  0.3348
    1BTD    C76 7899   8.824   9.008   3.773 -0.0984  0.4339 -0.2966
    1BTD    C77 7900   8.794   8.888   3.684  0.3196 -0.1056 -0.1000
    1BTD    C78 7901   8.820   8.900   3.532 -0.0209 -0.4546 -0.4248
    1BTD    C79 7902   8.964   9.066   3.787 -0.1385 -0.7886  0.0352
    1BTD    C80 7903   9.067   8.992   3.869 -0.9715 -0.1819  0.3750
    1BTD    C81 7904   9.199   9.066   3.875 -0.2031  0.2179  0.4001
    1BTD    C82 7905   9.305   8.985   3.951  0.0193 -0.2628 -0.7803
    2TTP     S1 7906   8.416   8.383   4.099  0.0250 -0.1242  0.2102
    2TTP     S5 7907   8.837   8.416   4.180  0.0541  0.2973 -0.1044
    2TTP     C1 7908   8.784   8.247   4.219  0.2510  0.2456 -0.0578
    2TTP     C2 7909   8.651   8.227   4.196  0.2537  0.1121  0.0423
    2TTP     C3 7910   8.586   8.344   4.147  0.1001  0.0460  0.0856
    2TTP     C4 7911   8.469   8.553   4.061 -0.1721 -0.0725  0.1634
    2TTP    C17 7912   8.602   8.573   4.084 -0.1749  0.0605  0.0636
    2TTP    C18 7913   8.667   8.455   4.132 -0.0215  0.1266  0.0203
    2TTP    C32 7914   8.565   8.098   4.219  0.0357 -0.3007  0.8572
    2TTP    C33 7915   8.520   8.062   4.364 -0.5371  0.2435 -0.2045
    2TTP    C34 7916   8.439   7.935   4.381  0.0869 -0.3251 -0.3310
    2TTP    C35 7917   8.307   7.931   4.306  0.2910 -0.0405 -0.1704
    2TTP    C36 7918   8.196   7.838   4.346  0.6030  0.2664 -0.0783
    2TTP    C37 7919   8.067   7.855   4.271 -0.1440 -0.3326  0.1226
    2TTP    C38 7920   7.961   7.752   4.315 -0.1821  0.5695  0.4065
    2TTP    C39 7921   7.845   7.745   4.208 -0.8057 -0.5944 -0.0856
    2TTP    C40 7922   7.756   7.621   4.209 -0.8234  0.7389 -0.1092
    2TTP    C41 7923   7.820   7.480   4.200  0.4171 -0.0312  0.0938
    2TTP    C42 7924   7.730   7.359   4.238 -0.1713  0.1839  0.3881
    3TTP     S1 7925   8.315   9.202   3.756 -0.4327  0.1987  0.1520
    3TTP     S5 7926   8.708   9.350   3.850 -0.2255 -0.2365 -0.0217
    3TTP     C1 7927   8.613   9.483   3.770 -0.1195 -0.1250  0.0382
    3TTP     C2 7928   8.486   9.445   3.737 -0.1769  0.0160  0.0954
    3TTP     C3 7929   8.459   9.310   3.772 -0.3073  0.0408  0.0939
    3TTP     C4 7930   8.410   9.068   3.835 -0.5388  0.0873  0.0921
    3TTP    C17 7931   8.537   9.106   3.869 -0.4813 -0.0537  0.0349
    3TTP    C18 7932   8.564   9.242   3.833 -0.3512 -0.0789  0.0364
    3TTP    C32 7933   8.385   9.538   3.678  0.0815 -0.9716  0.8418
    3TTP    C33 7934   8.279   9.497   3.570  0.2330  0.1900 -0.1685
    3TTP    C34 7935   8.313   9.446   3.428  0.1521 -0.0911 -0.1981
    3TTP    C35 7936   8.455   9.420   3.375 -0.4769  0.4368 -0.1028
    3TTP    C36 7937   8.464   9.328   3.249  0.5527  0.2850  0.0490
    3TTP    C37 7938   8.603   9.314   3.190 -0.0383 -0.1304 -0.3911
    3TTP    C38 7939   8.706   9.242   3.282  0.0717 -0.3412  0.5668
    3TTP    C39 7940   8.848   9.251   3.230  0.1216  0.2981  0.3128
    3TTP    C40 7941   8.921   9.171   3.336 -0.2839 -0.1313  0.2283
    3TTP    C41 7942   9.059   9.170   3.298 -1.1563  0.1842  0.1626
    3TTP    C42 7943   9.163   9.114   3.393  0.5847  0.1563 -0.2417
    4BIM     F1 7944   9.598   8.155   4.223  0.0868  0.3469  0.1404
    4BIM     F2 7945   9.567   7.930   4.373  0.1705  0.0193 -0.3293
    4BIM     O1 7946   9.082   8.302   4.152  0.0381  0.3831  0.5643
    4BIM     N5 7947   9.155   7.711   4.538  0.2563 -0.4258 -0.7025
    4BIM     N6 7948   8.758   7.871   4.453  0.2012 -0.3314 -0.2767
    4BIM    C19 7949   8.869   8.139   4.270  0.1008  0.0828  0.2661
    4BIM    C20 7950   9.000   8.111   4.282  0.1097  0.0868  0.1777
    4BIM    C21 7951   9.103   8.199   4.219  0.0758  0.2458  0.3426
    4BIM    C22 7952   9.235   8.140   4.251  0.0963  0.2060  0.1891
    4BIM    C23 7953   9.360   8.187   4.214  0.0775  0.3135  0.2606
    4BIM    C24 7954   9.471   8.114   4.257  0.1030  0.2474  0.0822
    4BIM    C25 7955   9.454   7.999   4.334  0.1465  0.0786 -0.1596
    4BIM    C26 7956   9.329   7.951   4.371  0.1652 -0.0296 -0.2325
    4BIM    C27 7957   9.217   8.024   4.329  0.1397  0.0353 -0.0544
    4BIM    C28 7958   9.072   8.001   4.351  0.1497 -0.0448 -0.0709
    4BIM    C29 7959   9.015   7.898   4.422  0.1886 -0.2092 -0.2773
    4BIM    C30 7960   9.092   7.795   4.486  0.2258 -0.3278 -0.5105
    4BIM    C31 7961   8.874   7.884   4.439  0.1953 -0.2755 -0.2757
    5BIM     F1 7962   9.281   9.895   4.014  0.1516 -0.0350 -0.2124
    5BIM     F2 7963   9.219  10.088   3.833 -0.3419  0.2768  0.2829
    5BIM     O1 7964   8.867   9.553   3.946  0.3948 -0.3233 -0.2446
    5BIM     N5 7965   8.834  10.122   3.523 -0.8790  0.5196  0.9723
    5BIM     N6 7966   8.523   9.816   3.506 -0.5894  0.2315  0.8473
    5BIM    C19 7967   8.661   9.616   3.748  0.0091 -0.1278  0.2173
    5BIM    C20 7968   8.767   9.695   3.773 -0.0327 -0.0675  0.2061
    5BIM    C21 7969   8.869   9.655   3.876  0.1750 -0.1757 -0.0386
    5BIM    C22 7970   8.971   9.762   3.877  0.0663 -0.0719  0.0158
    5BIM    C23 7971   9.085   9.770   3.956  0.1867 -0.1179 -0.1521
    5BIM    C24 7972   9.167   9.881   3.939  0.0447  0.0020 -0.0569
    5BIM    C25 7973   9.134   9.980   3.846 -0.2098  0.1626  0.1983
    5BIM    C26 7974   9.021   9.973   3.766 -0.3309  0.2093  0.3669
    5BIM    C27 7975   8.937   9.862   3.782 -0.1903  0.0896  0.2741
    5BIM    C28 7976   8.810   9.824   3.714 -0.2611  0.0987  0.4011
    5BIM    C29 7977   8.746   9.895   3.616 -0.4942  0.2352  0.6517
    5BIM    C30 7978   8.795  10.020   3.565 -0.7050  0.3911  0.8271
    5BIM    C31 7979   8.624   9.851   3.556 -0.5453  0.2324  0.7579
    1BTD     S2 7980   3.005   1.254   8.972  0.0941  0.0216 -0.1141
    1BTD     N1 7981   3.102   1.331   8.841  0.2092  0.0105 -0.0346
    1BTD     N2 7982   3.141   1.246   9.089 -0.0046  0.0155  0.0002
    1BTD     N3 7983   3.594   1.369   9.092  0.0023 -0.0172  0.3769
    1BTD     N4 7984   3.546   1.473   8.787  0.2657 -0.0234  0.3335
    1BTD     C5 7985   3.334   1.404   8.816  0.2356 -0.0072  0.1578
    1BTD     C6 7986   3.225   1.346   8.889  0.1702  0.0031  0.0677
    1BTD     C7 7987   3.247   1.299   9.028  0.0505  0.0060  0.0877
    1BTD     C8 7988   3.377   1.311   9.087  0.0021 -0.0016  0.1967
    1BTD    C15 7989   3.482   1.369   9.012  0.0694 -0.0116  0.2826
    1BTD    C16 7990   3.461   1.414   8.878  0.1846 -0.0143  0.2633
    1BTD    C43 7991   3.650   1.574   8.812 -0.2577 -0.5503 -0.1420
    1BTD    C44 7992   3.758   1.635   8.719  0.1963 -0.5460  0.2014
    1BTD    C45 7993   3.824   1.755   8.787  0.3767  0.6553 -0.0592
    1BTD    C46 7994   3.746   1.879   8.835  0.2099 -0.2488 -0.2651
    1BTD    C47 7995   3.870   1.530   8.680  0.3934 -0.4521 -1.0281
    1BTD    C48 7996   3.973   1.570   8.570 -0.4856  0.0066 -0.4303
    1BTD    C49 7997   4.098   1.482   8.557  0.9002  0.1617  0.1301
    1BTD    C50 7998   4.192   1.476   8.676  0.3032  0.2805 -0.1444
    1BTD    C75 7999   3.729   1.375   9.035 -0.2778  0.2375 -0.5239
    1BTD    C76 8000   3.855   1.426   9.106 -0.0919  0.3770 -0.5373
    1BTD    C77 8001   3.993   1.395   9.034  0.5214 -0.3657 -0.0678
    1BTD    C78 8002   4.007   1.266   8.968 -0.1413  0.3296 -0.3329
    1BTD    C79 8003   3.836   1.570   9.149  0.1214 -0.4495 -0.5883
    1BTD    C80 8004   3.934   1.625   9.257 -0.5996 -0.3247 -0.3945
    1BTD    C81 8005   3.912   1.585   9.399  0.2555 -0.3024  0.3072
    1BTD    C82 8006   4.003   1.647   9.505  0.7589  0.3308 -0.1101
    2TTP     S1 8007   3.242   1.457   8.538  0.1186  0.1551 -0.0199
    2TTP     S5 8008   3.651   1.528   8.424  0.1408  0.0194 -0.0248
    2TTP     C1 8009   3.548   1.526   8.273  0.1569 -0.0704 -0.0346
    2TTP     C2 8010   3.416   1.503   8.300  0.1509 -0.0338 -0.0331
    2TTP     C3 8011   3.391   1.488   8.440  0.1336  0.0665 -0.0250
    2TTP     C4 8012   3.345   1.459   8.688  0.1025  0.2450 -0.0103
    2TTP    C17 8013   3.477   1.481   8.662  0.1085  0.2084 -0.0115
    2TTP    C18 8014   3.502   1.497   8.522  0.1259  0.1081 -0.0196
    2TTP    C32 8015   3.300   1.504   8.201 -0.1560  0.1328  0.0337
    2TTP    C33 8016   3.216   1.633   8.187  0.2153  0.2318  0.7163
    2TTP    C34 8017   3.105   1.629   8.086  0.1470 -0.3662 -0.2672
    2TTP    C35 8018   3.159   1.642   7.945  0.4087  0.5561 -0.3838
    2TTP    C36 8019   3.054   1.633   7.833 -0.0888 -0.3008  0.2768
    2TTP    C37 8020   2.941   1.728   7.815  0.1682 -0.2178  0.3802
    2TTP    C38 8021   2.922   1.786   7.671  0.8456  0.4475 -0.1467
    2TTP    C39 8022   2.878   1.681   7.560  0.3011 -0.2007  0.5033
    2TTP    C40 8023   2.764   1.583   7.588  0.5263  0.1869  0.2154
    2TTP    C41 8024   2.725   1.498   7.467  0.3940  0.5595 -0.1854
    2TTP    C42 8025   2.641   1.371   7.486  0.8878 -1.3041  0.2721
    3TTP     S1 8026   3.376   1.202   9.370 -0.0757  0.0669  0.2272
    3TTP     S5 8027   3.805   1.239   9.373 -0.0404 -0.2663 -0.3150
    3TTP     C1 8028   3.753   1.147   9.522  0.0970 -0.4482 -0.3803
    3TTP     C2 8029   3.618   1.130   9.529  0.0942 -0.3560 -0.2165
    3TTP     C3 8030   3.550   1.189   9.418 -0.0166 -0.1385 -0.0341
    3TTP     C4 8031   3.427   1.294   9.222 -0.2132  0.2488  0.2925
    3TTP    C17 8032   3.563   1.311   9.214 -0.2104  0.1566  0.1285
    3TTP    C18 8033   3.631   1.252   9.325 -0.0995 -0.0609 -0.0541
    3TTP    C32 8034   3.554   1.037   9.636  0.3951 -0.3052  0.4411
    3TTP    C33 8035   3.456   1.108   9.726  0.1763 -0.4912  0.5634
    3TTP    C34 8036   3.400   1.022   9.840 -0.6064  0.1607 -0.0573
    3TTP    C35 8037   3.289   1.086   9.926 -0.3516  0.0972  0.0466
    3TTP    C36 8038   3.258   1.020  10.059  0.1889  0.0835 -0.0468
    3TTP    C37 8039   3.352   1.007  10.176 -0.6884  0.0433 -0.0909
    3TTP    C38 8040   3.473   0.920  10.150 -0.4272  0.2844  0.0034
    3TTP    C39 8041   3.570   0.906  10.270  0.3451 -0.5485  0.2942
    3TTP    C40 8042   3.705   0.833  10.244  0.2103 -0.4288 -0.6075
    3TTP    C41 8043   3.818   0.850  10.341 -0.0563 -0.4271  0.9500
    3TTP    C42 8044   3.927   0.747  10.322 -0.0787  0.0317  0.1117
    4BIM     F1 8045   4.291   1.666   7.966 -0.1504  0.6438 -0.2414
    4BIM     F2 8046   4.198   1.584   7.723 -0.0345 -0.2920  0.0201
    4BIM     O1 8047   3.843   1.627   8.266 -0.1072  1.0340 -0.1259
    4BIM     N5 8048   3.744   1.440   7.589  0.1633 -1.3593  0.4787
    4BIM     N6 8049   3.412   1.426   7.873  0.1737 -0.8657  0.5164
    4BIM    C19 8050   3.594   1.536   8.142  0.0191  0.2786  0.1653
    4BIM    C20 8051   3.711   1.549   8.075  0.0036  0.2170  0.1259
    4BIM    C21 8052   3.834   1.596   8.146 -0.0622  0.6227 -0.0257
    4BIM    C22 8053   3.942   1.599   8.046 -0.0629  0.4346 -0.0317
    4BIM    C23 8054   4.075   1.636   8.065 -0.1134  0.6783 -0.1497
    4BIM    C24 8055   4.159   1.630   7.954 -0.1027  0.4248 -0.1292
    4BIM    C25 8056   4.110   1.588   7.830 -0.0426 -0.0573  0.0057
    4BIM    C26 8057   3.978   1.551   7.810  0.0080 -0.3027  0.1240
    4BIM    C27 8058   3.892   1.556   7.921 -0.0020 -0.0520  0.1051
    4BIM    C28 8059   3.747   1.524   7.934  0.0412 -0.2050  0.2075
    4BIM    C29 8060   3.664   1.479   7.834  0.1039 -0.6521  0.3506
    4BIM    C30 8061   3.708   1.458   7.700  0.1364 -1.0394  0.4206
    4BIM    C31 8062   3.526   1.450   7.856  0.1420 -0.7671  0.4410
    5BIM     F1 8063   4.571   1.083   9.594  0.0216  0.3707  0.2819
    5BIM     F2 8064   4.535   0.973   9.840 -0.1622 -0.2615 -0.0239
    5BIM     O1 8065   4.058   1.170   9.444  0.1253  0.5696  0.0408
    5BIM     N5 8066   4.117   0.876  10.087 -0.3524 -1.0288 -0.6354
    5BIM     N6 8067   3.724   0.967   9.921 -0.2344 -0.7460 -0.7622
    5BIM    C19 8068   3.841   1.096   9.626 -0.0135  0.0362 -0.3370
    5BIM    C20 8069   3.972   1.078   9.654 -0.0324  0.0108 -0.2644
    5BIM    C21 8070   4.078   1.119   9.555  0.0427  0.2960 -0.0690
    5BIM    C22 8071   4.207   1.086   9.617 -0.0013  0.1857 -0.0348
    5BIM    C23 8072   4.334   1.106   9.563  0.0405  0.3648  0.1269
    5BIM    C24 8073   4.443   1.067   9.640 -0.0153  0.2080  0.1266
    5BIM    C25 8074   4.424   1.010   9.767 -0.1099 -0.1178 -0.0312
    5BIM    C26 8075   4.298   0.990   9.822 -0.1521 -0.2978 -0.1929
    5BIM    C27 8076   4.187   1.029   9.745 -0.0967 -0.1433 -0.1952
    5BIM    C28 8077   4.041   1.022   9.773 -0.1196 -0.2638 -0.3426
    5BIM    C29 8078   3.982   0.972   9.887 -0.2053 -0.5710 -0.5180
    5BIM    C30 8079   4.057   0.920   9.996 -0.2860 -0.8216 -0.5820
    5BIM    C31 8080   3.840   0.970   9.905 -0.2208 -0.6655 -0.6513
    1BTD     S2 8081   1.698   4.690   4.860  0.0965  0.2227  0.0765
    1BTD     N1 8082   1.803   4.554   4.914  0.0443  0.0732 -0.1961
    1BTD     N2 8083   1.835   4.805   4.836  0.1261  0.2698  0.4597
    1BTD     N3 8084   2.301   4.793   4.885  0.0922  0.0952  0.7482
    1BTD     N4 8085   2.262   4.484   4.980 -0.0087 -0.1469 -0.0601
    1BTD     C5 8086   2.043   4.522   4.947  0.0178 -0.0389 -0.1153
    1BTD     C6 8087   1.928   4.599   4.911  0.0512  0.0663  0.0021
    1BTD     C7 8088   1.945   4.739   4.868  0.0970  0.1762  0.3692
    1BTD     C8 8089   2.078   4.795   4.863  0.1072  0.1756  0.6005
    1BTD    C15 8090   2.188   4.716   4.899  0.0734  0.0706  0.4740
    1BTD    C16 8091   2.171   4.580   4.941  0.0293 -0.0352  0.1204
    1BTD    C43 8092   2.391   4.476   4.914 -0.7683 -0.3820 -1.3423
    1BTD    C44 8093   2.507   4.406   4.980  0.3100 -0.2227 -0.8482
    1BTD    C45 8094   2.630   4.400   4.889  0.0001  0.2028  0.5652
    1BTD    C46 8095   2.619   4.319   4.761  0.9412  0.0682  0.2107
    1BTD    C47 8096   2.554   4.473   5.110 -0.5314 -0.2290 -0.2522
    1BTD    C48 8097   2.675   4.418   5.194  0.0100  0.1623  0.2608
    1BTD    C49 8098   2.697   4.267   5.209 -0.0015 -0.0914  0.0690
    1BTD    C50 8099   2.828   4.221   5.275 -0.7223 -0.2692 -0.3503
    1BTD    C75 8100   2.431   4.787   4.956  0.2182 -0.6603 -0.0733
    1BTD    C76 8101   2.563   4.840   4.908 -0.0205 -0.4174 -0.0568
    1BTD    C77 8102   2.647   4.884   5.027 -0.4899  0.0418  0.4247
    1BTD    C78 8103   2.718   4.766   5.097 -0.1641 -0.2958  0.0983
    1BTD    C79 8104   2.625   4.771   4.787 -0.1639  0.1547 -0.8197
    1BTD    C80 8105   2.545   4.751   4.659  0.5538 -0.1127  0.2605
    1BTD    C81 8106   2.619   4.696   4.534  0.5308  0.1617 -0.0091
    1BTD    C82 8107   2.717   4.799   4.475 -0.0927  0.2268  0.5750
    2TTP     S1 8108   1.956   4.252   5.055 -0.2917 -0.1544  0.0423
    2TTP     S5 8109   2.355   4.197   5.206 -0.1996  0.1419 -0.0905
    2TTP     C1 8110   2.249   4.066   5.274 -0.0729  0.0443 -0.0799
    2TTP     C2 8111   2.119   4.075   5.231 -0.0939 -0.0529 -0.0383
    2TTP     C3 8112   2.099   4.186   5.144 -0.2108 -0.0538 -0.0134
    2TTP     C4 8113   2.062   4.383   4.988 -0.4184 -0.0567  0.0316
    2TTP    C17 8114   2.192   4.374   5.030 -0.3974  0.0405 -0.0099
    2TTP    C18 8115   2.212   4.263   5.118 -0.2806  0.0415 -0.0350
    2TTP    C32 8116   1.999   4.004   5.287  0.7792  0.4073 -0.1129
    2TTP    C33 8117   1.946   3.894   5.187 -0.8504  0.0251  0.1509
    2TTP    C34 8118   1.829   3.820   5.242 -0.1099  0.3255 -0.6263
    2TTP    C35 8119   1.776   3.703   5.165  0.1648  0.2905 -0.3473
    2TTP    C36 8120   1.658   3.631   5.243  0.1743  0.1586 -0.0150
    2TTP    C37 8121   1.704   3.551   5.362  0.2935 -0.1836 -0.1508
    2TTP    C38 8122   1.802   3.442   5.330 -0.2215 -0.4104  0.0988
    2TTP    C39 8123   1.841   3.371   5.461 -0.6408  0.6469 -0.0405
    2TTP    C40 8124   1.927   3.250   5.432  0.4841 -0.6213  0.3012
    2TTP    C41 8125   2.071   3.266   5.382 -0.0109  0.1854 -0.2814
    2TTP    C42 8126   2.125   3.132   5.337  0.1246 -0.0911 -0.6149
    3TTP     S1 8127   2.053   5.078   4.769 -0.0389  0.0392  0.2262
    3TTP     S5 8128   2.482   5.108   4.757 -0.0713  0.3126 -0.2979
    3TTP     C1 8129   2.411   5.262   4.693 -0.2489  0.2935 -0.1494
    3TTP     C2 8130   2.275   5.262   4.693 -0.2493  0.2081  0.0212
    3TTP     C3 8131   2.221   5.140   4.743 -0.1095  0.1546  0.0408
    3TTP     C4 8132   2.124   4.923   4.833  0.1387  0.0584  0.0780
    3TTP    C17 8133   2.260   4.923   4.833  0.1391  0.1437 -0.0928
    3TTP    C18 8134   2.314   5.045   4.783 -0.0008  0.1973 -0.1124
    3TTP    C32 8135   2.181   5.372   4.630 -0.2762  0.0801  0.0326
    3TTP    C33 8136   2.079   5.422   4.731  0.1334 -0.2942 -0.3334
    3TTP    C34 8137   1.989   5.521   4.655 -0.0901  0.6416  0.3233
    3TTP    C35 8138   1.856   5.565   4.724 -0.3036 -0.2902 -0.0702
    3TTP    C36 8139   1.780   5.685   4.668  0.3266  0.3960 -0.9598
    3TTP    C37 8140   1.645   5.722   4.734  0.3989  0.3521 -0.5340
    3TTP    C38 8141   1.556   5.609   4.803  0.1565 -0.9112  0.0092
    3TTP    C39 8142   1.474   5.519   4.700 -0.6247 -0.1865 -0.4091
    3TTP    C40 8143   1.366   5.578   4.610  0.6462  0.0021 -0.3400
    3TTP    C41 8144   1.275   5.689   4.668 -0.3236  0.1918 -0.0824
    3TTP    C42 8145   1.187   5.760   4.569  0.2423  0.5496  0.1354
    4BIM     F1 8146   2.897   3.929   5.760 -0.2071  0.3138 -0.0122
    4BIM     F2 8147   2.813   3.671   5.786 -0.1082  0.2859  0.0315
    4BIM     O1 8148   2.504   4.133   5.449 -0.2501  0.0932 -0.1029
    4BIM     N5 8149   2.413   3.446   5.601  0.0035  0.0887  0.0293
    4BIM     N6 8150   2.123   3.657   5.353 -0.0501 -0.0780 -0.0503
    4BIM    C19 8151   2.284   3.959   5.363 -0.1708 -0.0116 -0.0935
    4BIM    C20 8152   2.386   3.918   5.440 -0.1639  0.0449 -0.0725
    4BIM    C21 8153   2.496   4.013   5.480 -0.2065  0.0966 -0.0789
    4BIM    C22 8154   2.590   3.936   5.563 -0.1861  0.1512 -0.0514
    4BIM    C23 8155   2.707   3.982   5.624 -0.2116  0.2102 -0.0465
    4BIM    C24 8156   2.780   3.890   5.698 -0.1843  0.2545 -0.0185
    4BIM    C25 8157   2.737   3.757   5.711 -0.1334  0.2401  0.0039
    4BIM    C26 8158   2.620   3.711   5.651 -0.1078  0.1813 -0.0006
    4BIM    C27 8159   2.545   3.802   5.576 -0.1348  0.1358 -0.0290
    4BIM    C28 8160   2.418   3.786   5.500 -0.1190  0.0699 -0.0411
    4BIM    C29 8161   2.344   3.670   5.489 -0.0719  0.0381 -0.0260
    4BIM    C30 8162   2.383   3.547   5.551 -0.0306  0.0660  0.0043
    4BIM    C31 8163   2.223   3.664   5.414 -0.0602 -0.0255 -0.0395
    5BIM     F1 8164   3.192   5.393   4.473  0.1456  0.0558 -0.0221
    5BIM     F2 8165   3.134   5.658   4.449 -0.0352 -0.0225 -0.4625
    5BIM     O1 8166   2.708   5.196   4.616  0.2899 -0.0334  0.3469
    5BIM     N5 8167   2.706   5.898   4.515 -0.1923 -0.1986 -0.8324
    5BIM     N6 8168   2.340   5.691   4.631 -0.0432 -0.2525 -0.4553
    5BIM    C19 8169   2.481   5.379   4.643  0.1683 -0.1397  0.0573
    5BIM    C20 8170   2.605   5.418   4.608  0.1391 -0.1143 -0.0182
    5BIM    C21 8171   2.717   5.318   4.596  0.2058 -0.0596  0.1410
    5BIM    C22 8172   2.837   5.394   4.557  0.1516 -0.0437  0.0043
    5BIM    C23 8173   2.965   5.344   4.534  0.1833  0.0036  0.0777
    5BIM    C24 8174   3.063   5.436   4.498  0.1190  0.0097 -0.0832
    5BIM    C25 8175   3.033   5.572   4.485  0.0259 -0.0306 -0.3098
    5BIM    C26 8176   2.905   5.622   4.508 -0.0063 -0.0781 -0.3843
    5BIM    C27 8177   2.805   5.531   4.544  0.0578 -0.0850 -0.2240
    5BIM    C28 8178   2.661   5.552   4.575  0.0465 -0.1298 -0.2469
    5BIM    C29 8179   2.593   5.671   4.574 -0.0345 -0.1769 -0.4425
    5BIM    C30 8180   2.656   5.796   4.541 -0.1210 -0.1888 -0.6562
    5BIM    C31 8181   2.454   5.681   4.605 -0.0388 -0.2183 -0.4485
    1BTD     S2 8182   4.942   6.919   3.603  0.0700  0.0124 -0.1608
    1BTD     N1 8183   5.029   7.073   3.633 -0.0204  0.0058  0.1415
    1BTD     N2 8184   4.797   6.997   3.530  0.1607  0.0492 -0.3020
    1BTD     N3 8185   4.660   7.436   3.436  0.1823  0.1117 -0.0433
    1BTD     N4 8186   4.945   7.530   3.563 -0.0408  0.0583  0.5032
    1BTD     C5 8187   4.981   7.311   3.595 -0.0283  0.0339  0.3237
    1BTD     C6 8188   4.950   7.170   3.589  0.0197  0.0300  0.1227
    1BTD     C7 8189   4.820   7.128   3.532  0.1210  0.0541 -0.1255
    1BTD     C8 8190   4.729   7.227   3.482  0.1693  0.0812 -0.1603
    1BTD    C15 8191   4.764   7.363   3.490  0.1194  0.0840  0.0417
    1BTD    C16 8192   4.889   7.405   3.545  0.0219  0.0607  0.2810
    1BTD    C43 8193   4.931   7.639   3.456  0.0421 -0.2717 -0.0429
    1BTD    C44 8194   4.953   7.781   3.498 -0.8329 -0.3301  0.4614
    1BTD    C45 8195   4.845   7.829   3.600 -0.2231 -0.0212  0.4331
    1BTD    C46 8196   4.863   7.960   3.677  0.0197 -0.3147  0.0659
    1BTD    C47 8197   4.970   7.885   3.387  0.9264  0.1555  0.0071
    1BTD    C48 8198   5.055   7.853   3.271 -0.0994 -0.1902  0.6688
    1BTD    C49 8199   4.972   7.880   3.137  0.0980  0.3201 -0.2680
    1BTD    C50 8200   5.043   7.824   3.013 -0.4248  0.0098 -0.0180
    1BTD    C75 8201   4.610   7.566   3.478  0.1649 -0.2918 -0.6042
    1BTD    C76 8202   4.534   7.663   3.384 -0.2009  0.2606  0.3555
    1BTD    C77 8203   4.469   7.780   3.459 -0.8022  0.6356  0.2077
    1BTD    C78 8204   4.361   7.749   3.557  0.0545 -0.0561  0.0172
    1BTD    C79 8205   4.618   7.709   3.268  0.3531 -0.9378  0.3104
    1BTD    C80 8206   4.540   7.779   3.154 -0.7874 -0.6580 -0.1140
    1BTD    C81 8207   4.622   7.807   3.027  0.0868  0.2733 -0.2032
    1BTD    C82 8208   4.536   7.824   2.907  0.9372 -0.2234  0.0156
    2TTP     S1 8209   5.259   7.343   3.721  0.3866 -0.0284 -0.1643
    2TTP     S5 8210   5.209   7.769   3.698  0.0999 -0.0371  0.2818
    2TTP     C1 8211   5.371   7.734   3.775  0.2227 -0.0090  0.0372
    2TTP     C2 8212   5.395   7.600   3.786  0.3183 -0.0048 -0.1150
    2TTP     C3 8213   5.288   7.521   3.735  0.2984 -0.0234 -0.0439
    2TTP     C4 8214   5.097   7.379   3.645  0.2638 -0.0564  0.0803
    2TTP    C17 8215   5.073   7.512   3.633  0.1682 -0.0608  0.2326
    2TTP    C18 8216   5.180   7.592   3.684  0.1884 -0.0421  0.1614
    2TTP    C32 8217   5.520   7.533   3.835 -0.5329 -0.2880  0.7543
    2TTP    C33 8218   5.602   7.463   3.726 -1.0240  0.3800 -0.5941
    2TTP    C34 8219   5.703   7.377   3.814  0.4689  0.5807 -0.6399
    2TTP    C35 8220   5.792   7.286   3.734 -0.2949 -0.1319  0.2745
    2TTP    C36 8221   5.917   7.252   3.815  0.1067  0.1040 -0.0629
    2TTP    C37 8222   6.020   7.366   3.820 -0.5065 -1.1217  0.4448
    2TTP    C38 8223   6.156   7.325   3.877 -0.4994  1.2292 -0.2640
    2TTP    C39 8224   6.270   7.417   3.876 -0.2669 -0.4553  0.4402
    2TTP    C40 8225   6.400   7.374   3.928 -0.8947  0.4053  0.1970
    2TTP    C41 8226   6.469   7.247   3.880 -0.1337 -0.1558  0.1107
    2TTP    C42 8227   6.620   7.229   3.916 -0.0145  0.0459 -0.7679
    3TTP     S1 8228   4.495   7.087   3.353  0.1436  0.0339 -0.0990
    3TTP     S5 8229   4.348   7.465   3.210 -0.0968  0.1168  0.3620
    3TTP     C1 8230   4.244   7.333   3.141  0.0648  0.1247  0.0990
    3TTP     C2 8231   4.283   7.208   3.181  0.1487  0.0995 -0.0588
    3TTP     C3 8232   4.397   7.213   3.268  0.0881  0.0731  0.0222
    3TTP     C4 8233   4.599   7.220   3.422 -0.0181  0.0260  0.1639
    3TTP    C17 8234   4.560   7.344   3.382 -0.1019  0.0512  0.3219
    3TTP    C18 8235   4.446   7.339   3.295 -0.0416  0.0776  0.2408
    3TTP    C32 8236   4.222   7.077   3.131  0.3501  0.2145  0.3439
    3TTP    C33 8237   4.209   6.970   3.235  0.6513  0.6709 -0.3441
    3TTP    C34 8238   4.170   6.827   3.183 -0.3343 -0.1984  0.4361
    3TTP    C35 8239   4.028   6.803   3.129  0.1428 -0.1781  0.3926
    3TTP    C36 8240   3.988   6.660   3.079  0.7900 -0.7489  0.4945
    3TTP    C37 8241   3.856   6.658   2.995 -0.6221 -0.2057 -0.0393
    3TTP    C38 8242   3.814   6.511   2.976 -0.8848 -0.8850  0.2974
    3TTP    C39 8243   3.687   6.506   2.903 -0.0713  1.8408 -0.2564
    3TTP    C40 8244   3.633   6.360   2.887 -0.3148 -0.1402 -0.2056
    3TTP    C41 8245   3.513   6.357   2.793 -0.8130  1.1399  0.4298
    3TTP    C42 8246   3.462   6.219   2.758  0.0201 -0.0556 -0.6688
    4BIM     F1 8247   5.311   8.542   3.895 -0.2974 -0.1357  0.2650
    4BIM     F2 8248   5.582   8.560   3.875 -0.3437  0.0017 -0.2607
    4BIM     O1 8249   5.239   8.008   3.841 -0.1297 -0.1760  0.4400
    4BIM     N5 8250   5.920   8.205   3.807 -0.2906  0.1707 -0.8915
    4BIM     N6 8251   5.809   7.784   3.769 -0.1501  0.1113 -0.6488
    4BIM    C19 8252   5.472   7.835   3.802 -0.1142 -0.0592  0.0000
    4BIM    C20 8253   5.480   7.969   3.817 -0.1547 -0.0542 -0.0235
    4BIM    C21 8254   5.355   8.051   3.836 -0.1601 -0.1166  0.2119
    4BIM    C22 8255   5.399   8.191   3.848 -0.2078 -0.0937  0.1177
    4BIM    C23 8256   5.319   8.304   3.867 -0.2289 -0.1330  0.2644
    4BIM    C24 8257   5.384   8.427   3.876 -0.2746 -0.0993  0.1319
    4BIM    C25 8258   5.523   8.436   3.866 -0.2983 -0.0289 -0.1389
    4BIM    C26 8259   5.603   8.324   3.846 -0.2775  0.0110 -0.2865
    4BIM    C27 8260   5.540   8.199   3.838 -0.2313 -0.0222 -0.1557
    4BIM    C28 8261   5.595   8.062   3.818 -0.1996  0.0050 -0.2533
    4BIM    C29 8262   5.728   8.029   3.803 -0.2099  0.0720 -0.5079
    4BIM    C30 8263   5.833   8.126   3.806 -0.2542  0.1259 -0.7180
    4BIM    C31 8264   5.772   7.895   3.785 -0.1769  0.0932 -0.5839
    5BIM     F1 8265   3.913   8.006   2.807 -0.0145  0.0069 -0.3101
    5BIM     F2 8266   3.693   7.860   2.743 -0.0817 -0.0045 -0.0533
    5BIM     O1 8267   4.224   7.628   3.038  0.1075  0.1136 -0.3005
    5BIM     N5 8268   3.598   7.380   2.816 -0.0917  0.0540  0.3229
    5BIM     N6 8269   3.885   7.114   3.010  0.0172  0.1395  0.2787
    5BIM    C19 8270   4.124   7.354   3.059  0.0866  0.1398 -0.0517
    5BIM    C20 8271   4.055   7.455   3.003  0.0584  0.1136 -0.0642
    5BIM    C21 8272   4.113   7.593   2.996  0.0716  0.1014 -0.1954
    5BIM    C22 8273   4.012   7.678   2.930  0.0337  0.0728 -0.1740
    5BIM    C23 8274   4.020   7.814   2.901  0.0303  0.0532 -0.2670
    5BIM    C24 8275   3.912   7.872   2.838 -0.0090  0.0274 -0.2234
    5BIM    C25 8276   3.798   7.797   2.805 -0.0436  0.0214 -0.0912
    5BIM    C26 8277   3.789   7.661   2.834 -0.0404  0.0407  0.0021
    5BIM    C27 8278   3.898   7.600   2.898 -0.0009  0.0670 -0.0401
    5BIM    C28 8279   3.920   7.460   2.942  0.0128  0.0919  0.0327
    5BIM    C29 8280   3.832   7.355   2.927 -0.0117  0.0942  0.1648
    5BIM    C30 8281   3.703   7.369   2.866 -0.0556  0.0721  0.2512
    5BIM    C31 8282   3.862   7.223   2.973  0.0044  0.1191  0.2266
    1BTD     S2 8283   8.549   4.119   3.963 -0.0416  0.0959  0.0737
    1BTD     N1 8284   8.505   3.957   3.899 -0.0012  0.0807  0.0845
    1BTD     N2 8285   8.639   4.055   4.105 -0.0589  0.1280  0.0991
    1BTD     N3 8286   8.741   3.631   4.280 -0.0222  0.1662  0.1700
    1BTD     N4 8287   8.575   3.510   4.026  0.0489  0.1078  0.1522
    1BTD     C5 8288   8.543   3.725   3.968  0.0238  0.0954  0.1200
    1BTD     C6 8289   8.556   3.868   3.983 -0.0029  0.0993  0.1053
    1BTD     C7 8290   8.631   3.923   4.098 -0.0350  0.1259  0.1135
    1BTD     C8 8291   8.690   3.832   4.193 -0.0389  0.1472  0.1358
    1BTD    C15 8292   8.675   3.693   4.175 -0.0114  0.1426  0.1498
    1BTD    C16 8293   8.603   3.640   4.064  0.0190  0.1170  0.1418
    1BTD    C43 8294   8.671   3.394   4.035  0.4111  0.2027 -0.0585
    1BTD    C44 8295   8.611   3.246   4.036  0.1709  0.4215  0.4949
    1BTD    C45 8296   8.522   3.195   4.157  0.5636  0.1397  0.5114
    1BTD    C46 8297   8.581   3.171   4.295  0.7253 -0.2135  0.4654
    1BTD    C47 8298   8.715   3.142   4.003  0.3898  0.4497  0.2959
    1BTD    C48 8299   8.789   3.160   3.867 -0.1194 -0.0379 -0.5419
    1BTD    C49 8300   8.902   3.058   3.843  0.2266  0.3276 -0.0137
    1BTD    C50 8301   8.869   2.903   3.822  0.1072  0.0454 -0.2709
    1BTD    C75 8302   8.698   3.505   4.337 -0.9687 -0.0356  0.3579
    1BTD    C76 8303   8.592   3.500   4.447  0.1258 -0.1986 -0.6998
    1BTD    C77 8304   8.637   3.523   4.595 -0.3021 -0.4058 -0.7641
    1BTD    C78 8305   8.763   3.442   4.639 -0.0377  0.5112 -0.2364
    1BTD    C79 8306   8.465   3.584   4.429  0.2126 -0.3135  0.4246
    1BTD    C80 8307   8.370   3.537   4.314 -0.8578  0.3677  0.2590
    1BTD    C81 8308   8.291   3.407   4.336  0.6758 -0.2360  0.7067
    1BTD    C82 8309   8.162   3.424   4.422  0.3574 -0.0113  0.3725
    2TTP     S1 8310   8.352   3.666   3.748  0.1259 -0.2561  0.2977
    2TTP     S5 8311   8.336   3.255   3.873  0.0672 -0.2344  0.3618
    2TTP     C1 8312   8.213   3.280   3.741  0.0488 -0.2300  0.3795
    2TTP     C2 8313   8.211   3.409   3.694  0.0660 -0.2365  0.3607
    2TTP     C3 8314   8.306   3.492   3.761  0.0939 -0.2450  0.3318
    2TTP     C4 8315   8.475   3.641   3.880  0.1442 -0.2604  0.2800
    2TTP    C17 8316   8.477   3.513   3.926  0.1272 -0.2539  0.2988
    2TTP    C18 8317   8.382   3.430   3.859  0.0992 -0.2454  0.3278
    2TTP    C32 8318   8.130   3.471   3.582 -0.2283  0.5065 -0.0783
    2TTP    C33 8319   8.026   3.573   3.622  0.6023 -0.5665 -0.0964
    2TTP    C34 8320   7.942   3.553   3.754  0.1680 -0.1650  0.2277
    2TTP    C35 8321   7.835   3.443   3.748  0.4132  0.8435 -0.2322
    2TTP    C36 8322   7.747   3.412   3.878 -0.5714 -0.3814  0.8013
    2TTP    C37 8323   7.823   3.376   4.006  0.1886 -0.0588  0.5905
    2TTP    C38 8324   7.918   3.251   3.993  0.9689 -0.1851  0.8653
    2TTP    C39 8325   8.025   3.242   4.097  0.6285  0.2611  0.4574
    2TTP    C40 8326   8.053   3.102   4.136 -0.0932 -0.0423  0.2678
    2TTP    C41 8327   8.126   3.098   4.274  0.5507  0.0638  0.5366
    2TTP    C42 8328   8.165   2.959   4.316  0.3427 -0.4444  0.5236
    3TTP     S1 8329   8.854   3.987   4.397  0.0591  0.4527  0.0213
    3TTP     S5 8330   9.028   3.615   4.524  0.1810  0.5103  0.0240
    3TTP     C1 8331   9.123   3.751   4.598  0.1618  0.5423 -0.0101
    3TTP     C2 8332   9.075   3.874   4.563  0.1228  0.5264 -0.0128
    3TTP     C3 8333   8.961   3.865   4.477  0.1070  0.4884  0.0118
    3TTP     C4 8334   8.760   3.850   4.323  0.0787  0.4207  0.0552
    3TTP    C17 8335   8.808   3.727   4.358  0.1176  0.4367  0.0579
    3TTP    C18 8336   8.921   3.737   4.444  0.1333  0.4747  0.0335
    3TTP    C32 8337   9.142   4.007   4.590  0.4118 -0.0036  0.0854
    3TTP    C33 8338   9.072   4.098   4.691 -0.3144 -0.0842  0.3305
    3TTP    C34 8339   9.135   4.239   4.722  0.3311 -0.3361  0.3539
    3TTP    C35 8340   9.159   4.333   4.605  0.2981  0.2137  0.7284
    3TTP    C36 8341   9.216   4.466   4.646  0.4786  0.6746 -0.0764
    3TTP    C37 8342   9.198   4.583   4.545  0.4200  0.3505  0.4839
    3TTP    C38 8343   9.062   4.642   4.532  0.4111 -0.0440 -0.8349
    3TTP    C39 8344   9.057   4.757   4.436 -0.4959 -0.0558 -0.1213
    3TTP    C40 8345   8.922   4.827   4.413 -0.2544  0.2659  0.1635
    3TTP    C41 8346   8.829   4.745   4.325  0.6288  0.1192 -0.7408
    3TTP    C42 8347   8.694   4.825   4.318 -0.4110 -0.0768  0.4149
    4BIM     F1 8348   8.046   2.484   3.865  0.0973  0.0189 -0.0234
    4BIM     F2 8349   7.832   2.510   3.699 -0.0173  0.0256  0.1256
    4BIM     O1 8350   8.248   2.986   3.849  0.0718  0.0260 -0.1233
    4BIM     N5 8351   7.667   2.904   3.450 -0.2005  0.0402  0.2688
    4BIM     N6 8352   7.868   3.291   3.470 -0.1974  0.0444  0.1606
    4BIM    C19 8353   8.115   3.189   3.684 -0.0469  0.0348 -0.0164
    4BIM    C20 8354   8.073   3.062   3.695 -0.0360  0.0328  0.0029
    4BIM    C21 8355   8.146   2.963   3.781  0.0260  0.0283 -0.0553
    4BIM    C22 8356   8.074   2.835   3.770  0.0222  0.0271 -0.0154
    4BIM    C23 8357   8.105   2.715   3.833  0.0684  0.0231 -0.0459
    4BIM    C24 8358   8.022   2.607   3.807  0.0539  0.0227  0.0030
    4BIM    C25 8359   7.911   2.620   3.722 -0.0051  0.0262  0.0797
    4BIM    C26 8360   7.880   2.740   3.659 -0.0516  0.0300  0.1104
    4BIM    C27 8361   7.963   2.850   3.684 -0.0378  0.0305  0.0618
    4BIM    C28 8362   7.958   2.990   3.634 -0.0758  0.0343  0.0762
    4BIM    C29 8363   7.864   3.043   3.548 -0.1365  0.0382  0.1444
    4BIM    C30 8364   7.756   2.966   3.494 -0.1713  0.0394  0.2126
    4BIM    C31 8365   7.867   3.179   3.506 -0.1696  0.0417  0.1529
    5BIM     F1 8366   9.489   3.137   5.014  0.1807  0.1286 -0.1135
    5BIM     F2 8367   9.675   3.317   5.099  0.1838  0.1891 -0.2493
    5BIM     O1 8368   9.167   3.456   4.718 -0.0904  0.0073  0.0494
    5BIM     N5 8369   9.714   3.802   5.009 -0.0050  0.1895 -0.3282
    5BIM     N6 8370   9.425   4.015   4.760 -0.2174  0.0825 -0.1734
    5BIM    C19 8371   9.231   3.741   4.693 -0.1838  0.0219 -0.0224
    5BIM    C20 8372   9.305   3.653   4.764 -0.1159  0.0501 -0.0579
    5BIM    C21 8373   9.265   3.509   4.772 -0.0710  0.0402 -0.0173
    5BIM    C22 8374   9.366   3.442   4.857 -0.0005  0.0774 -0.0724
    5BIM    C23 8375   9.372   3.308   4.893  0.0589  0.0830 -0.0604
    5BIM    C24 8376   9.477   3.269   4.975  0.1199  0.1209 -0.1212
    5BIM    C25 8377   9.573   3.361   5.018  0.1215  0.1521 -0.1909
    5BIM    C26 8378   9.568   3.496   4.982  0.0627  0.1466 -0.2029
    5BIM    C27 8379   9.462   3.537   4.900  0.0000  0.1085 -0.1423
    5BIM    C28 8380   9.428   3.671   4.845 -0.0708  0.0930 -0.1363
    5BIM    C29 8381   9.498   3.788   4.864 -0.0906  0.1141 -0.1929
    5BIM    C30 8382   9.616   3.795   4.944 -0.0436  0.1555 -0.2670
    5BIM    C31 8383   9.457   3.912   4.807 -0.1605  0.0966 -0.1818
    1BTD     S2 8384   9.287   7.277   1.843  0.3759  0.1875 -0.1232
    1BTD     N1 8385   9.452   7.279   1.916  0.3095  0.1234  0.0297
    1BTD     N2 8386   9.291   7.101   1.803  0.3288  0.1770 -0.0821
    1BTD     N3 8387   9.597   6.748   1.853  0.1128  0.0401  0.2778
    1BTD     N4 8388   9.794   6.967   1.991  0.0894 -0.0261  0.4156
    1BTD     C5 8389   9.628   7.113   1.953  0.1948  0.0461  0.2295
    1BTD     C6 8390   9.499   7.155   1.907  0.2584  0.0987  0.0999
    1BTD     C7 8391   9.409   7.056   1.844  0.2692  0.1287  0.0373
    1BTD     C8 8392   9.453   6.920   1.831  0.2155  0.1047  0.1074
    1BTD    C15 8393   9.581   6.883   1.878  0.1544  0.0531  0.2341
    1BTD    C16 8394   9.667   6.979   1.938  0.1443  0.0240  0.2945
    1BTD    C43 8395   9.901   6.886   1.930  0.7216 -0.4318  0.2863
    1BTD    C44 8396  10.029   6.825   1.988 -0.3111 -0.5000 -0.8972
    1BTD    C45 8397  10.125   6.753   1.898  0.1015  0.5928  0.6291
    1BTD    C46 8398  10.152   6.822   1.759  0.3970 -0.1451 -0.2596
    1BTD    C47 8399  10.002   6.753   2.121 -0.2517 -0.1338  0.3270
    1BTD    C48 8400  10.123   6.704   2.208 -0.2357  0.2886  0.9698
    1BTD    C49 8401  10.110   6.573   2.278  0.0344  0.0767  0.0212
    1BTD    C50 8402  10.239   6.534   2.348 -0.4415 -0.2952  0.4627
    1BTD    C75 8403   9.675   6.662   1.935  0.7824  0.8023 -1.2516
    1BTD    C76 8404   9.737   6.526   1.895 -0.6797  0.2104 -0.8559
    1BTD    C77 8405   9.785   6.443   2.016  0.0545  0.7088 -0.2304
    1BTD    C78 8406   9.685   6.395   2.115 -0.7546  0.3589 -0.3409
    1BTD    C79 8407   9.840   6.540   1.780 -0.3076  0.1982  0.3406
    1BTD    C80 8408   9.944   6.431   1.756 -0.6576 -0.0485 -0.7758
    1BTD    C81 8409   9.893   6.288   1.711  0.6831  0.1046 -0.4765
    1BTD    C82 8410   9.988   6.168   1.702 -0.5282 -0.4020 -0.4562
    2TTP     S1 8411   9.763   7.351   2.079 -0.0659  0.0486  0.0788
    2TTP     S5 8412  10.105   7.104   2.165  0.0454  0.2422  0.1942
    2TTP     C1 8413  10.137   7.272   2.227 -0.1256  0.2275  0.3262
    2TTP     C2 8414  10.034   7.358   2.204 -0.1701  0.1669  0.2984
    2TTP     C3 8415   9.925   7.294   2.137 -0.0707  0.1299  0.1717
    2TTP     C4 8416   9.731   7.183   2.017  0.1050  0.0633 -0.0533
    2TTP    C17 8417   9.834   7.097   2.040  0.1495  0.1240 -0.0255
    2TTP    C18 8418   9.943   7.160   2.107  0.0501  0.1609  0.1012
    2TTP    C32 8419  10.033   7.507   2.227 -0.1664 -0.5759 -0.3998
    2TTP    C33 8420   9.962   7.611   2.149 -0.1437 -0.3095 -0.2698
    2TTP    C34 8421   9.988   7.747   2.210  0.6150 -0.3460  0.2341
    2TTP    C35 8422   9.883   7.843   2.149  0.6213 -0.4413  0.3164
    2TTP    C36 8423   9.911   7.988   2.183  0.0430  0.2374  0.5974
    2TTP    C37 8424   9.807   8.084   2.122 -0.0172  0.3770  0.5026
    2TTP    C38 8425   9.829   8.234   2.146 -0.5172  0.2107 -0.7235
    2TTP    C39 8426   9.711   8.324   2.097 -0.6936 -0.5143  0.5029
    2TTP    C40 8427   9.696   8.351   1.947 -0.2515  0.3804 -0.1678
    2TTP    C41 8428   9.553   8.408   1.917 -0.6404 -0.1143  0.4804
    2TTP    C42 8429   9.519   8.417   1.765  0.2976  0.1708 -0.6121
    3TTP     S1 8430   9.229   6.765   1.707  0.1301 -0.0127 -0.0108
    3TTP     S5 8431   9.466   6.407   1.727 -0.2377 -0.2398  0.3023
    3TTP     C1 8432   9.304   6.366   1.655 -0.1786 -0.0828  0.0776
    3TTP     C2 8433   9.221   6.474   1.645 -0.0622 -0.0035 -0.0323
    3TTP     C3 8434   9.283   6.593   1.693 -0.0143 -0.0637  0.0570
    3TTP     C4 8435   9.390   6.807   1.779  0.0713 -0.1696  0.2140
    3TTP    C17 8436   9.473   6.699   1.789 -0.0455 -0.2491  0.3239
    3TTP    C18 8437   9.412   6.579   1.741 -0.0930 -0.1888  0.2346
    3TTP    C32 8438   9.080   6.492   1.596  0.3244  0.1732 -0.3166
    3TTP    C33 8439   9.074   6.490   1.446  0.5403  0.3179  0.1813
    3TTP    C34 8440   8.940   6.527   1.390  0.8805  0.1444 -0.4226
    3TTP    C35 8441   8.889   6.672   1.406 -0.2045  0.2281  0.1371
    3TTP    C36 8442   8.761   6.701   1.336  0.3110  0.6405 -0.0173
    3TTP    C37 8443   8.764   6.683   1.181  0.1680 -0.1141  0.8748
    3TTP    C38 8444   8.625   6.701   1.114 -0.1455  0.7240 -0.2443
    3TTP    C39 8445   8.544   6.833   1.122  0.1777 -0.1346  0.0633
    3TTP    C40 8446   8.407   6.805   1.057  0.2151  0.5307  0.3650
    3TTP    C41 8447   8.302   6.908   1.062 -0.4615 -0.3068 -0.1811
    3TTP    C42 8448   8.184   6.866   0.974  0.2860 -0.4600 -0.1133
    4BIM     F1 8449  10.841   6.927   2.496 -0.3987 -0.3973  0.2589
    4BIM     F2 8450  10.913   7.171   2.595  0.0389 -0.2872 -0.3176
    4BIM     O1 8451  10.359   7.044   2.279 -0.4386 -0.1726  0.4668
    4BIM     N5 8452  10.672   7.603   2.583  0.6394  0.0318 -0.9980
    4BIM     N6 8453  10.281   7.645   2.394  0.5200  0.1853 -0.7192
    4BIM    C19 8454  10.256   7.317   2.297 -0.0348  0.0125 -0.0099
    4BIM    C20 8455  10.375   7.279   2.347 -0.0418 -0.0483 -0.0397
    4BIM    C21 8456  10.421   7.136   2.334 -0.2558 -0.1422  0.2157
    4BIM    C22 8457  10.553   7.128   2.400 -0.2048 -0.1903  0.1082
    4BIM    C23 8458  10.634   7.017   2.413 -0.3505 -0.2793  0.2655
    4BIM    C24 8459  10.755   7.034   2.480 -0.2639 -0.3100  0.1166
    4BIM    C25 8460  10.792   7.159   2.531 -0.0384 -0.2530 -0.1804
    4BIM    C26 8461  10.711   7.271   2.518  0.1078 -0.1643 -0.3387
    4BIM    C27 8462  10.588   7.256   2.451  0.0232 -0.1318 -0.1916
    4BIM    C28 8463  10.480   7.353   2.421  0.1324 -0.0423 -0.2943
    4BIM    C29 8464  10.479   7.486   2.454  0.3527  0.0319 -0.5723
    4BIM    C30 8465  10.585   7.550   2.525  0.5096  0.0317 -0.8054
    4BIM    C31 8466  10.370   7.573   2.421  0.4435  0.1158 -0.6515
    5BIM     F1 8467   9.612   5.603   1.665  0.0138  0.1674  0.2434
    5BIM     F2 8468   9.364   5.509   1.605  0.1154  0.0997 -0.0770
    5BIM     O1 8469   9.519   6.136   1.684 -0.1769  0.1349  0.2191
    5BIM     N5 8470   8.940   5.754   1.533  0.1264 -0.0207 -0.5549
    5BIM     N6 8471   8.917   6.190   1.560 -0.0432 -0.0324 -0.5093
    5BIM    C19 8472   9.248   6.236   1.634 -0.1471  0.0588 -0.0956
    5BIM    C20 8473   9.281   6.105   1.631 -0.1030  0.0697 -0.0769
    5BIM    C21 8474   9.423   6.061   1.658 -0.1221  0.1094  0.0888
    5BIM    C22 8475   9.424   5.914   1.648 -0.0634  0.1116  0.0654
    5BIM    C23 8476   9.532   5.829   1.665 -0.0570  0.1425  0.1840
    5BIM    C24 8477   9.509   5.693   1.650  0.0038  0.1378  0.1325
    5BIM    C25 8478   9.381   5.645   1.619  0.0565  0.1028 -0.0326
    5BIM    C26 8479   9.272   5.730   1.602  0.0503  0.0718 -0.1515
    5BIM    C27 8480   9.294   5.868   1.617 -0.0107  0.0761 -0.1018
    5BIM    C28 8481   9.201   5.983   1.606 -0.0334  0.0490 -0.1959
    5BIM    C29 8482   9.067   5.977   1.577  0.0038  0.0117 -0.3615
    5BIM    C30 8483   8.997   5.855   1.553  0.0710 -0.0060 -0.4673
    5BIM    C31 8484   8.985   6.094   1.568 -0.0224 -0.0123 -0.4418
    1BTD     S2 8485   1.910   5.974   7.723 -0.3066 -0.0571  0.1236
    1BTD     N1 8486   1.747   5.900   7.736 -0.2724 -0.0913  0.3630
    1BTD     N2 8487   1.996   5.833   7.793 -0.1455 -0.1405 -0.2384
    1BTD     N3 8488   1.877   5.410   7.959  0.2444 -0.3724 -0.5440
    1BTD     N4 8489   1.570   5.493   7.889  0.0882 -0.3117  0.1974
    1BTD     C5 8490   1.658   5.686   7.817 -0.0823 -0.2072  0.2675
    1BTD     C6 8491   1.764   5.780   7.789 -0.1491 -0.1597  0.1707
    1BTD     C7 8492   1.903   5.742   7.821 -0.0781 -0.1872 -0.1659
    1BTD     C8 8493   1.930   5.613   7.879  0.0562 -0.2609 -0.3890
    1BTD    C15 8494   1.823   5.525   7.904  0.1176 -0.3054 -0.2833
    1BTD    C16 8495   1.689   5.561   7.874  0.0492 -0.2789  0.0409
    1BTD    C43 8496   1.542   5.347   7.874 -0.3542  0.3207  0.2460
    1BTD    C44 8497   1.418   5.273   7.925  0.7022  0.1247 -0.5092
    1BTD    C45 8498   1.389   5.148   7.838  0.2096  0.4180 -0.0378
    1BTD    C46 8499   1.485   5.026   7.847 -0.0514  0.2428 -0.5082
    1BTD    C47 8500   1.405   5.268   8.076 -0.5510 -0.1873 -0.4920
    1BTD    C48 8501   1.290   5.188   8.135  0.3492 -0.6045  0.1183
    1BTD    C49 8502   1.273   5.188   8.289  0.2792  0.1901  0.2155
    1BTD    C50 8503   1.154   5.105   8.330 -0.0401  0.0990  0.4620
    1BTD    C75 8504   1.800   5.335   8.060  0.2863 -0.6659 -0.2319
    1BTD    C76 8505   1.831   5.192   8.092 -0.1686  0.3754 -0.3941
    1BTD    C77 8506   1.744   5.138   8.209  0.8435 -0.6132  0.6762
    1BTD    C78 8507   1.741   5.206   8.349  0.7560  0.0158  0.3924
    1BTD    C79 8508   1.816   5.111   7.966  0.8111  0.3666  0.6821
    1BTD    C80 8509   1.834   4.955   7.965 -0.2876 -0.3752 -0.9256
    1BTD    C81 8510   1.960   4.901   8.018  0.1306  0.2914 -0.4276
    1BTD    C82 8511   1.969   4.750   8.020  0.1038  0.7470  0.3257
    2TTP     S1 8512   1.397   5.820   7.761 -0.0148  0.0333 -0.1646
    2TTP     S5 8513   1.190   5.490   7.943  0.0348  0.0881 -0.0091
    2TTP     C1 8514   1.071   5.624   7.913  0.0372  0.1000  0.0333
    2TTP     C2 8515   1.128   5.734   7.855  0.0220  0.0837 -0.0122
    2TTP     C3 8516   1.268   5.716   7.832  0.0079  0.0614 -0.0823
    2TTP     C4 8517   1.517   5.686   7.791 -0.0172  0.0215 -0.2071
    2TTP    C17 8518   1.460   5.577   7.849 -0.0020  0.0377 -0.1613
    2TTP    C18 8519   1.320   5.594   7.872  0.0121  0.0601 -0.0913
    2TTP    C32 8520   1.062   5.859   7.801  0.7984 -0.3865  0.5634
    2TTP    C33 8521   1.043   5.864   7.646  0.4457 -0.6873 -0.0163
    2TTP    C34 8522   0.992   5.997   7.585  0.4599  0.6540 -0.4005
    2TTP    C35 8523   0.988   5.997   7.437 -0.1494  0.1264  0.5529
    2TTP    C36 8524   0.934   6.110   7.360  1.0012 -0.4869 -0.4077
    2TTP    C37 8525   0.785   6.154   7.389  0.1498 -0.1019 -0.0285
    2TTP    C38 8526   0.675   6.044   7.363 -0.1188 -0.0737  0.4648
    2TTP    C39 8527   0.540   6.107   7.378  0.3722 -0.3185 -0.0343
    2TTP    C40 8528   0.428   6.004   7.354 -0.6768  0.2710 -0.2245
    2TTP    C41 8529   0.282   6.040   7.350 -0.3781 -0.0534 -0.3189
    2TTP    C42 8530   0.237   6.137   7.245 -0.3165  0.0951  0.1244
    3TTP     S1 8531   2.233   5.581   7.908 -0.0478 -0.0216 -0.1404
    3TTP     S5 8532   2.166   5.183   8.056 -0.0888  0.1255  0.2377
    3TTP     C1 8533   2.345   5.215   8.055 -0.0790  0.0670  0.1046
    3TTP     C2 8534   2.376   5.340   8.009 -0.0657  0.0180 -0.0203
    3TTP     C3 8535   2.260   5.414   7.973 -0.0629  0.0252 -0.0149
    3TTP     C4 8536   2.054   5.548   7.909 -0.0577  0.0368 -0.0070
    3TTP    C17 8537   2.023   5.424   7.955 -0.0709  0.0859  0.1177
    3TTP    C18 8538   2.139   5.349   7.991 -0.0737  0.0788  0.1123
    3TTP    C32 8539   2.512   5.402   7.986  0.0391 -0.4313 -0.1284
    3TTP    C33 8540   2.555   5.488   8.105 -0.4550 -0.5105  0.1186
    3TTP    C34 8541   2.679   5.578   8.076  0.1528 -0.1764  0.0613
    3TTP    C35 8542   2.726   5.644   8.202  0.8199 -0.0906  0.6572
    3TTP    C36 8543   2.864   5.707   8.187  0.4812 -0.3779  0.4557
    3TTP    C37 8544   2.916   5.792   8.306  0.0662  0.4397 -0.3414
    3TTP    C38 8545   2.865   5.933   8.341  0.2487 -0.6072  0.8175
    3TTP    C39 8546   2.858   6.028   8.222  0.0128  0.0971 -0.2014
    3TTP    C40 8547   2.812   6.169   8.262 -0.2046 -0.0164 -0.2898
    3TTP    C41 8548   2.776   6.255   8.144 -0.5614 -0.1455  0.5478
    3TTP    C42 8549   2.684   6.368   8.189 -0.1453 -0.4504 -0.6363
    4BIM     F1 8550   0.598   5.073   8.301 -0.2965 -0.0352 -0.2623
    4BIM     F2 8551   0.432   5.276   8.372 -0.2294 -0.0625 -0.0241
    4BIM     O1 8552   0.964   5.338   8.003 -0.2296  0.1876  0.0174
    4BIM     N5 8553   0.453   5.758   8.261 -0.0854  0.0571  0.5171
    4BIM     N6 8554   0.772   5.924   8.014 -0.0466  0.2367  0.6874
    4BIM    C19 8555   0.935   5.627   7.965 -0.1418  0.2407  0.3440
    4BIM    C20 8556   0.849   5.552   8.037 -0.1612  0.1857  0.2644
    4BIM    C21 8557   0.871   5.404   8.052 -0.2064  0.1614  0.0966
    4BIM    C22 8558   0.760   5.354   8.136 -0.2176  0.1011  0.0463
    4BIM    C23 8559   0.738   5.223   8.178 -0.2562  0.0612 -0.1001
    4BIM    C24 8560   0.626   5.200   8.257 -0.2592  0.0064 -0.1204
    4BIM    C25 8561   0.541   5.305   8.293 -0.2246 -0.0074  0.0026
    4BIM    C26 8562   0.563   5.436   8.252 -0.1861  0.0321  0.1488
    4BIM    C27 8563   0.675   5.461   8.172 -0.1823  0.0877  0.1714
    4BIM    C28 8564   0.726   5.587   8.112 -0.1463  0.1392  0.3102
    4BIM    C29 8565   0.670   5.712   8.125 -0.1068  0.1429  0.4539
    4BIM    C30 8566   0.551   5.737   8.199 -0.0951  0.0957  0.4883
    4BIM    C31 8567   0.727   5.828   8.064 -0.0739  0.1944  0.5817
    5BIM     F1 8568   2.404   4.393   8.112  0.0882 -0.0610 -0.0598
    5BIM     F2 8569   2.618   4.427   8.278  0.0550 -0.0745 -0.0136
    5BIM     O1 8570   2.288   4.908   7.989 -0.0601 -0.0371  0.1792
    5BIM     N5 8571   2.841   4.842   8.428 -0.0982 -0.0768  0.2227
    5BIM     N6 8572   2.707   5.237   8.299 -0.2074 -0.0554  0.4001
    5BIM    C19 8573   2.450   5.122   8.104 -0.1444 -0.0416  0.3080
    5BIM    C20 8574   2.471   4.992   8.128 -0.1058 -0.0470  0.2458
    5BIM    C21 8575   2.383   4.887   8.066 -0.0638 -0.0442  0.1819
    5BIM    C22 8576   2.433   4.757   8.113 -0.0283 -0.0516  0.1245
    5BIM    C23 8577   2.384   4.630   8.082  0.0164 -0.0522  0.0548
    5BIM    C24 8578   2.448   4.521   8.138  0.0436 -0.0598  0.0096
    5BIM    C25 8579   2.558   4.539   8.224  0.0265 -0.0669  0.0333
    5BIM    C26 8580   2.608   4.665   8.255 -0.0181 -0.0664  0.1025
    5BIM    C27 8581   2.544   4.776   8.199 -0.0463 -0.0587  0.1495
    5BIM    C28 8582   2.572   4.921   8.211 -0.0945 -0.0560  0.2253
    5BIM    C29 8583   2.671   4.979   8.286 -0.1232 -0.0609  0.2675
    5BIM    C30 8584   2.764   4.904   8.364 -0.1094 -0.0697  0.2429
    5BIM    C31 8585   2.690   5.121   8.293 -0.1693 -0.0578  0.3402
    1BTD     S2 8586   3.805   7.198   7.512 -0.3574 -0.1315 -0.0010
    1BTD     N1 8587   3.980   7.197   7.555 -0.4520 -0.1203  0.3906
    1BTD     N2 8588   3.798   7.022   7.476 -0.1749 -0.0603 -0.3982
    1BTD     N3 8589   4.098   6.661   7.480  0.0261  0.1053 -0.5000
    1BTD     N4 8590   4.322   6.876   7.578 -0.3150  0.0315  0.4719
    1BTD     C5 8591   4.156   7.027   7.566 -0.3763 -0.0402  0.4214
    1BTD     C6 8592   4.022   7.072   7.541 -0.3480 -0.0668  0.2145
    1BTD     C7 8593   3.920   6.974   7.497 -0.1930 -0.0331 -0.2271
    1BTD     C8 8594   3.957   6.836   7.480 -0.0740  0.0253 -0.4398
    1BTD    C15 8595   4.090   6.797   7.505 -0.1069  0.0496 -0.2244
    1BTD    C16 8596   4.188   6.891   7.547 -0.2564  0.0171  0.2009
    1BTD    C43 8597   4.405   6.760   7.531 -0.5692  0.4022  0.2250
    1BTD    C44 8598   4.539   6.715   7.604  0.6802  0.6610  0.3951
    1BTD    C45 8599   4.607   6.614   7.521 -0.6101  0.0448  0.0793
    1BTD    C46 8600   4.658   6.647   7.376 -0.5286 -0.1374  0.4341
    1BTD    C47 8601   4.496   6.674   7.743  0.1559 -0.7661 -0.1859
    1BTD    C48 8602   4.593   6.594   7.836  0.1196 -0.6366 -0.4502
    1BTD    C49 8603   4.546   6.585   7.976  0.2597  0.2358  0.2757
    1BTD    C50 8604   4.644   6.510   8.062  0.4476 -0.4437 -0.8567
    1BTD    C75 8605   4.157   6.566   7.584 -0.0777 -0.5737  0.1010
    1BTD    C76 8606   4.219   6.429   7.556  0.4492  0.3656  0.5648
    1BTD    C77 8607   4.262   6.345   7.678  0.6039  0.2432 -0.2889
    1BTD    C78 8608   4.178   6.335   7.803 -0.1871  0.0504  0.0549
    1BTD    C79 8609   4.305   6.427   7.427 -0.0765 -0.3907 -0.4276
    1BTD    C80 8610   4.346   6.295   7.363  0.0798 -0.1497  0.1365
    1BTD    C81 8611   4.430   6.313   7.240  0.3149  0.1411 -0.3116
    1BTD    C82 8612   4.430   6.188   7.156  0.1204  0.4378 -0.3930
    2TTP     S1 8613   4.319   7.249   7.698 -0.0914  0.0052 -0.1042
    2TTP     S5 8614   4.656   6.984   7.723 -0.1844 -0.0830  0.2217
    2TTP     C1 8615   4.698   7.139   7.807 -0.0849  0.0533 -0.0779
    2TTP     C2 8616   4.597   7.230   7.804 -0.0502  0.0885 -0.1961
    2TTP     C3 8617   4.482   7.181   7.736 -0.1011  0.0091 -0.0545
    2TTP     C4 8618   4.276   7.094   7.614 -0.1909 -0.1308  0.1954
    2TTP    C17 8619   4.378   7.003   7.617 -0.2255 -0.1663  0.3136
    2TTP    C18 8620   4.493   7.052   7.685 -0.1748 -0.0870  0.1720
    2TTP    C32 8621   4.583   7.362   7.870  0.2616 -0.0948 -0.5031
    2TTP    C33 8622   4.560   7.484   7.780  0.3145 -0.2779  0.8140
    2TTP    C34 8623   4.528   7.619   7.843  0.4569  0.8530 -0.7883
    2TTP    C35 8624   4.630   7.683   7.941  0.0255 -0.2412 -0.4437
    2TTP    C36 8625   4.598   7.834   7.970  0.4888  0.3663 -0.2468
    2TTP    C37 8626   4.631   7.900   8.111  0.1308  0.0661  0.3441
    2TTP    C38 8627   4.559   7.847   8.233 -0.7475 -0.2132  0.5353
    2TTP    C39 8628   4.614   7.883   8.372 -0.0175  0.1850 -0.0680
    2TTP    C40 8629   4.759   7.852   8.406 -0.3259  0.1675  0.2282
    2TTP    C41 8630   4.793   7.701   8.400 -0.6270 -0.3034  0.3977
    2TTP    C42 8631   4.940   7.677   8.421 -0.2086 -0.3475  0.8447
    3TTP     S1 8632   3.720   6.680   7.387  0.2322 -0.0588 -0.2943
    3TTP     S5 8633   3.971   6.334   7.336  0.2360 -0.0668 -0.2213
    3TTP     C1 8634   3.806   6.296   7.268  0.3047 -0.0024 -0.4242
    3TTP     C2 8635   3.719   6.401   7.280  0.3076  0.0037 -0.4590
    3TTP     C3 8636   3.779   6.514   7.343  0.2555 -0.0420 -0.3262
    3TTP     C4 8637   3.885   6.717   7.455  0.1635 -0.1231 -0.0912
    3TTP    C17 8638   3.972   6.612   7.443  0.1606 -0.1291 -0.0567
    3TTP    C18 8639   3.912   6.499   7.380  0.2126 -0.0834 -0.1893
    3TTP    C32 8640   3.572   6.418   7.236 -0.2247  0.3591 -0.1506
    3TTP    C33 8641   3.561   6.521   7.119 -0.0498  0.1373  0.3915
    3TTP    C34 8642   3.608   6.465   6.988 -1.2229  0.2266 -0.2654
    3TTP    C35 8643   3.562   6.340   6.922  0.4358 -0.3616  0.3968
    3TTP    C36 8644   3.406   6.329   6.890 -0.4129  0.1064 -0.4816
    3TTP    C37 8645   3.371   6.184   6.866 -0.5999  0.1189 -0.5201
    3TTP    C38 8646   3.232   6.156   6.815 -0.3055  0.3479 -0.9380
    3TTP    C39 8647   3.189   6.213   6.681  0.4135  0.7388 -0.1859
    3TTP    C40 8648   3.051   6.178   6.632  0.4631 -0.2570  0.0377
    3TTP    C41 8649   3.014   6.239   6.498 -0.4249 -0.0152  0.1033
    3TTP    C42 8650   2.886   6.207   6.435  0.3576 -0.3698 -0.0421
    4BIM     F1 8651   5.347   6.726   8.081  0.0216  0.0885 -0.2952
    4BIM     F2 8652   5.466   6.962   8.144  0.0591  0.0795 -0.3309
    4BIM     O1 8653   4.875   6.898   7.878 -0.0892  0.1194 -0.0117
    4BIM     N5 8654   5.300   7.426   8.090  0.0342  0.0885 -0.1805
    4BIM     N6 8655   4.908   7.513   7.919 -0.0598  0.1147  0.0484
    4BIM    C19 8656   4.822   7.186   7.866 -0.0927  0.1219  0.0549
    4BIM    C20 8657   4.935   7.133   7.915 -0.0662  0.1144 -0.0150
    4BIM    C21 8658   4.956   6.984   7.918 -0.0663  0.1137 -0.0453
    4BIM    C22 8659   5.089   6.961   7.976 -0.0341  0.1048 -0.1223
    4BIM    C23 8660   5.152   6.839   7.999 -0.0228  0.1010 -0.1725
    4BIM    C24 8661   5.279   6.843   8.056  0.0086  0.0925 -0.2428
    4BIM    C25 8662   5.340   6.965   8.088  0.0281  0.0878 -0.2607
    4BIM    C26 8663   5.278   7.087   8.065  0.0168  0.0916 -0.2108
    4BIM    C27 8664   5.149   7.085   8.008 -0.0149  0.1001 -0.1400
    4BIM    C28 8665   5.057   7.196   7.972 -0.0339  0.1059 -0.0746
    4BIM    C29 8666   5.081   7.331   7.988 -0.0235  0.1037 -0.0706
    4BIM    C30 8667   5.201   7.382   8.044  0.0081  0.0955 -0.1309
    4BIM    C31 8668   4.986   7.430   7.950 -0.0436  0.1097 -0.0051
    5BIM     F1 8669   4.232   5.661   6.968 -0.0966  0.0186 -0.0725
    5BIM     F2 8670   4.000   5.518   6.958 -0.1136  0.0408  0.0087
    5BIM     O1 8671   4.051   6.136   7.155  0.0407 -0.0173  0.1506
    5BIM     N5 8672   3.539   5.651   7.078 -0.0404  0.0472  0.2843
    5BIM     N6 8673   3.445   6.051   7.227  0.0703  0.0148  0.4424
    5BIM    C19 8674   3.766   6.168   7.213  0.0731 -0.0088  0.3073
    5BIM    C20 8675   3.820   6.054   7.166  0.0392 -0.0006  0.2480
    5BIM    C21 8676   3.968   6.045   7.139  0.0244 -0.0056  0.1692
    5BIM    C22 8677   3.993   5.909   7.089 -0.0128  0.0056  0.1187
    5BIM    C23 8678   4.115   5.854   7.051 -0.0373  0.0058  0.0404
    5BIM    C24 8679   4.115   5.722   7.007 -0.0710  0.0179  0.0050
    5BIM    C25 8680   3.995   5.648   7.002 -0.0798  0.0292  0.0468
    5BIM    C26 8681   3.873   5.703   7.040 -0.0554  0.0292  0.1249
    5BIM    C27 8682   3.872   5.836   7.085 -0.0212  0.0172  0.1619
    5BIM    C28 8683   3.761   5.922   7.132  0.0105  0.0138  0.2429
    5BIM    C29 8684   3.628   5.887   7.142  0.0126  0.0223  0.3023
    5BIM    C30 8685   3.580   5.757   7.107 -0.0165  0.0359  0.2922
    5BIM    C31 8686   3.528   5.977   7.189  0.0444  0.0181  0.3790
    1BTD     S2 8687   2.086   2.178   2.629  0.0649 -0.1470 -0.0450
    1BTD     N1 8688   2.135   2.019   2.697  0.0625 -0.1362 -0.0183
    1BTD     N2 8689   1.926   2.120   2.570 -0.0045 -0.1137  0.1094
    1BTD     N3 8690   1.690   1.714   2.573 -0.1504 -0.0265  0.4724
    1BTD     N4 8691   1.947   1.590   2.730 -0.0677 -0.0542  0.3149
    1BTD     C5 8692   2.034   1.797   2.712 -0.0065 -0.0930  0.1575
    1BTD     C6 8693   2.035   1.935   2.673  0.0127 -0.1098  0.0983
    1BTD     C7 8694   1.918   1.992   2.602 -0.0249 -0.0972  0.1698
    1BTD     C8 8695   1.806   1.907   2.573 -0.0797 -0.0685  0.2970
    1BTD    C15 8696   1.809   1.772   2.613 -0.0967 -0.0530  0.3512
    1BTD    C16 8697   1.922   1.717   2.682 -0.0605 -0.0651  0.2823
    1BTD    C43 8698   1.904   1.460   2.673  0.4439  0.0325  0.5115
    1BTD    C44 8699   1.998   1.403   2.565  0.3760  0.1190 -0.3127
    1BTD    C45 8700   1.965   1.256   2.526 -0.8117 -0.6672  0.0915
    1BTD    C46 8701   1.970   1.162   2.646 -0.0021  0.5119  0.1907
    1BTD    C47 8702   2.024   1.509   2.456  0.5594  0.3332  0.3204
    1BTD    C48 8703   2.137   1.474   2.360  0.3231 -0.3789  0.1842
    1BTD    C49 8704   2.089   1.407   2.229 -0.7696 -0.0086  0.0738
    1BTD    C50 8705   2.047   1.501   2.121  0.8738  0.2239 -0.1369
    1BTD    C75 8706   1.628   1.597   2.630  0.2021  0.2223  0.1633
    1BTD    C76 8707   1.541   1.494   2.553 -0.0993  0.9585  0.4809
    1BTD    C77 8708   1.609   1.409   2.434  0.4972 -0.8123 -0.1921
    1BTD    C78 8709   1.651   1.496   2.320 -0.5898  0.3835  0.7744
    1BTD    C79 8710   1.480   1.396   2.655 -0.3684 -0.3605 -0.8076
    1BTD    C80 8711   1.376   1.291   2.606 -0.3339 -0.2575 -0.4284
    1BTD    C81 8712   1.253   1.335   2.527 -0.0284 -0.5395  0.3087
    1BTD    C82 8713   1.150   1.231   2.508 -0.1712  0.7294 -0.0511
    2TTP     S1 8714   2.291   1.723   2.858 -0.0678  0.0567  0.0059
    2TTP     S5 8715   2.128   1.333   2.935 -0.0253  0.0749  0.1888
    2TTP     C1 8716   2.291   1.345   3.015  0.1216  0.0135 -0.0974
    2TTP     C2 8717   2.351   1.466   2.996  0.1172  0.0043 -0.1708
    2TTP     C3 8718   2.270   1.554   2.918 -0.0025  0.0454 -0.0035
    2TTP     C4 8719   2.128   1.712   2.778 -0.2148  0.1182  0.2922
    2TTP    C17 8720   2.068   1.590   2.797 -0.2103  0.1274  0.3655
    2TTP    C18 8721   2.149   1.502   2.875 -0.0908  0.0863  0.1982
    2TTP    C32 8722   2.486   1.518   3.049  0.4049  0.0926 -0.1317
    2TTP    C33 8723   2.613   1.491   2.955 -0.2799  0.0138 -0.1961
    2TTP    C34 8724   2.746   1.544   3.006  0.4560  0.1556 -0.1279
    2TTP    C35 8725   2.751   1.690   3.057 -0.5067 -0.2123 -0.2185
    2TTP    C36 8726   2.881   1.705   3.136 -0.3015 -0.6341  0.2814
    2TTP    C37 8727   2.896   1.832   3.220  0.4462  0.0858 -0.1953
    2TTP    C38 8728   2.798   1.848   3.337  0.0806  1.0855  0.3246
    2TTP    C39 8729   2.814   1.966   3.427  0.0045  0.3271 -0.0222
    2TTP    C40 8730   2.765   1.945   3.568  0.3875 -0.0627 -0.0130
    2TTP    C41 8731   2.702   2.070   3.626  0.5178 -0.0672  0.2449
    2TTP    C42 8732   2.647   2.066   3.768  0.0206 -0.2381 -0.0416
    3TTP     S1 8733   1.600   2.067   2.433  0.0558 -0.2601 -0.0859
    3TTP     S5 8734   1.338   1.726   2.425 -0.2865 -0.0005  0.0606
    3TTP     C1 8735   1.250   1.869   2.355 -0.0889  0.0200 -0.1488
    3TTP     C2 8736   1.325   1.983   2.353  0.0285 -0.0589 -0.2065
    3TTP     C3 8737   1.456   1.961   2.407 -0.0335 -0.1385 -0.0872
    3TTP     C4 8738   1.689   1.924   2.503 -0.1419 -0.2806  0.1235
    3TTP    C17 8739   1.613   1.811   2.505 -0.2592 -0.2017  0.1811
    3TTP    C18 8740   1.482   1.832   2.451 -0.1972 -0.1221  0.0619
    3TTP    C32 8741   1.282   2.117   2.293  0.0835  0.8601  0.1275
    3TTP    C33 8742   1.330   2.147   2.153 -0.8828  0.2043  0.7391
    3TTP    C34 8743   1.285   2.287   2.088 -0.1530  0.4999 -0.4489
    3TTP    C35 8744   1.387   2.368   2.005 -0.5827  0.2542  0.2047
    3TTP    C36 8745   1.526   2.401   2.074  0.6447 -0.3370  0.3188
    3TTP    C37 8746   1.510   2.504   2.182 -0.0879  0.4063 -0.4988
    3TTP    C38 8747   1.642   2.499   2.257  0.1573  0.4232 -0.5437
    3TTP    C39 8748   1.670   2.606   2.361 -0.7854  0.8453 -0.0268
    3TTP    C40 8749   1.583   2.614   2.479  0.0145 -0.2687 -0.4412
    3TTP    C41 8750   1.629   2.705   2.592 -1.0515  0.5068 -0.8450
    3TTP    C42 8751   1.755   2.658   2.665  0.1067 -0.3694 -0.9304
    4BIM     F1 8752   2.241   0.529   3.044  0.4570  0.0952 -0.6504
    4BIM     F2 8753   2.460   0.527   3.206 -0.1026  0.2525  0.1177
    4BIM     O1 8754   2.182   1.060   2.958  0.3616  0.0542 -0.8395
    4BIM     N5 8755   2.732   0.903   3.378 -0.9753  0.4494  1.0873
    4BIM     N6 8756   2.641   1.319   3.278 -0.9370  0.3856  0.7846
    4BIM    C19 8757   2.369   1.247   3.083 -0.2069  0.1898 -0.1728
    4BIM    C20 8758   2.376   1.113   3.098 -0.1611  0.1940 -0.1553
    4BIM    C21 8759   2.276   1.024   3.031  0.1376  0.1217 -0.5106
    4BIM    C22 8760   2.312   0.886   3.068  0.1105  0.1469 -0.3904
    4BIM    C23 8761   2.248   0.768   3.030  0.3294  0.1005 -0.6195
    4BIM    C24 8762   2.300   0.649   3.078  0.2514  0.1376 -0.4408
    4BIM    C25 8763   2.412   0.648   3.161 -0.0372  0.2187 -0.0451
    4BIM    C26 8764   2.477   0.765   3.200 -0.2566  0.2653  0.1854
    4BIM    C27 8765   2.425   0.887   3.152 -0.1819  0.2288  0.0097
    4BIM    C28 8766   2.469   1.027   3.174 -0.3602  0.2610  0.1698
    4BIM    C29 8767   2.576   1.068   3.250 -0.6537  0.3381  0.5472
    4BIM    C30 8768   2.661   0.977   3.320 -0.8295  0.3990  0.8429
    4BIM    C31 8769   2.611   1.206   3.265 -0.8078  0.3637  0.6757
    5BIM     F1 8770   0.620   1.361   2.490  0.4602 -0.0359  0.0776
    5BIM     F2 8771   0.474   1.498   2.305  0.3812 -0.2606 -0.0270
    5BIM     O1 8772   1.079   1.648   2.492  0.1661  0.4366  0.1148
    5BIM     N5 8773   0.592   1.899   2.041  0.0581 -0.2468 -0.1509
    5BIM     N6 8774   0.980   2.096   2.079 -0.1557  0.1677 -0.1007
    5BIM    C19 8775   1.103   1.881   2.316 -0.0137  0.3898  0.0281
    5BIM    C20 8776   0.993   1.803   2.323  0.0633  0.2798  0.0228
    5BIM    C21 8777   0.988   1.685   2.416  0.1533  0.3125  0.0693
    5BIM    C22 8778   0.855   1.623   2.398  0.2223  0.1691  0.0499
    5BIM    C23 8779   0.805   1.511   2.463  0.3156  0.1432  0.0785
    5BIM    C24 8780   0.676   1.471   2.430  0.3674 -0.0024  0.0517
    5BIM    C25 8781   0.601   1.542   2.335  0.3266 -0.1180 -0.0023
    5BIM    C26 8782   0.651   1.654   2.269  0.2336 -0.0931 -0.0311
    5BIM    C27 8783   0.781   1.696   2.302  0.1800  0.0537 -0.0045
    5BIM    C28 8784   0.863   1.809   2.252  0.0807  0.1172 -0.0233
    5BIM    C29 8785   0.825   1.902   2.157  0.0170  0.0399 -0.0739
    5BIM    C30 8786   0.697   1.900   2.093  0.0399 -0.1175 -0.1161
    5BIM    C31 8787   0.911   2.008   2.115 -0.0776  0.1106 -0.0883
    1BTD     S2 8788   2.923   2.846   5.228 -0.0174 -0.0989  0.0560
    1BTD     N1 8789   3.031   2.988   5.207 -0.0187 -0.1329 -0.1938
    1BTD     N2 8790   3.052   2.738   5.290 -0.0083  0.0008  0.2110
    1BTD     N3 8791   3.512   2.774   5.381  0.0073  0.1427  0.0759
    1BTD     N4 8792   3.486   3.082   5.279 -0.0055 -0.0219 -0.4231
    1BTD     C5 8793   3.269   3.033   5.246 -0.0116 -0.0730 -0.3074
    1BTD     C6 8794   3.152   2.950   5.246 -0.0128 -0.0712 -0.1510
    1BTD     C7 8795   3.164   2.810   5.293 -0.0070  0.0036  0.0757
    1BTD     C8 8796   3.292   2.760   5.336 -0.0004  0.0729  0.1346
    1BTD    C15 8797   3.403   2.846   5.334  0.0006  0.0685 -0.0240
    1BTD    C16 8798   3.392   2.981   5.290 -0.0051 -0.0036 -0.2426
    1BTD    C43 8799   3.629   3.065   5.251  0.1185 -0.1843 -0.3412
    1BTD    C44 8800   3.733   3.172   5.296  0.4439  0.3123 -0.2837
    1BTD    C45 8801   3.875   3.154   5.239 -0.1967 -0.0686 -0.0110
    1BTD    C46 8802   3.890   3.183   5.089 -0.0518  0.4904  0.7894
    1BTD    C47 8803   3.731   3.200   5.446  0.4747  0.1760  0.0475
    1BTD    C48 8804   3.810   3.318   5.502  0.6471 -0.5699  0.4992
    1BTD    C49 8805   3.757   3.456   5.458  0.3094 -0.1216 -0.3329
    1BTD    C50 8806   3.856   3.561   5.511 -0.1384 -0.2414 -0.3225
    1BTD    C75 8807   3.622   2.824   5.466  0.1745 -0.3125  0.8109
    1BTD    C76 8808   3.761   2.773   5.455 -0.3694 -0.0081 -0.3738
    1BTD    C77 8809   3.834   2.757   5.324  0.9063  0.0076  0.5935
    1BTD    C78 8810   3.973   2.693   5.321  0.1232 -0.1105  0.2774
    1BTD    C79 8811   3.853   2.810   5.573  0.4537 -0.0896 -0.4827
    1BTD    C80 8812   3.912   2.947   5.585  0.1671  0.1267 -0.2496
    1BTD    C81 8813   3.987   2.965   5.707 -0.0735 -0.5426 -0.7373
    1BTD    C82 8814   4.050   3.100   5.701 -0.0435  0.1304 -0.0552
    2TTP     S1 8815   3.203   3.298   5.109  0.0432  0.0885 -0.0983
    2TTP     S5 8816   3.606   3.432   5.171  0.0116  0.1400 -0.0027
    2TTP     C1 8817   3.515   3.562   5.083  0.0655  0.0534 -0.1879
    2TTP     C2 8818   3.385   3.528   5.058  0.0785  0.0325 -0.2283
    2TTP     C3 8819   3.353   3.398   5.108  0.0463  0.0840 -0.1144
    2TTP     C4 8820   3.294   3.167   5.197 -0.0107  0.1751  0.0868
    2TTP    C17 8821   3.424   3.201   5.221 -0.0237  0.1960  0.1272
    2TTP    C18 8822   3.456   3.331   5.171  0.0085  0.1445  0.0135
    2TTP    C32 8823   3.279   3.621   4.996  0.2893 -1.0562 -0.0786
    2TTP    C33 8824   3.193   3.551   4.889 -0.6173  0.1391  0.6913
    2TTP    C34 8825   3.081   3.634   4.819  0.4477 -0.1383 -0.5366
    2TTP    C35 8826   2.985   3.718   4.911  0.5698  0.3184 -0.6629
    2TTP    C36 8827   2.869   3.784   4.838 -0.3708  0.2938 -0.4023
    2TTP    C37 8828   2.879   3.930   4.795  0.1760  0.7301 -0.0543
    2TTP    C38 8829   2.902   4.024   4.912  0.8846 -0.0172  0.2875
    2TTP    C39 8830   2.955   4.154   4.861 -0.6686  0.1812 -0.0300
    2TTP    C40 8831   2.973   4.267   4.961  0.0353 -0.2290  0.5807
    2TTP    C41 8832   3.048   4.384   4.914 -0.0772  0.2693 -0.1954
    2TTP    C42 8833   3.048   4.489   5.020 -0.2658  0.8495 -0.9957
    3TTP     S1 8834   3.272   2.464   5.394 -0.1011 -0.1081  0.0335
    3TTP     S5 8835   3.693   2.456   5.478 -0.0936 -0.0381  0.0033
    3TTP     C1 8836   3.628   2.286   5.493 -0.0602 -0.0527 -0.0138
    3TTP     C2 8837   3.494   2.279   5.468 -0.0605 -0.0751 -0.0055
    3TTP     C3 8838   3.438   2.407   5.436 -0.0871 -0.0816  0.0148
    3TTP     C4 8839   3.337   2.633   5.379 -0.1345 -0.0936  0.0508
    3TTP    C17 8840   3.471   2.640   5.404 -0.1341 -0.0711  0.0424
    3TTP    C18 8841   3.527   2.513   5.436 -0.1075 -0.0646  0.0223
    3TTP    C32 8842   3.398   2.166   5.479  0.5308 -0.5375  0.6212
    3TTP    C33 8843   3.320   2.113   5.357 -0.6329 -0.4691 -0.1601
    3TTP    C34 8844   3.225   2.010   5.386  0.4405  0.5328 -0.7021
    3TTP    C35 8845   3.079   2.031   5.434 -0.3257  0.1768 -0.0718
    3TTP    C36 8846   2.992   1.908   5.452 -0.1634  0.2924 -0.5185
    3TTP    C37 8847   2.845   1.940   5.469 -0.1214  0.4739  0.6442
    3TTP    C38 8848   2.752   1.816   5.474 -0.2284 -0.0138  0.1493
    3TTP    C39 8849   2.605   1.862   5.481  0.0036 -0.5228 -0.0460
    3TTP    C40 8850   2.503   1.752   5.506 -0.1137  0.2781 -0.4973
    3TTP    C41 8851   2.530   1.658   5.626  0.0328  0.1582 -0.0130
    3TTP    C42 8852   2.416   1.568   5.662  0.3637 -0.3084 -0.1749
    4BIM     F1 8853   4.235   3.959   5.138 -0.0762 -0.2429  0.1948
    4BIM     F2 8854   4.119   4.173   5.015 -0.0420 -0.1713  0.2866
    4BIM     O1 8855   3.820   3.611   5.152 -0.0754 -0.2580 -0.1389
    4BIM     N5 8856   3.657   4.231   4.848  0.0079 -0.0788  0.1810
    4BIM     N6 8857   3.356   3.916   4.884  0.0017 -0.1048 -0.0980
    4BIM    C19 8858   3.562   3.692   5.039 -0.0423 -0.1947 -0.1694
    4BIM    C20 8859   3.671   3.771   5.041 -0.0439 -0.1937 -0.0890
    4BIM    C21 8860   3.800   3.723   5.101 -0.0613 -0.2273 -0.0787
    4BIM    C22 8861   3.897   3.833   5.085 -0.0584 -0.2168  0.0163
    4BIM    C23 8862   4.030   3.835   5.126 -0.0706 -0.2388  0.0582
    4BIM    C24 8863   4.102   3.950   5.101 -0.0648 -0.2228  0.1491
    4BIM    C25 8864   4.043   4.060   5.037 -0.0471 -0.1858  0.1963
    4BIM    C26 8865   3.910   4.059   4.997 -0.0348 -0.1637  0.1551
    4BIM    C27 8866   3.835   3.942   5.021 -0.0405 -0.1795  0.0631
    4BIM    C28 8867   3.694   3.909   4.991 -0.0309 -0.1639  0.0001
    4BIM    C29 8868   3.602   3.990   4.929 -0.0134 -0.1283  0.0207
    4BIM    C30 8869   3.632   4.122   4.885 -0.0017 -0.1012  0.1087
    4BIM    C31 8870   3.467   3.949   4.905 -0.0051 -0.1156 -0.0448
    5BIM     F1 8871   4.281   2.184   5.980  0.2053 -0.0142 -0.1100
    5BIM     F2 8872   4.270   1.917   5.929  0.1429  0.0059 -0.2024
    5BIM     O1 8873   3.859   2.362   5.691  0.0646  0.1459  0.1940
    5BIM     N5 8874   3.952   1.660   5.650 -0.0470  0.1489 -0.1185
    5BIM     N6 8875   3.624   1.853   5.435 -0.1445  0.2699  0.1377
    5BIM    C19 8876   3.698   2.170   5.540 -0.0450  0.2218  0.2137
    5BIM    C20 8877   3.805   2.136   5.615 -0.0073  0.1808  0.1409
    5BIM    C21 8878   3.882   2.240   5.690  0.0483  0.1434  0.1355
    5BIM    C22 8879   3.991   2.169   5.760  0.0790  0.1037  0.0482
    5BIM    C23 8880   4.089   2.224   5.842  0.1323  0.0609  0.0132
    5BIM    C24 8881   4.182   2.137   5.897  0.1528  0.0287 -0.0713
    5BIM    C25 8882   4.175   1.999   5.871  0.1206  0.0392 -0.1188
    5BIM    C26 8883   4.078   1.944   5.789  0.0674  0.0817 -0.0844
    5BIM    C27 8884   3.983   2.031   5.732  0.0459  0.1149  0.0011
    5BIM    C28 8885   3.868   2.005   5.642 -0.0083  0.1626  0.0563
    5BIM    C29 8886   3.829   1.882   5.593 -0.0513  0.1856  0.0331
    5BIM    C30 8887   3.897   1.760   5.624 -0.0488  0.1653 -0.0503
    5BIM    C31 8888   3.717   1.867   5.506 -0.1023  0.2319  0.0908
    1BTD     S2 8889   8.564   1.736   7.334 -0.0858 -0.0933  0.0750
    1BTD     N1 8890   8.506   1.567   7.347  0.1364 -0.2117 -0.4383
    1BTD     N2 8891   8.729   1.700   7.395 -0.2062  0.0446  0.4936
    1BTD     N3 8892   8.962   1.320   7.541 -0.0496  0.1118  0.4207
    1BTD     N4 8893   8.687   1.155   7.483  0.3724 -0.2039 -0.7277
    1BTD     C5 8894   8.604   1.354   7.419  0.2546 -0.2038 -0.5754
    1BTD     C6 8895   8.608   1.495   7.394  0.1109 -0.1457 -0.2793
    1BTD     C7 8896   8.732   1.570   7.420 -0.0808 -0.0023  0.2425
    1BTD     C8 8897   8.847   1.500   7.471 -0.1194  0.0759  0.4417
    1BTD    C15 8898   8.839   1.361   7.494  0.0254  0.0148  0.1378
    1BTD    C16 8899   8.718   1.289   7.468  0.2103 -0.1234 -0.3649
    1BTD    C43 8900   8.783   1.047   7.459 -0.1600  0.0989 -0.6578
    1BTD    C44 8901   8.766   0.910   7.523 -0.3983  0.3293 -0.0985
    1BTD    C45 8902   8.759   0.908   7.683 -0.6818 -0.4199  0.3067
    1BTD    C46 8903   8.692   0.796   7.754  0.8299  0.3717  0.1763
    1BTD    C47 8904   8.871   0.813   7.477  0.3671 -0.1989  0.8088
    1BTD    C48 8905   8.856   0.779   7.327  0.5636  0.4143 -0.5000
    1BTD    C49 8906   8.977   0.713   7.256  0.0973  0.2599 -0.3938
    1BTD    C50 8907   9.005   0.574   7.305 -0.2225  0.0579  0.3660
    1BTD    C75 8908   8.985   1.207   7.641  0.1332 -0.0393  0.3063
    1BTD    C76 8909   9.119   1.131   7.670  0.3154 -0.2800  0.1710
    1BTD    C77 8910   9.177   1.072   7.540 -0.2909  0.0192 -0.0605
    1BTD    C78 8911   9.303   0.998   7.543 -0.0725  0.2031 -0.0505
    1BTD    C79 8912   9.118   1.048   7.799  0.2411  0.9129  0.4858
    1BTD    C80 8913   9.087   1.129   7.927 -0.0257 -0.1108  0.6575
    1BTD    C81 8914   9.087   1.056   8.056 -0.0727 -0.3754  0.7031
    1BTD    C82 8915   9.057   1.141   8.174 -0.2318  0.2224  0.3822
    2TTP     S1 8916   8.321   1.241   7.363  0.0679  0.0676  0.0666
    2TTP     S5 8917   8.452   0.862   7.519  0.1545 -0.0199 -0.2173
    2TTP     C1 8918   8.276   0.849   7.474  0.1418 -0.0086 -0.1715
    2TTP     C2 8919   8.226   0.965   7.424  0.1144  0.0190 -0.0812
    2TTP     C3 8920   8.324   1.069   7.418  0.1023  0.0324 -0.0448
    2TTP     C4 8921   8.497   1.255   7.408  0.0803  0.0564  0.0210
    2TTP    C17 8922   8.548   1.139   7.459  0.1078  0.0287 -0.0695
    2TTP    C18 8923   8.450   1.035   7.464  0.1199  0.0154 -0.1057
    2TTP    C32 8924   8.079   0.994   7.371  0.6916  0.8826  0.5595
    2TTP    C33 8925   7.986   1.070   7.462 -0.1219  0.6690 -0.1276
    2TTP    C34 8926   7.846   1.074   7.405  0.0789 -0.5780  0.2159
    2TTP    C35 8927   7.763   0.946   7.386 -0.2815  0.1166  0.2667
    2TTP    C36 8928   7.612   0.971   7.366 -0.2783  0.6219 -0.0774
    2TTP    C37 8929   7.539   0.834   7.356  0.0115 -0.4418  0.6749
    2TTP    C38 8930   7.393   0.849   7.310 -0.2331  0.0483  0.1958
    2TTP    C39 8931   7.320   0.715   7.309 -0.1137 -0.4807  0.2559
    2TTP    C40 8932   7.212   0.714   7.200  0.5266  0.1397 -0.4379
    2TTP    C41 8933   7.117   0.588   7.206 -0.3951  0.3310  0.5026
    2TTP    C42 8934   6.998   0.598   7.107  0.3810 -0.4930 -0.7133
    3TTP     S1 8935   9.076   1.688   7.488 -0.1702  0.0179 -0.1311
    3TTP     S5 8936   9.332   1.365   7.610 -0.1307  0.0786 -0.0530
    3TTP     C1 8937   9.433   1.516   7.594 -0.1017  0.0282 -0.3434
    3TTP     C2 8938   9.359   1.624   7.555 -0.1116  0.0065 -0.3847
    3TTP     C3 8939   9.221   1.592   7.537 -0.1435  0.0289 -0.1884
    3TTP     C4 8940   8.975   1.537   7.504 -0.1993  0.0683  0.1594
    3TTP    C17 8941   9.048   1.429   7.543 -0.1889  0.0901  0.2007
    3TTP    C18 8942   9.187   1.461   7.561 -0.1574  0.0677  0.0044
    3TTP    C32 8943   9.399   1.775   7.543  0.1939  0.4170  0.6862
    3TTP    C33 8944   9.347   1.873   7.654 -0.3940  0.0282 -0.1315
    3TTP    C34 8945   9.389   1.854   7.801 -0.0300 -0.8933  0.4231
    3TTP    C35 8946   9.536   1.830   7.827 -0.3137 -0.3534 -0.0286
    3TTP    C36 8947   9.570   1.819   7.972 -0.2510 -0.6532  0.2587
    3TTP    C37 8948   9.692   1.728   7.999  0.6590  0.2490  0.3457
    3TTP    C38 8949   9.723   1.710   8.145  1.3611 -0.2577 -0.0257
    3TTP    C39 8950   9.816   1.591   8.189 -0.1892  0.7766 -0.1215
    3TTP    C40 8951   9.761   1.448   8.167  0.0375 -0.3004  0.2759
    3TTP    C41 8952   9.649   1.397   8.253  0.6181  0.1127  0.0659
    3TTP    C42 8953   9.604   1.258   8.213 -0.0072 -0.1466 -0.1694
    4BIM     F1 8954   8.285   0.228   8.010  0.0196 -0.2218 -0.0701
    4BIM     F2 8955   8.096   0.103   7.859 -0.1433 -0.0880  0.0228
    4BIM     O1 8956   8.349   0.688   7.731 -0.0727 -0.0993  0.1112
    4BIM     N5 8957   7.869   0.251   7.445 -0.4430  0.1916  0.2854
    4BIM     N6 8958   7.957   0.636   7.258 -0.4818  0.2604  0.4083
    4BIM    C19 8959   8.191   0.732   7.489 -0.2605  0.0720  0.2643
    4BIM    C20 8960   8.182   0.621   7.565 -0.2313  0.0360  0.2152
    4BIM    C21 8961   8.267   0.606   7.688 -0.1333 -0.0524  0.1373
    4BIM    C22 8962   8.233   0.475   7.746 -0.1249 -0.0718  0.0989
    4BIM    C23 8963   8.285   0.416   7.861 -0.0467 -0.1463  0.0257
    4BIM    C24 8964   8.237   0.291   7.897 -0.0551 -0.1500  0.0016
    4BIM    C25 8965   8.140   0.227   7.819 -0.1392 -0.0810  0.0497
    4BIM    C26 8966   8.087   0.284   7.705 -0.2172 -0.0064  0.1225
    4BIM    C27 8967   8.134   0.411   7.667 -0.2098 -0.0015  0.1481
    4BIM    C28 8968   8.099   0.499   7.552 -0.2787  0.0675  0.2213
    4BIM    C29 8969   8.007   0.471   7.454 -0.3691  0.1455  0.2831
    4BIM    C30 8970   7.932   0.350   7.449 -0.4095  0.1706  0.2841
    4BIM    C31 8971   7.980   0.562   7.347 -0.4305  0.2083  0.3517
    5BIM     F1 8972   9.968   1.040   7.995  0.1510  0.1060  0.1221
    5BIM     F2 8973  10.167   1.206   7.912  0.2251 -0.3141 -0.5561
    5BIM     O1 8974   9.535   1.285   7.779  0.0527  0.4168  0.6685
    5BIM     N5 8975  10.146   1.619   7.639  0.2615 -0.6967 -1.1414
    5BIM     N6 8976   9.767   1.776   7.488  0.1698 -0.3692 -0.5778
    5BIM    C19 8977   9.572   1.530   7.624  0.0886  0.1258  0.2146
    5BIM    C20 8978   9.673   1.462   7.681  0.1104  0.0640  0.1036
    5BIM    C21 8979   9.646   1.337   7.760  0.0898  0.2230  0.3526
    5BIM    C22 8980   9.777   1.289   7.808  0.1222  0.1034  0.1479
    5BIM    C23 8981   9.803   1.176   7.885  0.1179  0.1826  0.2660
    5BIM    C24 8982   9.935   1.150   7.919  0.1530  0.0384  0.0232
    5BIM    C25 8983  10.038   1.236   7.876  0.1912 -0.1779 -0.3261
    5BIM    C26 8984  10.013   1.349   7.799  0.1957 -0.2581 -0.4455
    5BIM    C27 8985   9.879   1.376   7.764  0.1604 -0.1146 -0.2035
    5BIM    C28 8986   9.820   1.486   7.684  0.1547 -0.1473 -0.2446
    5BIM    C29 8987   9.887   1.590   7.625  0.1848 -0.3374 -0.5476
    5BIM    C30 8988  10.029   1.605   7.633  0.2269 -0.5343 -0.8732
    5BIM    C31 8989   9.821   1.692   7.550  0.1764 -0.3537 -0.5624
    1BTD     S2 8990   8.224   9.436   0.382  0.2463  0.0819 -0.0258
    1BTD     N1 8991   8.077   9.333   0.397  0.3467 -0.0939 -0.2433
    1BTD     N2 8992   8.146   9.558   0.275  0.1156  0.2558  0.2648
    1BTD     N3 8993   7.722   9.620   0.083  0.0308  0.2933  0.4641
    1BTD     N4 8994   7.637   9.343   0.233  0.3154 -0.1378 -0.1620
    1BTD     C5 8995   7.848   9.342   0.309  0.3269 -0.1116 -0.1933
    1BTD     C6 8996   7.982   9.392   0.325  0.2809 -0.0179 -0.0958
    1BTD     C7 8997   8.021   9.518   0.257  0.1516  0.1779  0.1886
    1BTD     C8 8998   7.923   9.587   0.177  0.0747  0.2699  0.3613
    1BTD    C15 8999   7.793   9.534   0.165  0.1236  0.1725  0.2571
    1BTD    C16 9000   7.756   9.413   0.230  0.2482 -0.0160 -0.0169
    1BTD    C43 9001   7.542   9.339   0.120  0.4116 -0.3765 -0.5445
    1BTD    C44 9002   7.388   9.309   0.117 -0.9826 -0.3746 -0.4716
    1BTD    C45 9003   7.337   9.289  -0.024  0.3076  0.2379 -0.1315
    1BTD    C46 9004   7.404   9.173  -0.108  0.1472 -0.2933  0.0999
    1BTD    C47 9005   7.309   9.410   0.193  0.1790 -0.4260  0.1814
    1BTD    C48 9006   7.164   9.379   0.230  0.8835 -0.1138  0.4976
    1BTD    C49 9007   7.127   9.239   0.283 -0.2918 -0.1964 -0.1735
    1BTD    C50 9008   6.977   9.231   0.321 -0.4651  0.3215  0.2556
    1BTD    C75 9009   7.580   9.657   0.109 -0.5859 -0.3627 -0.9017
    1BTD    C76 9010   7.492   9.719   0.002 -0.1432 -0.0743 -0.0813
    1BTD    C77 9011   7.371   9.784   0.068  0.0261  0.4503 -0.0254
    1BTD    C78 9012   7.340   9.915  -0.005  0.4917 -0.0416 -0.0028
    1BTD    C79 9013   7.471   9.628  -0.122  0.7692  0.4250  0.2556
    1BTD    C80 9014   7.395   9.665  -0.250  0.2216  0.0494  0.3287
    1BTD    C81 9015   7.246   9.626  -0.228 -0.2129 -0.8058  0.5320
    1BTD    C82 9016   7.159   9.696  -0.342  0.0247 -0.1182  0.0879
    2TTP     S1 9017   7.819   9.075   0.456  0.0897 -0.0976 -0.0279
    2TTP     S5 9018   7.418   9.046   0.304  0.0116  0.3934  0.0815
    2TTP     C1 9019   7.458   8.891   0.391 -0.0819  0.2644 -0.1014
    2TTP     C2 9020   7.584   8.891   0.443 -0.0631  0.1051 -0.1460
    2TTP     C3 9021   7.654   9.013   0.416  0.0255  0.0794 -0.0373
    2TTP     C4 9022   7.779   9.229   0.368  0.1832  0.0317  0.1550
    2TTP    C17 9023   7.653   9.229   0.316  0.1644  0.1907  0.1996
    2TTP    C18 9024   7.583   9.107   0.343  0.0756  0.2165  0.0909
    2TTP    C32 9025   7.654   8.792   0.529 -0.5585  0.3502 -0.1982
    2TTP    C33 9026   7.696   8.835   0.672  0.0200 -0.3725  0.8246
    2TTP    C34 9027   7.781   8.736   0.750  0.0783  0.3337 -0.0044
    2TTP    C35 9028   7.712   8.603   0.796 -0.0166  0.1633  0.4464
    2TTP    C36 9029   7.794   8.513   0.887 -0.2402  0.8307  0.0788
    2TTP    C37 9030   7.936   8.480   0.834  0.1175 -0.3752  0.1752
    2TTP    C38 9031   8.011   8.363   0.891  0.1204  0.0119  0.2166
    2TTP    C39 9032   8.145   8.324   0.831 -0.0069  0.6057 -0.5048
    2TTP    C40 9033   8.204   8.193   0.888 -0.0215 -0.1797  0.5938
    2TTP    C41 9034   8.354   8.179   0.882  0.0727  0.0963 -0.4059
    2TTP    C42 9035   8.404   8.043   0.917 -0.1072  0.2421 -0.8426
    3TTP     S1 9036   8.048   9.837   0.071 -0.0950 -0.1286 -0.0429
    3TTP     S5 9037   7.694   9.908  -0.164 -0.2204  0.1961  0.2427
    3TTP     C1 9038   7.812  10.043  -0.195 -0.2211  0.2179  0.3344
    3TTP     C2 9039   7.929  10.029  -0.125 -0.1822  0.1189  0.2518
    3TTP     C3 9040   7.928   9.911  -0.043 -0.1509  0.0223  0.1128
    3TTP     C4 9041   7.930   9.703   0.102 -0.0947 -0.1504 -0.1347
    3TTP    C17 9042   7.814   9.717   0.031 -0.1335 -0.0514 -0.0519
    3TTP    C18 9043   7.814   9.834  -0.050 -0.1647  0.0452  0.0870
    3TTP    C32 9044   8.039  10.132  -0.112 -0.3557 -0.3839 -0.1987
    3TTP    C33 9045   8.067  10.196   0.031  0.4187  0.7139  0.0803
    3TTP    C34 9046   8.170  10.311   0.033  0.3254  0.9463  0.2595
    3TTP    C35 9047   8.296  10.282  -0.042 -0.6191 -0.0363  0.7095
    3TTP    C36 9048   8.394  10.401  -0.048  0.0247 -0.1285  0.8139
    3TTP    C37 9049   8.546  10.366  -0.075  0.3705 -0.1322  0.1095
    3TTP    C38 9050   8.641  10.487  -0.094  0.1320  0.8712 -1.0769
    3TTP    C39 9051   8.781  10.450  -0.144  0.5052 -0.4938  0.4258
    3TTP    C40 9052   8.882  10.569  -0.119 -0.0890 -0.8032 -0.2300
    3TTP    C41 9053   9.023  10.546  -0.170 -0.4716  0.6675 -0.4061
    3TTP    C42 9054   9.134  10.620  -0.103  0.0542 -0.3440  0.6840
    4BIM     F1 9055   6.699   8.661   0.169  0.1225 -0.2010  0.0237
    4BIM     F2 9056   6.762   8.406   0.241  0.1915 -0.1223  0.2455
    4BIM     O1 9057   7.161   8.918   0.288  0.0323  0.0381 -0.1410
    4BIM     N5 9058   7.181   8.223   0.430  0.2259  0.1619  0.4471
    4BIM     N6 9059   7.529   8.475   0.508  0.1416  0.3331  0.2737
    4BIM    C19 9060   7.385   8.766   0.399  0.0661  0.1989  0.0124
    4BIM    C20 9061   7.266   8.711   0.367  0.0861  0.1357  0.0452
    4BIM    C21 9062   7.156   8.796   0.310  0.0666  0.0548 -0.0387
    4BIM    C22 9063   7.042   8.706   0.286  0.0967  0.0000  0.0246
    4BIM    C23 9064   6.917   8.739   0.234  0.0924 -0.0813 -0.0171
    4BIM    C24 9065   6.825   8.636   0.220  0.1246 -0.1205  0.0592
    4BIM    C25 9066   6.857   8.505   0.257  0.1600 -0.0801  0.1735
    4BIM    C26 9067   6.982   8.471   0.309  0.1646  0.0012  0.2157
    4BIM    C27 9068   7.076   8.574   0.324  0.1321  0.0422  0.1397
    4BIM    C28 9069   7.216   8.572   0.375  0.1270  0.1271  0.1569
    4BIM    C29 9070   7.284   8.462   0.421  0.1550  0.1862  0.2572
    4BIM    C30 9071   7.227   8.331   0.426  0.1938  0.1726  0.3613
    4BIM    C31 9072   7.419   8.470   0.469  0.1475  0.2668  0.2657
    5BIM     F1 9073   7.331  10.126  -0.847  0.0539 -0.0210  0.1700
    5BIM     F2 9074   7.361  10.396  -0.828  0.3363 -0.0335 -0.0870
    5BIM     O1 9075   7.652   9.959  -0.445 -0.1093  0.0253  0.3195
    5BIM     N5 9076   7.633  10.665  -0.515  0.6260 -0.0185 -0.3498
    5BIM     N6 9077   7.878  10.480  -0.204  0.4417  0.0202 -0.1810
    5BIM    C19 9078   7.795  10.158  -0.284  0.1026  0.0298  0.1272
    5BIM    C20 9079   7.713  10.189  -0.386  0.1327  0.0187  0.0997
    5BIM    C21 9080   7.643  10.081  -0.464  0.0180  0.0171  0.2038
    5BIM    C22 9081   7.563  10.150  -0.567  0.0864  0.0039  0.1411
    5BIM    C23 9082   7.481  10.092  -0.663  0.0230 -0.0020  0.1988
    5BIM    C24 9083   7.414  10.177  -0.750  0.1097 -0.0146  0.1194
    5BIM    C25 9084   7.430  10.316  -0.740  0.2550 -0.0210 -0.0128
    5BIM    C26 9085   7.511  10.375  -0.644  0.3190 -0.0152 -0.0706
    5BIM    C27 9086   7.580  10.290  -0.555  0.2331 -0.0025  0.0079
    5BIM    C28 9087   7.673  10.320  -0.444  0.2671  0.0064 -0.0229
    5BIM    C29 9088   7.714  10.444  -0.402  0.3986  0.0037 -0.1426
    5BIM    C30 9089   7.669  10.565  -0.464  0.5231 -0.0085 -0.2558
    5BIM    C31 9090   7.804  10.463  -0.293  0.4215  0.0128 -0.1628
    1BTD     S2 9091   2.156   5.368   6.174  0.1380  0.1132  0.3201
    1BTD     N1 9092   1.979   5.334   6.175  0.1517  0.0331  0.0685
    1BTD     N2 9093   2.203   5.199   6.215  0.1581  0.1259  0.3486
    1BTD     N3 9094   1.981   4.794   6.298  0.2241  0.0073 -0.0470
    1BTD     N4 9095   1.705   4.960   6.249  0.2162 -0.1068 -0.3921
    1BTD     C5 9096   1.840   5.137   6.214  0.1855 -0.0386 -0.1677
    1BTD     C6 9097   1.966   5.205   6.203  0.1697  0.0207  0.0213
    1BTD     C7 9098   2.091   5.130   6.226  0.1732  0.0725  0.1781
    1BTD     C8 9099   2.084   4.990   6.258  0.1924  0.0627  0.1379
    1BTD    C15 9100   1.958   4.927   6.267  0.2075  0.0037 -0.0494
    1BTD    C16 9101   1.838   5.000   6.245  0.2040 -0.0462 -0.2004
    1BTD    C43 9102   1.641   4.862   6.344  0.2042  0.3440 -0.0206
    1BTD    C44 9103   1.535   4.773   6.301 -0.2721  0.6397  0.4290
    1BTD    C45 9104   1.578   4.708   6.172 -0.1142 -0.1215 -0.0672
    1BTD    C46 9105   1.508   4.590   6.103 -0.5969  0.3151 -0.2707
    1BTD    C47 9106   1.510   4.690   6.426  0.5146 -0.0533 -0.2049
    1BTD    C48 9107   1.382   4.619   6.445 -0.2900 -0.1531 -0.4074
    1BTD    C49 9108   1.267   4.711   6.430  0.2399  0.0684  0.6056
    1BTD    C50 9109   1.129   4.660   6.473  0.2595  0.2881 -0.2131
    1BTD    C75 9110   1.888   4.676   6.289  0.2463  0.0453  0.3634
    1BTD    C76 9111   1.882   4.551   6.383  0.0733  0.1569  0.3327
    1BTD    C77 9112   1.911   4.590   6.531  0.3161  0.3253 -0.0588
    1BTD    C78 9113   1.805   4.661   6.617  0.6994  0.1925 -0.3509
    1BTD    C79 9114   1.765   4.458   6.348  0.3215  0.6863 -0.3480
    1BTD    C80 9115   1.774   4.319   6.420  0.2783  0.1375  0.0488
    1BTD    C81 9116   1.666   4.228   6.372  0.4833  0.3803  0.0429
    1BTD    C82 9117   1.690   4.082   6.427  0.0248 -0.0844 -0.0352
    2TTP     S1 9118   1.614   5.333   6.169  0.1842  0.0148  0.2114
    2TTP     S5 9119   1.334   5.008   6.206 -0.0201  0.1029 -0.5352
    2TTP     C1 9120   1.241   5.162   6.178  0.0940  0.1656 -0.5706
    2TTP     C2 9121   1.322   5.271   6.165  0.1639  0.1421 -0.3422
    2TTP     C3 9122   1.461   5.237   6.177  0.1297  0.0738 -0.1310
    2TTP     C4 9123   1.707   5.179   6.198  0.0701 -0.0479  0.2469
    2TTP    C17 9124   1.626   5.070   6.211  0.0003 -0.0244  0.0184
    2TTP    C18 9125   1.488   5.103   6.199  0.0344  0.0439 -0.1928
    2TTP    C32 9126   1.287   5.423   6.143  0.0362  0.0951  0.1549
    2TTP    C33 9127   1.144   5.471   6.089 -0.3840 -0.2799  0.3471
    2TTP    C34 9128   1.147   5.626   6.079 -0.4308 -0.2583  0.1638
    2TTP    C35 9129   1.209   5.688   5.954 -0.9747  0.0849 -0.2974
    2TTP    C36 9130   1.276   5.822   5.979  0.0944 -0.1575 -0.0075
    2TTP    C37 9131   1.347   5.882   5.858 -0.7839  0.1744 -0.2366
    2TTP    C38 9132   1.341   6.039   5.857 -0.4406 -0.1491 -0.0224
    2TTP    C39 9133   1.400   6.114   5.735 -0.3292 -0.4986  0.9518
    2TTP    C40 9134   1.329   6.113   5.598 -0.2407  0.0659 -0.3118
    2TTP    C41 9135   1.396   6.192   5.485  0.5063 -0.5990 -0.0598
    2TTP    C42 9136   1.330   6.168   5.352  0.4155  0.1684  0.5692
    3TTP     S1 9137   2.362   4.878   6.288 -0.1542 -0.0813 -0.0828
    3TTP     S5 9138   2.204   4.484   6.355 -0.2817  0.0055  0.1302
    3TTP     C1 9139   2.386   4.474   6.353 -0.2835 -0.0438  0.2004
    3TTP     C2 9140   2.445   4.595   6.332 -0.2443 -0.0736  0.1388
    3TTP     C3 9141   2.350   4.700   6.317 -0.2112 -0.0585  0.0340
    3TTP     C4 9142   2.180   4.888   6.290 -0.1524 -0.0319 -0.1531
    3TTP    C17 9143   2.121   4.767   6.311 -0.1916 -0.0024 -0.0914
    3TTP    C18 9144   2.217   4.662   6.326 -0.2245 -0.0173  0.0135
    3TTP    C32 9145   2.596   4.629   6.327  0.2802  0.5952  0.2439
    3TTP    C33 9146   2.656   4.743   6.404  0.4130 -0.3396 -0.2796
    3TTP    C34 9147   2.798   4.773   6.373 -0.4551 -0.2571  0.3433
    3TTP    C35 9148   2.903   4.668   6.422 -0.4993 -0.4438  0.1150
    3TTP    C36 9149   3.052   4.696   6.384  0.1538 -0.1941 -0.1993
    3TTP    C37 9150   3.151   4.597   6.442 -0.2539  0.2319  0.0226
    3TTP    C38 9151   3.140   4.456   6.389 -0.2503  0.5922 -0.9432
    3TTP    C39 9152   3.253   4.367   6.445  0.4824  0.4004  0.5412
    3TTP    C40 9153   3.238   4.216   6.418  0.5364  0.6209  0.1693
    3TTP    C41 9154   3.135   4.148   6.511 -0.9243  0.4525 -0.1020
    3TTP    C42 9155   3.095   4.005   6.454  0.3219  0.2604  0.0940
    4BIM     F1 9156   0.678   4.603   5.967 -0.0188  0.1185 -0.3427
    4BIM     F2 9157   0.486   4.765   6.071 -0.0692  0.0176 -0.2784
    4BIM     O1 9158   1.120   4.906   6.044 -0.0643  0.0708  0.1100
    4BIM     N5 9159   0.524   5.214   6.275 -0.1743 -0.1613  0.1369
    4BIM     N6 9160   0.908   5.418   6.315 -0.1996 -0.1781  0.4776
    4BIM    C19 9161   1.093   5.169   6.171 -0.1287 -0.0423  0.3324
    4BIM    C20 9162   0.990   5.086   6.147 -0.1152 -0.0265  0.2160
    4BIM    C21 9163   1.011   4.952   6.082 -0.0820  0.0325  0.1065
    4BIM    C22 9164   0.879   4.889   6.071 -0.0749  0.0354 -0.0051
    4BIM    C23 9165   0.848   4.764   6.018 -0.0469  0.0819 -0.1286
    4BIM    C24 9166   0.715   4.725   6.019 -0.0457  0.0746 -0.2187
    4BIM    C25 9167   0.616   4.809   6.072 -0.0717  0.0224 -0.1853
    4BIM    C26 9168   0.646   4.933   6.126 -0.0997 -0.0237 -0.0622
    4BIM    C27 9169   0.780   4.975   6.126 -0.1014 -0.0173  0.0300
    4BIM    C28 9170   0.844   5.099   6.175 -0.1272 -0.0573  0.1674
    4BIM    C29 9171   0.781   5.206   6.234 -0.1566 -0.1128  0.2363
    4BIM    C30 9172   0.640   5.210   6.256 -0.1663 -0.1392  0.1814
    4BIM    C31 9173   0.851   5.322   6.278 -0.1801 -0.1484  0.3686
    5BIM     F1 9174   2.199   3.700   6.187  0.0411 -0.1277 -0.2650
    5BIM     F2 9175   2.421   3.624   6.324 -0.3286 -0.1495  0.3279
    5BIM     O1 9176   2.239   4.239   6.219  0.2949 -0.1243 -0.6281
    5BIM     N5 9177   2.769   3.899   6.545 -0.6791 -0.1783  0.9212
    5BIM     N6 9178   2.755   4.335   6.542 -0.4063 -0.1712  0.5180
    5BIM    C19 9179   2.465   4.358   6.361  0.0319 -0.1438 -0.1907
    5BIM    C20 9180   2.447   4.225   6.348 -0.0174 -0.1439 -0.1224
    5BIM    C21 9181   2.328   4.172   6.273  0.1258 -0.1334 -0.3597
    5BIM    C22 9182   2.338   4.025   6.278  0.0256 -0.1364 -0.2104
    5BIM    C23 9183   2.251   3.932   6.222  0.0998 -0.1295 -0.3390
    5BIM    C24 9184   2.281   3.798   6.239 -0.0228 -0.1341 -0.1526
    5BIM    C25 9185   2.396   3.759   6.310 -0.2131 -0.1453  0.1530
    5BIM    C26 9186   2.483   3.851   6.366 -0.2880 -0.1522  0.2825
    5BIM    C27 9187   2.454   3.987   6.349 -0.1662 -0.1476  0.0974
    5BIM    C28 9188   2.525   4.109   6.396 -0.2003 -0.1528  0.1634
    5BIM    C29 9189   2.642   4.113   6.468 -0.3690 -0.1636  0.4375
    5BIM    C30 9190   2.711   3.995   6.510 -0.5389 -0.1716  0.7026
    5BIM    C31 9191   2.704   4.235   6.508 -0.3886 -0.1676  0.4802
    1BTD     S2 9192   9.273   3.456   1.644  0.2454  0.0656 -0.0523
    1BTD     N1 9193   9.238   3.567   1.507  0.0358  0.0668  0.0015
    1BTD     N2 9194   9.221   3.308   1.555  0.4478  0.0209 -0.0964
    1BTD     N3 9195   9.053   3.208   1.128  0.4818 -0.0681 -0.0889
    1BTD     N4 9196   9.074   3.527   1.069 -0.0260 -0.0114  0.0317
    1BTD     C5 9197   9.152   3.542   1.279  0.0098  0.0253  0.0158
    1BTD     C6 9198   9.192   3.492   1.408  0.1230  0.0354 -0.0153
    1BTD     C7 9199   9.183   3.347   1.435  0.3536  0.0098 -0.0701
    1BTD     C8 9200   9.134   3.259   1.332  0.4594 -0.0249 -0.0911
    1BTD    C15 9201   9.096   3.313   1.207  0.3419 -0.0337 -0.0592
    1BTD    C16 9202   9.105   3.453   1.181  0.1199 -0.0089 -0.0064
    1BTD    C43 9203   8.978   3.493   0.960  0.6026 -0.2581 -0.7585
    1BTD    C44 9204   8.986   3.550   0.815 -0.6561 -0.3196 -0.6101
    1BTD    C45 9205   8.847   3.546   0.756 -0.2539  0.3221 -0.0545
    1BTD    C46 9206   8.814   3.624   0.637  0.0588  0.0747  0.0566
    1BTD    C47 9207   9.103   3.498   0.727 -0.2328  0.0979 -0.1907
    1BTD    C48 9208   9.249   3.470   0.781  0.5928 -0.2596  0.6177
    1BTD    C49 9209   9.344   3.402   0.677  0.3688 -0.0936 -0.9308
    1BTD    C50 9210   9.473   3.373   0.747 -0.5184 -0.4831  0.1495
    1BTD    C75 9211   9.097   3.193   0.982  0.6769  0.2469 -0.3812
    1BTD    C76 9212   9.017   3.105   0.880 -0.1387  0.3801  0.0399
    1BTD    C77 9213   9.081   3.102   0.738  0.1845 -0.1987 -0.2533
    1BTD    C78 9214   9.222   3.047   0.716 -0.4721  0.3360  0.1469
    1BTD    C79 9215   8.872   3.145   0.887 -0.1136 -0.6921 -0.7972
    1BTD    C80 9216   8.782   3.043   0.820 -0.1764 -0.1869 -0.1035
    1BTD    C81 9217   8.641   3.099   0.810  0.0267  0.5425  0.8171
    1BTD    C82 9218   8.555   2.984   0.751  0.4178 -0.1178  0.1147
    2TTP     S1 9219   9.214   3.843   1.263 -0.0722  0.0773  0.1531
    2TTP     S5 9220   9.058   3.847   0.863  0.1829 -0.1673  0.0501
    2TTP     C1 9221   9.116   4.014   0.904  0.2094 -0.1558 -0.0355
    2TTP     C2 9222   9.168   4.023   1.030  0.1323 -0.0795 -0.0087
    2TTP     C3 9223   9.163   3.898   1.099  0.0491 -0.0275  0.0803
    2TTP     C4 9224   9.155   3.676   1.222 -0.0987  0.0656  0.2386
    2TTP    C17 9225   9.103   3.667   1.096 -0.0217 -0.0105  0.2118
    2TTP    C18 9226   9.108   3.792   1.028  0.0613 -0.0626  0.1228
    2TTP    C32 9227   9.241   4.146   1.080  0.3991 -0.0502 -0.1432
    2TTP    C33 9228   9.213   4.191   1.221  0.6043  0.1839  0.0924
    2TTP    C34 9229   9.275   4.318   1.281  0.7970  0.0730  0.6629
    2TTP    C35 9230   9.215   4.350   1.414  0.6036 -0.3880 -1.0310
    2TTP    C36 9231   9.256   4.472   1.507  0.3237  0.4599  0.3048
    2TTP    C37 9232   9.272   4.612   1.427 -0.5243  0.1514 -0.7809
    2TTP    C38 9233   9.320   4.718   1.521 -0.2712  0.0628  0.3796
    2TTP    C39 9234   9.470   4.751   1.510  0.0681 -0.5704  0.2838
    2TTP    C40 9235   9.532   4.877   1.579  0.4769  0.4299 -0.1084
    2TTP    C41 9236   9.679   4.896   1.551  0.3708  0.1653  0.2937
    2TTP    C42 9237   9.730   4.888   1.407  0.0669  0.1057  0.0907
    3TTP     S1 9238   9.102   2.979   1.444 -0.2084  0.0206  0.1154
    3TTP     S5 9239   8.924   2.857   1.072  0.1209  0.4010 -0.1687
    3TTP     C1 9240   8.929   2.713   1.183 -0.1526  0.3332 -0.2419
    3TTP     C2 9241   8.984   2.742   1.305 -0.2704  0.2117 -0.1585
    3TTP     C3 9242   9.024   2.879   1.314 -0.1488  0.1678 -0.0338
    3TTP     C4 9243   9.097   3.122   1.332  0.0653  0.0884  0.1886
    3TTP    C17 9244   9.041   3.093   1.211  0.1831  0.2099  0.1052
    3TTP    C18 9245   9.001   2.956   1.201  0.0615  0.2538 -0.0196
    3TTP    C32 9246   9.006   2.643   1.418  0.0304 -0.3368  0.3515
    3TTP    C33 9247   9.144   2.628   1.489 -0.3273 -0.5767  0.2210
    3TTP    C34 9248   9.273   2.636   1.409  0.2703  0.0349  0.7103
    3TTP    C35 9249   9.280   2.555   1.280  0.4546  0.1554 -0.3845
    3TTP    C36 9250   9.414   2.562   1.209  0.2125  0.2968  0.5505
    3TTP    C37 9251   9.417   2.555   1.059 -0.2780  0.4044 -0.0826
    3TTP    C38 9252   9.328   2.644   0.975  0.6156  0.6508 -0.5720
    3TTP    C39 9253   9.306   2.792   1.012 -0.1345  0.1923  0.1242
    3TTP    C40 9254   9.433   2.866   1.008 -0.4136  0.6025  0.7242
    3TTP    C41 9255   9.427   3.009   1.040  0.2634  0.2015 -0.2107
    3TTP    C42 9256   9.547   3.086   0.987 -0.5107 -0.0507  0.0931
    4BIM     F1 9257   8.489   4.199   0.416 -0.0443 -0.0921  0.0577
    4BIM     F2 9258   8.634   4.405   0.313  0.0248 -0.3227 -0.3113
    4BIM     O1 9259   8.831   4.008   0.789  0.0935  0.1451  0.0530
    4BIM     N5 9260   9.087   4.565   0.432  0.2227 -0.4852 -0.8454
    4BIM     N6 9261   9.326   4.374   0.744  0.3164 -0.2533 -0.7747
    4BIM    C19 9262   9.092   4.137   0.823  0.2089  0.0090 -0.3014
    4BIM    C20 9263   9.000   4.177   0.734  0.1712 -0.0416 -0.2857
    4BIM    C21 9264   8.868   4.105   0.722  0.1128  0.0343 -0.0987
    4BIM    C22 9265   8.793   4.174   0.615  0.0832 -0.0489 -0.1317
    4BIM    C23 9266   8.665   4.144   0.569  0.0284 -0.0201 -0.0002
    4BIM    C24 9267   8.614   4.223   0.467  0.0094 -0.1141 -0.0647
    4BIM    C25 9268   8.689   4.329   0.414  0.0454 -0.2327 -0.2549
    4BIM    C26 9269   8.817   4.360   0.460  0.1004 -0.2620 -0.3868
    4BIM    C27 9270   8.870   4.281   0.563  0.1199 -0.1681 -0.3242
    4BIM    C28 9271   9.000   4.287   0.634  0.1752 -0.1686 -0.4265
    4BIM    C29 9272   9.102   4.377   0.611  0.2217 -0.2674 -0.6154
    4BIM    C30 9273   9.093   4.480   0.512  0.2220 -0.3868 -0.7412
    4BIM    C31 9274   9.224   4.375   0.684  0.2735 -0.2592 -0.7019
    5BIM     F1 9275   8.405   2.411   0.628 -0.0193 -0.0464  0.0713
    5BIM     F2 9276   8.478   2.160   0.704 -0.0484 -0.0087  0.2236
    5BIM     O1 9277   8.700   2.712   0.967 -0.0169  0.1248 -0.0826
    5BIM     N5 9278   8.794   2.015   1.057 -0.0885  0.1677  0.3327
    5BIM     N6 9279   9.010   2.301   1.307 -0.0803  0.2939  0.1818
    5BIM    C19 9280   8.875   2.580   1.161 -0.0436  0.2217  0.0082
    5BIM    C20 9281   8.798   2.514   1.073 -0.0432  0.1771  0.0410
    5BIM    C21 9282   8.711   2.589   0.976 -0.0288  0.1289 -0.0096
    5BIM    C22 9283   8.641   2.487   0.895 -0.0324  0.0879  0.0445
    5BIM    C23 9284   8.549   2.509   0.793 -0.0226  0.0365  0.0249
    5BIM    C24 9285   8.496   2.397   0.730 -0.0283  0.0049  0.0864
    5BIM    C25 9286   8.534   2.268   0.770 -0.0437  0.0244  0.1648
    5BIM    C26 9287   8.625   2.246   0.872 -0.0532  0.0757  0.1847
    5BIM    C27 9288   8.680   2.358   0.936 -0.0474  0.1083  0.1233
    5BIM    C28 9289   8.778   2.369   1.047 -0.0548  0.1639  0.1242
    5BIM    C29 9290   8.839   2.265   1.113 -0.0694  0.1968  0.1898
    5BIM    C30 9291   8.814   2.128   1.082 -0.0801  0.1807  0.2682
    5BIM    C31 9292   8.933   2.285   1.219 -0.0753  0.2500  0.1851
    1BTD     S2 9293   7.956   0.196   2.590 -0.0268  0.1648 -0.0697
    1BTD     N1 9294   7.869   0.039   2.583 -0.0815  0.1831  0.1909
    1BTD     N2 9295   7.815   0.293   2.536  0.0209  0.1203 -0.2777
    1BTD     N3 9296   7.369   0.208   2.415  0.0192  0.0628 -0.2311
    1BTD     N4 9297   7.436  -0.106   2.472 -0.1070  0.1402  0.3465
    1BTD     C5 9298   7.642  -0.033   2.525 -0.0933  0.1597  0.2652
    1BTD     C6 9299   7.745   0.066   2.543 -0.0625  0.1565  0.1135
    1BTD     C7 9300   7.715   0.208   2.517 -0.0051  0.1214 -0.1489
    1BTD     C8 9301   7.583   0.245   2.473  0.0185  0.0912 -0.2464
    1BTD    C15 9302   7.485   0.145   2.457 -0.0134  0.0957 -0.0910
    1BTD    C16 9303   7.514   0.008   2.482 -0.0686  0.1294  0.1617
    1BTD    C43 9304   7.291  -0.111   2.499 -0.2231  0.0626 -0.1141
    1BTD    C44 9305   7.197  -0.214   2.434  0.1118 -0.0487  0.0201
    1BTD    C45 9306   7.065  -0.226   2.514 -0.1090 -0.2011  0.0714
    1BTD    C46 9307   7.056  -0.239   2.667  0.2919 -0.2186  0.6171
    1BTD    C47 9308   7.183  -0.199   2.285 -0.2516 -0.7664  0.2727
    1BTD    C48 9309   7.088  -0.303   2.219  0.5019 -0.0259  0.0129
    1BTD    C49 9310   7.044  -0.262   2.079  0.5854 -0.6851  0.3981
    1BTD    C50 9311   6.966  -0.358   1.994  0.8793  0.2532 -0.5702
    1BTD    C75 9312   7.252   0.165   2.335  0.4480  0.4137  0.0011
    1BTD    C76 9313   7.270   0.177   2.180  0.4970  0.1063 -0.0396
    1BTD    C77 9314   7.391   0.102   2.118  0.9837  0.0118 -0.1111
    1BTD    C78 9315   7.417   0.098   1.964  0.1056  0.4166 -0.3880
    1BTD    C79 9316   7.140   0.137   2.108 -0.3935 -0.3377 -0.0003
    1BTD    C80 9317   7.014   0.212   2.142  0.1686 -0.5639  0.2414
    1BTD    C81 9318   6.892   0.147   2.090 -0.0813  0.4385 -0.0272
    1BTD    C82 9319   6.784   0.249   2.056 -0.3006  0.1465 -0.4239
    2TTP     S1 9320   7.757  -0.310   2.565 -0.2056  0.1732  0.0556
    2TTP     S5 9321   7.369  -0.479   2.488 -0.0948 -0.1805  0.2670
    2TTP     C1 9322   7.487  -0.615   2.514  0.0278 -0.0722  0.2774
    2TTP     C2 9323   7.614  -0.571   2.539  0.0007  0.0434  0.2128
    2TTP     C3 9324   7.622  -0.428   2.539 -0.1178  0.0505  0.1526
    2TTP     C4 9325   7.638  -0.174   2.539 -0.3283  0.0648  0.0453
    2TTP    C17 9326   7.512  -0.218   2.514 -0.3013 -0.0510  0.1099
    2TTP    C18 9327   7.503  -0.361   2.514 -0.1827 -0.0577  0.1699
    2TTP    C32 9328   7.741  -0.649   2.568  0.3015 -0.2053 -0.1465
    2TTP    C33 9329   7.842  -0.675   2.463 -0.4112 -0.5948  0.4943
    2TTP    C34 9330   7.956  -0.763   2.513  0.9700  0.0293 -0.3178
    2TTP    C35 9331   8.057  -0.805   2.413  0.4302 -0.0166  0.7114
    2TTP    C36 9332   8.169  -0.882   2.483 -0.1093 -0.0317  0.0444
    2TTP    C37 9333   8.286  -0.927   2.391  0.8356 -0.7027  0.2607
    2TTP    C38 9334   8.381  -1.021   2.452  0.2292  0.3716  0.4122
    2TTP    C39 9335   8.326  -1.165   2.445 -0.2331 -0.1118 -0.1743
    2TTP    C40 9336   8.429  -1.269   2.480  0.1209 -0.1679  0.3725
    2TTP    C41 9337   8.370  -1.410   2.477  0.4509 -0.2329 -0.5561
    2TTP    C42 9338   8.464  -1.516   2.535  0.2896 -0.1784  0.0888
    3TTP     S1 9339   7.549   0.555   2.458 -0.1153  0.0165  0.1797
    3TTP     S5 9340   7.132   0.502   2.366 -0.0334  0.2237 -0.3144
    3TTP     C1 9341   7.167   0.680   2.376 -0.0135  0.2040 -0.0065
    3TTP     C2 9342   7.298   0.707   2.405 -0.0377  0.1389  0.1641
    3TTP     C3 9343   7.375   0.588   2.421 -0.0727  0.1022  0.0581
    3TTP     C4 9344   7.514   0.376   2.449 -0.1351  0.0362 -0.1281
    3TTP    C17 9345   7.383   0.350   2.420 -0.1110  0.1014 -0.2988
    3TTP    C18 9346   7.306   0.469   2.404 -0.0759  0.1381 -0.1926
    3TTP    C32 9347   7.368   0.845   2.427 -0.4233  0.4820  0.0889
    3TTP    C33 9348   7.422   0.893   2.293 -0.2279 -0.5956  0.5005
    3TTP    C34 9349   7.516   1.020   2.310  0.0031 -0.0561 -0.6382
    3TTP    C35 9350   7.551   1.097   2.181 -0.0491  0.2108 -0.1000
    3TTP    C36 9351   7.445   1.143   2.078  0.0257 -0.0018 -0.4624
    3TTP    C37 9352   7.306   1.188   2.127 -0.5205 -0.3199  0.0875
    3TTP    C38 9353   7.300   1.314   2.208  0.5936 -0.0666  0.0711
    3TTP    C39 9354   7.156   1.357   2.246 -0.1918  0.4381 -0.5144
    3TTP    C40 9355   7.166   1.489   2.329 -0.1050  0.3986 -0.6056
    3TTP    C41 9356   7.021   1.529   2.365 -0.2215  0.0354 -0.5622
    3TTP    C42 9357   7.009   1.671   2.423 -0.0976 -0.8060  0.7319
    4BIM     F1 9358   6.813  -1.047   2.320  0.0793 -0.0691 -0.0713
    4BIM     F2 9359   6.936  -1.270   2.417  0.0768 -0.0272  0.0286
    4BIM     O1 9360   7.198  -0.675   2.397 -0.0870  0.0508  0.1827
    4BIM     N5 9361   7.388  -1.324   2.611 -0.0449  0.1197  0.3535
    4BIM     N6 9362   7.664  -0.989   2.652 -0.1745  0.2050  0.5320
    4BIM    C19 9363   7.453  -0.755   2.517 -0.1483  0.1340  0.3685
    4BIM    C20 9364   7.351  -0.840   2.494 -0.1065  0.1023  0.3007
    4BIM    C21 9365   7.223  -0.791   2.432 -0.0769  0.0603  0.2069
    4BIM    C22 9366   7.135  -0.909   2.421 -0.0340  0.0327  0.1502
    4BIM    C23 9367   7.005  -0.913   2.369  0.0039 -0.0086  0.0584
    4BIM    C24 9368   6.941  -1.036   2.369  0.0406 -0.0281  0.0192
    4BIM    C25 9369   7.004  -1.150   2.419  0.0394 -0.0063  0.0709
    4BIM    C26 9370   7.133  -1.147   2.471  0.0018  0.0353  0.1626
    4BIM    C27 9371   7.200  -1.023   2.472 -0.0359  0.0556  0.2034
    4BIM    C28 9372   7.336  -0.986   2.519 -0.0805  0.0989  0.2980
    4BIM    C29 9373   7.429  -1.070   2.574 -0.0949  0.1302  0.3692
    4BIM    C30 9374   7.406  -1.209   2.595 -0.0674  0.1242  0.3603
    4BIM    C31 9375   7.558  -1.025   2.617 -0.1385  0.1712  0.4584
    5BIM     F1 9376   6.471   0.743   1.958 -0.2133  0.0274  0.2955
    5BIM     F2 9377   6.453   1.004   2.035  0.1546  0.2143 -0.2344
    5BIM     O1 9378   6.932   0.595   2.200 -0.3461 -0.0891  0.4768
    5BIM     N5 9379   6.756   1.272   2.320  0.5891  0.3999 -0.8669
    5BIM     N6 9380   7.120   1.103   2.494  0.4112  0.2712 -0.6185
    5BIM    C19 9381   7.078   0.790   2.361 -0.0415  0.0480  0.0350
    5BIM    C20 9382   6.963   0.818   2.297 -0.0225  0.0701  0.0101
    5BIM    C21 9383   6.894   0.712   2.216 -0.1857 -0.0044  0.2465
    5BIM    C22 9384   6.772   0.775   2.160 -0.1171  0.0432  0.1504
    5BIM    C23 9385   6.676   0.716   2.079 -0.2174  0.0031  0.2972
    5BIM    C24 9386   6.570   0.795   2.038 -0.1225  0.0624  0.1625
    5BIM    C25 9387   6.561   0.929   2.078  0.0671  0.1586 -0.1105
    5BIM    C26 9388   6.657   0.989   2.160  0.1681  0.1991 -0.2582
    5BIM    C27 9389   6.765   0.910   2.202  0.0744  0.1402 -0.1253
    5BIM    C28 9390   6.882   0.942   2.287  0.1400  0.1606 -0.2224
    5BIM    C29 9391   6.910   1.063   2.346  0.3173  0.2468 -0.4787
    5BIM    C30 9392   6.825   1.177   2.332  0.4662  0.3307 -0.6913
    5BIM    C31 9393   7.025   1.084   2.427  0.3680  0.2597 -0.5541
    1BTD     S2 9394   5.594   2.194   8.673 -0.1669  0.0859 -0.0853
    1BTD     N1 9395   5.692   2.153   8.819 -0.0440 -0.0491 -0.2046
    1BTD     N2 9396   5.683   2.347   8.639 -0.1438  0.0772 -0.0648
    1BTD     N3 9397   6.039   2.584   8.831  0.1249 -0.1841 -0.2372
    1BTD     N4 9398   6.050   2.346   9.053  0.2477 -0.3397 -0.4096
    1BTD     C5 9399   5.879   2.257   8.939  0.1068 -0.1990 -0.3095
    1BTD     C6 9400   5.781   2.251   8.833  0.0052 -0.0915 -0.2217
    1BTD     C7 9401   5.776   2.359   8.733 -0.0504 -0.0208 -0.1435
    1BTD     C8 9402   5.869   2.468   8.742 -0.0020 -0.0611 -0.1574
    1BTD    C15 9403   5.963   2.470   8.846  0.0976 -0.1669 -0.2445
    1BTD    C16 9404   5.968   2.366   8.944  0.1513 -0.2351 -0.3194
    1BTD    C43 9405   6.085   2.453   9.148 -0.1455  0.7252  0.0898
    1BTD    C44 9406   6.184   2.434   9.261  1.3446 -0.0951 -0.3631
    1BTD    C45 9407   6.175   2.541   9.374  0.3217  0.0711 -0.0131
    1BTD    C46 9408   6.036   2.584   9.425 -0.9368 -0.4364  0.2559
    1BTD    C47 9409   6.320   2.400   9.200 -0.5283 -0.9446  0.3322
    1BTD    C48 9410   6.432   2.352   9.300  0.2208  0.1569  0.1136
    1BTD    C49 9411   6.557   2.317   9.224  0.4484  0.5138 -0.1324
    1BTD    C50 9412   6.662   2.252   9.314 -0.3470 -0.3076  0.0309
    1BTD    C75 9413   6.168   2.615   8.890  0.3557 -0.1409 -0.0834
    1BTD    C76 9414   6.298   2.591   8.813 -0.2130 -0.2824  0.8968
    1BTD    C77 9415   6.319   2.442   8.767  0.0370 -0.6126  0.6168
    1BTD    C78 9416   6.454   2.400   8.709  0.0771 -0.2553  0.2329
    1BTD    C79 9417   6.421   2.658   8.886  0.2746 -0.2863 -0.1121
    1BTD    C80 9418   6.431   2.812   8.869  0.1733  0.3657  0.2097
    1BTD    C81 9419   6.571   2.865   8.892 -0.0464 -0.0783  0.1692
    1BTD    C82 9420   6.570   3.020   8.871 -0.3222 -0.0727 -0.4073
    2TTP     S1 9421   5.862   2.000   9.074  0.1116 -0.1444 -0.0616
    2TTP     S5 9422   6.232   2.088   9.274 -0.0330  0.2525  0.0348
    2TTP     C1 9423   6.190   1.914   9.304  0.1227  0.2192  0.0613
    2TTP     C2 9424   6.073   1.876   9.244  0.1768  0.0946  0.0334
    2TTP     C3 9425   6.013   1.984   9.172  0.0968  0.0211 -0.0107
    2TTP     C4 9426   5.904   2.175   9.044 -0.0441 -0.1110 -0.0880
    2TTP    C17 9427   6.021   2.212   9.104 -0.0980  0.0135 -0.0601
    2TTP    C18 9428   6.081   2.104   9.176 -0.0181  0.0871 -0.0162
    2TTP    C32 9429   6.005   1.740   9.252  0.5791  0.1314  0.7504
    2TTP    C33 9430   5.907   1.730   9.363 -0.4368  0.4263 -0.1470
    2TTP    C34 9431   5.805   1.617   9.370 -0.1084  0.5964  0.0371
    2TTP    C35 9432   5.721   1.591   9.251 -0.8830 -0.2170 -0.3106
    2TTP    C36 9433   5.609   1.491   9.275 -0.7891  0.5377 -0.1388
    2TTP    C37 9434   5.530   1.464   9.145  0.0820 -0.1842 -0.6517
    2TTP    C38 9435   5.428   1.355   9.161 -0.0310  0.1188 -0.1646
    2TTP    C39 9436   5.476   1.210   9.182  0.2703 -0.1818  0.6800
    2TTP    C40 9437   5.546   1.158   9.057  0.6580  0.2124 -0.1897
    2TTP    C41 9438   5.635   1.041   9.080  0.7021  1.3295  0.1073
    2TTP    C42 9439   5.725   0.992   8.967  0.1626 -0.2236 -0.3738
    3TTP     S1 9440   5.802   2.683   8.538  0.2227 -0.1830 -0.0069
    3TTP     S5 9441   6.148   2.902   8.669  0.1969 -0.1591  0.0200
    3TTP     C1 9442   6.066   2.997   8.537  0.2017 -0.1654  0.0127
    3TTP     C2 9443   5.954   2.935   8.488  0.2099 -0.1732  0.0038
    3TTP     C3 9444   5.929   2.810   8.554  0.2128 -0.1744  0.0026
    3TTP     C4 9445   5.883   2.589   8.670  0.2180 -0.1768  0.0002
    3TTP    C17 9446   5.995   2.651   8.719  0.2099 -0.1690  0.0088
    3TTP    C18 9447   6.020   2.775   8.653  0.2069 -0.1677  0.0103
    3TTP    C32 9448   5.865   2.970   8.370  0.2725  0.4202 -0.5557
    3TTP    C33 9449   5.726   3.017   8.410 -0.3156 -0.3291  0.0632
    3TTP    C34 9450   5.641   3.072   8.296 -0.4496  0.9692  0.8020
    3TTP    C35 9451   5.491   3.093   8.332  0.3450  0.3140 -0.7166
    3TTP    C36 9452   5.403   3.167   8.224 -0.3309 -0.5789  0.2477
    3TTP    C37 9453   5.371   3.075   8.109 -0.2491  0.3470  0.7271
    3TTP    C38 9454   5.288   3.151   8.007 -0.3510 -0.7867 -0.5086
    3TTP    C39 9455   5.230   3.066   7.888  0.5435  0.2296  0.0259
    3TTP    C40 9456   5.316   2.976   7.810 -0.1543  0.7313 -0.9798
    3TTP    C41 9457   5.422   3.045   7.733  0.5757  0.0155  0.3011
    3TTP    C42 9458   5.505   2.962   7.637  0.6098  0.1101  0.4267
    4BIM     F1 9459   6.875   1.962   9.759  0.1270  0.0217  0.0200
    4BIM     F2 9460   6.895   1.691   9.748  0.0817  0.0148  0.1111
    4BIM     O1 9461   6.421   2.043   9.476  0.0927 -0.0038  0.0677
    4BIM     N5 9462   6.599   1.359   9.530 -0.0079 -0.0135  0.2761
    4BIM     N6 9463   6.240   1.477   9.312 -0.0255 -0.0320  0.2949
    4BIM    C19 9464   6.278   1.813   9.365  0.0372 -0.0195  0.1719
    4BIM    C20 9465   6.391   1.803   9.437  0.0476 -0.0128  0.1559
    4BIM    C21 9466   6.459   1.926   9.490  0.0764 -0.0049  0.1020
    4BIM    C22 9467   6.579   1.880   9.563  0.0809  0.0010  0.0978
    4BIM    C23 9468   6.673   1.958   9.630  0.1047  0.0092  0.0551
    4BIM    C24 9469   6.778   1.891   9.691  0.1043  0.0137  0.0607
    4BIM    C25 9470   6.788   1.752   9.685  0.0810  0.0100  0.1077
    4BIM    C26 9471   6.695   1.673   9.619  0.0573  0.0019  0.1504
    4BIM    C27 9472   6.587   1.739   9.556  0.0572 -0.0027  0.1459
    4BIM    C28 9473   6.473   1.686   9.478  0.0358 -0.0114  0.1833
    4BIM    C29 9474   6.447   1.554   9.450  0.0099 -0.0170  0.2334
    4BIM    C30 9475   6.531   1.447   9.494  0.0002 -0.0150  0.2568
    4BIM    C31 9476   6.333   1.512   9.374 -0.0094 -0.0252  0.2670
    5BIM     F1 9477   6.583   3.578   8.782 -0.2509 -0.2311  0.1199
    5BIM     F2 9478   6.524   3.719   8.556 -0.0527 -0.2804  0.0372
    5BIM     O1 9479   6.263   3.146   8.719 -0.3645 -0.1364  0.0455
    5BIM     N5 9480   6.212   3.613   8.187  0.1516 -0.2840 -0.1349
    5BIM     N6 9481   5.974   3.247   8.183  0.0230 -0.2002 -0.1764
    5BIM    C19 9482   6.094   3.127   8.481 -0.2153 -0.1500 -0.0602
    5BIM    C20 9483   6.176   3.230   8.505 -0.1944 -0.1719 -0.0379
    5BIM    C21 9484   6.260   3.233   8.630 -0.2753 -0.1631  0.0162
    5BIM    C22 9485   6.338   3.358   8.626 -0.2273 -0.1923  0.0279
    5BIM    C23 9486   6.430   3.405   8.719 -0.2723 -0.1959  0.0739
    5BIM    C24 9487   6.491   3.526   8.693 -0.2116 -0.2258  0.0760
    5BIM    C25 9488   6.461   3.599   8.577 -0.1095 -0.2512  0.0329
    5BIM    C26 9489   6.369   3.553   8.483 -0.0643 -0.2478 -0.0126
    5BIM    C27 9490   6.306   3.430   8.508 -0.1245 -0.2176 -0.0155
    5BIM    C28 9491   6.206   3.354   8.429 -0.1001 -0.2061 -0.0577
    5BIM    C29 9492   6.150   3.392   8.309 -0.0079 -0.2239 -0.1061
    5BIM    C30 9493   6.185   3.513   8.242  0.0795 -0.2568 -0.1216
    5BIM    C31 9494   6.054   3.312   8.240  0.0087 -0.2106 -0.1445
    1BTD     S2 9495   3.941   4.527   8.310  0.2469  0.1713  0.0087
    1BTD     N1 9496   3.795   4.520   8.206  0.0496  0.1386  0.2847
    1BTD     N2 9497   3.943   4.351   8.345  0.4275  0.1525 -0.0973
    1BTD     N3 9498   3.684   3.977   8.227  0.4397  0.0544  0.1850
    1BTD     N4 9499   3.501   4.185   8.056 -0.0259  0.0372  0.6557
    1BTD     C5 9500   3.644   4.343   8.129  0.0157  0.0858  0.4728
    1BTD     C6 9501   3.757   4.392   8.202  0.1248  0.1163  0.2837
    1BTD     C7 9502   3.840   4.298   8.280  0.3363  0.1241  0.0699
    1BTD     C8 9503   3.806   4.158   8.281  0.4283  0.1011  0.0558
    1BTD    C15 9504   3.694   4.114   8.208  0.3158  0.0715  0.2451
    1BTD    C16 9505   3.614   4.205   8.133  0.1120  0.0643  0.4512
    1BTD    C43 9506   3.388   4.085   8.085 -0.3082 -0.3684 -0.0887
    1BTD    C44 9507   3.291   4.028   7.976 -0.3408 -0.0226 -0.5627
    1BTD    C45 9508   3.371   3.995   7.846  0.3481  0.3747  0.0163
    1BTD    C46 9509   3.297   3.958   7.722  0.2918  0.3164  0.1875
    1BTD    C47 9510   3.216   3.907   8.025  0.8171  0.0402  0.2338
    1BTD    C48 9511   3.122   3.924   8.144 -0.0039 -0.2257  0.5580
    1BTD    C49 9512   3.025   4.042   8.142  0.8116  0.1371  0.5742
    1BTD    C50 9513   2.932   4.066   8.260 -0.3368  0.1123 -0.5328
    1BTD    C75 9514   3.653   3.885   8.113  0.0965 -0.4635 -0.1298
    1BTD    C76 9515   3.601   3.743   8.142 -0.0413  0.1900  0.3479
    1BTD    C77 9516   3.473   3.754   8.230 -0.0119  0.3697  0.2955
    1BTD    C78 9517   3.416   3.625   8.292 -0.6140  0.3906 -0.0316
    1BTD    C79 9518   3.614   3.639   8.028 -0.0904 -0.3206  0.4217
    1BTD    C80 9519   3.513   3.660   7.915  0.0463  0.0027  0.0090
    1BTD    C81 9520   3.521   3.546   7.814  0.0961  0.0803  0.0670
    1BTD    C82 9521   3.406   3.531   7.713 -0.0614  0.4916  0.4286
    2TTP     S1 9522   3.516   4.571   7.986 -0.1789 -0.0141  0.2685
    2TTP     S5 9523   3.218   4.301   7.834  0.1706 -0.3165  0.1146
    2TTP     C1 9524   3.181   4.469   7.773  0.0784 -0.3669  0.0310
    2TTP     C2 9525   3.271   4.562   7.816 -0.0349 -0.2766  0.0737
    2TTP     C3 9526   3.372   4.504   7.899 -0.0530 -0.1643  0.1738
    2TTP     C4 9527   3.553   4.403   8.047 -0.0867  0.0364  0.3524
    2TTP    C17 9528   3.462   4.310   8.004  0.0267 -0.0542  0.3095
    2TTP    C18 9529   3.361   4.368   7.921  0.0448 -0.1665  0.2092
    2TTP    C32 9530   3.272   4.715   7.784  0.2345 -0.6352 -0.4997
    2TTP    C33 9531   3.398   4.785   7.744  0.0300  0.4472 -0.9830
    2TTP    C34 9532   3.475   4.736   7.618 -0.1712 -0.0359 -0.0557
    2TTP    C35 9533   3.389   4.746   7.492  0.0193  0.1433 -0.3265
    2TTP    C36 9534   3.338   4.885   7.455 -0.1277  0.0696 -0.0117
    2TTP    C37 9535   3.287   4.887   7.313 -0.2171  0.6462 -0.4567
    2TTP    C38 9536   3.288   5.032   7.274 -0.1906  0.3689 -0.1429
    2TTP    C39 9537   3.269   5.048   7.125 -0.3207  0.1339  0.2559
    2TTP    C40 9538   3.236   5.186   7.076 -0.3792  0.0488  0.1356
    2TTP    C41 9539   3.151   5.194   6.946  0.1806  0.3429 -0.6349
    2TTP    C42 9540   3.105   5.336   6.908 -0.7199  0.1409 -0.2014
    3TTP     S1 9541   3.957   4.023   8.505 -0.1088 -0.0965  0.0223
    3TTP     S5 9542   3.726   3.666   8.437 -0.1006 -0.0510 -0.2441
    3TTP     C1 9543   3.826   3.643   8.587 -0.0358 -0.1937 -0.3093
    3TTP     C2 9544   3.903   3.752   8.617 -0.0343 -0.2161 -0.2306
    3TTP     C3 9545   3.886   3.857   8.523 -0.0846 -0.1216 -0.1166
    3TTP     C4 9546   3.857   4.046   8.355 -0.1737  0.0459  0.0870
    3TTP    C17 9547   3.780   3.937   8.325 -0.1751  0.0685  0.0087
    3TTP    C18 9548   3.797   3.832   8.420 -0.1249 -0.0261 -0.1056
    3TTP    C32 9549   4.009   3.783   8.726  0.0005 -0.1970  0.0358
    3TTP    C33 9550   3.972   3.886   8.838 -0.0630  0.4969  0.2292
    3TTP    C34 9551   3.841   3.876   8.916  0.5260  0.0554  0.1335
    3TTP    C35 9552   3.783   3.744   8.970  0.0341  0.7890  0.1944
    3TTP    C36 9553   3.624   3.735   8.985 -0.8410  0.4819 -0.0745
    3TTP    C37 9554   3.554   3.766   8.849  0.0785  0.5657 -0.0967
    3TTP    C38 9555   3.411   3.707   8.840 -0.5920 -0.1869  0.4541
    3TTP    C39 9556   3.343   3.738   8.699 -0.9140 -0.0211 -0.7711
    3TTP    C40 9557   3.198   3.696   8.684  0.7533  0.6075 -0.1947
    3TTP    C41 9558   3.148   3.763   8.564 -0.2575 -0.1474  0.5666
    3TTP    C42 9559   3.025   3.704   8.511  0.3760  0.1532  0.1524
    4BIM     F1 9560   2.584   4.058   7.383  0.1621  0.0838 -0.0161
    4BIM     F2 9561   2.492   4.297   7.290  0.1950  0.1271  0.0612
    4BIM     O1 9562   3.012   4.221   7.673  0.2391 -0.0776 -0.0386
    4BIM     N5 9563   2.664   4.755   7.361  0.2972  0.0741  0.1558
    4BIM     N6 9564   3.016   4.834   7.606  0.3508 -0.0608  0.1223
    4BIM    C19 9565   3.075   4.507   7.686  0.2979 -0.0937  0.0269
    4BIM    C20 9566   2.971   4.457   7.617  0.2773 -0.0547  0.0296
    4BIM    C21 9567   2.945   4.309   7.615  0.2475 -0.0490 -0.0055
    4BIM    C22 9568   2.825   4.288   7.531  0.2306 -0.0030  0.0076
    4BIM    C23 9569   2.763   4.168   7.500  0.2018  0.0176 -0.0147
    4BIM    C24 9570   2.651   4.174   7.418  0.1903  0.0614  0.0041
    4BIM    C25 9571   2.603   4.297   7.370  0.2074  0.0836  0.0439
    4BIM    C26 9572   2.665   4.417   7.401  0.2361  0.0631  0.0662
    4BIM    C27 9573   2.779   4.413   7.483  0.2480  0.0187  0.0477
    4BIM    C28 9574   2.867   4.521   7.534  0.2773 -0.0122  0.0627
    4BIM    C29 9575   2.853   4.656   7.509  0.3003 -0.0027  0.1003
    4BIM    C30 9576   2.749   4.710   7.428  0.2986  0.0395  0.1304
    4BIM    C31 9577   2.943   4.753   7.563  0.3279 -0.0348  0.1122
    5BIM     F1 9578   3.286   3.056   8.773 -0.0321  0.0823  0.0014
    5BIM     F2 9579   3.456   2.968   8.966 -0.0535  0.0089 -0.0126
    5BIM     O1 9580   3.565   3.474   8.572  0.1637 -0.0825 -0.0706
    5BIM     N5 9581   3.900   3.141   9.101  0.0554 -0.2143 -0.0844
    5BIM     N6 9582   4.084   3.485   8.906  0.2127 -0.3282 -0.1383
    5BIM    C19 9583   3.827   3.539   8.686  0.2128 -0.2112 -0.1099
    5BIM    C20 9584   3.750   3.437   8.729  0.1644 -0.1669 -0.0911
    5BIM    C21 9585   3.616   3.410   8.665  0.1418 -0.1017 -0.0715
    5BIM    C22 9586   3.560   3.294   8.735  0.0890 -0.0657 -0.0544
    5BIM    C23 9587   3.437   3.231   8.711  0.0530 -0.0031 -0.0331
    5BIM    C24 9588   3.405   3.122   8.791  0.0053  0.0207 -0.0194
    5BIM    C25 9589   3.493   3.077   8.890 -0.0055 -0.0172 -0.0269
    5BIM    C26 9590   3.615   3.139   8.914  0.0302 -0.0798 -0.0479
    5BIM    C27 9591   3.650   3.250   8.835  0.0787 -0.1047 -0.0620
    5BIM    C28 9592   3.770   3.336   8.835  0.1245 -0.1684 -0.0849
    5BIM    C29 9593   3.879   3.325   8.918  0.1292 -0.2192 -0.0982
    5BIM    C30 9594   3.890   3.224   9.018  0.0885 -0.2163 -0.0906
    5BIM    C31 9595   3.991   3.413   8.911  0.1751 -0.2788 -0.1202
    1BTD     S2 9596   3.503   6.368   5.991 -0.0983  0.1866  0.0054
    1BTD     N1 9597   3.616   6.267   6.088 -0.1905  0.1776  0.1040
    1BTD     N2 9598   3.617   6.507   5.976  0.0439  0.0530 -0.1645
    1BTD     N3 9599   4.052   6.607   6.121  0.1669 -0.2360 -0.3332
    1BTD     N4 9600   4.051   6.311   6.259 -0.1220 -0.0824 -0.0025
    1BTD     C5 9601   3.843   6.294   6.175 -0.1513  0.0401  0.0445
    1BTD     C6 9602   3.727   6.338   6.103 -0.1146  0.0803  0.0098
    1BTD     C7 9603   3.727   6.472   6.041  0.0166  0.0106 -0.1403
    1BTD     C8 9604   3.844   6.555   6.054  0.1045 -0.0962 -0.2484
    1BTD    C15 9605   3.956   6.508   6.125  0.0645 -0.1321 -0.2097
    1BTD    C16 9606   3.955   6.379   6.185 -0.0619 -0.0651 -0.0651
    1BTD    C43 9607   4.179   6.356   6.312  0.1088  0.2408 -0.5350
    1BTD    C44 9608   4.181   6.436   6.446 -0.6130  0.0419 -0.4657
    1BTD    C45 9609   4.324   6.454   6.507  0.4303  0.1158  0.4588
    1BTD    C46 9610   4.383   6.337   6.583 -0.1112 -0.3714 -0.8031
    1BTD    C47 9611   4.076   6.401   6.550  1.1753  0.1109 -0.3944
    1BTD    C48 9612   4.046   6.505   6.667  0.4361 -0.8653 -0.3173
    1BTD    C49 9613   3.967   6.452   6.796  0.2059  0.4920  0.1655
    1BTD    C50 9614   3.972   6.308   6.835 -0.9209  0.2813 -0.4539
    1BTD    C75 9615   4.199   6.600   6.126 -0.8133 -0.4961  0.6258
    1BTD    C76 9616   4.279   6.556   5.996  0.3847  0.2380  0.0590
    1BTD    C77 9617   4.238   6.631   5.866  0.1350  0.3561  0.6991
    1BTD    C78 9618   4.302   6.580   5.736 -0.7948 -0.0456  0.0049
    1BTD    C79 9619   4.433   6.556   6.016  0.0020  0.0138 -0.0250
    1BTD    C80 9620   4.500   6.473   6.121 -0.4684  0.0689  0.1541
    1BTD    C81 9621   4.641   6.521   6.154  0.2203 -0.0432 -0.1480
    1BTD    C82 9622   4.715   6.439   6.255  0.3326 -0.2191 -0.6923
    2TTP     S1 9623   3.789   6.019   6.291  0.1230 -0.1300  0.2839
    2TTP     S5 9624   4.184   6.017   6.459  0.2089 -0.0558  0.0833
    2TTP     C1 9625   4.100   5.863   6.507  0.3069 -0.1291  0.0199
    2TTP     C2 9626   3.973   5.855   6.458  0.2862 -0.1563  0.0781
    2TTP     C3 9627   3.938   5.970   6.381  0.1922 -0.1202  0.1750
    2TTP     C4 9628   3.873   6.173   6.243  0.0251 -0.0566  0.3473
    2TTP    C17 9629   4.000   6.182   6.292  0.0458 -0.0293  0.2893
    2TTP    C18 9630   4.036   6.067   6.369  0.1398 -0.0653  0.1925
    2TTP    C32 9631   3.864   5.759   6.479  0.2655  1.3608 -0.2585
    2TTP    C33 9632   3.760   5.797   6.589 -0.0052 -0.2791  0.4686
    2TTP    C34 9633   3.682   5.672   6.632  0.5484 -0.4586 -0.7994
    2TTP    C35 9634   3.584   5.706   6.749  0.3151  0.3221 -0.0269
    2TTP    C36 9635   3.494   5.833   6.736 -0.3495  0.8735  0.0704
    2TTP    C37 9636   3.380   5.831   6.642 -0.3972 -0.0828  0.3375
    2TTP    C38 9637   3.259   5.738   6.667  1.0165 -0.6285 -0.5330
    2TTP    C39 9638   3.142   5.752   6.567 -0.0183  0.0983 -0.1928
    2TTP    C40 9639   3.015   5.679   6.608 -0.2423  0.0334 -0.4443
    2TTP    C41 9640   3.015   5.526   6.583  0.4736 -0.3759  0.1358
    2TTP    C42 9641   3.069   5.473   6.447  0.1498 -0.2371  0.2013
    3TTP     S1 9642   3.781   6.826   5.937  0.1333 -0.0395 -0.0327
    3TTP     S5 9643   4.160   6.969   6.082  0.0196 -0.0445  0.2718
    3TTP     C1 9644   4.070   7.108   6.006  0.1141 -0.0598  0.1314
    3TTP     C2 9645   3.948   7.072   5.957  0.1550 -0.0592  0.0293
    3TTP     C3 9646   3.920   6.933   5.977  0.1128 -0.0466  0.0579
    3TTP     C4 9647   3.870   6.687   6.013  0.0386 -0.0242  0.1079
    3TTP    C17 9648   3.992   6.723   6.062 -0.0021 -0.0249  0.2099
    3TTP    C18 9649   4.020   6.861   6.041  0.0399 -0.0374  0.1811
    3TTP    C32 9650   3.848   7.146   5.876  0.1081 -0.3572 -0.0003
    3TTP    C33 9651   3.717   7.183   5.944  0.3867 -0.0660  0.2218
    3TTP    C34 9652   3.597   7.203   5.849 -0.5078  0.4127 -0.3364
    3TTP    C35 9653   3.472   7.270   5.898  0.1996  0.0744 -0.8687
    3TTP    C36 9654   3.482   7.401   5.978  0.3641  0.5768 -0.0372
    3TTP    C37 9655   3.353   7.469   6.030  0.3213 -0.3459 -0.2757
    3TTP    C38 9656   3.274   7.402   6.149  0.4349 -0.2393  0.5629
    3TTP    C39 9657   3.236   7.254   6.134  0.2181 -0.5734  0.6420
    3TTP    C40 9658   3.134   7.222   6.019  0.1180  0.1646  0.0207
    3TTP    C41 9659   3.004   7.293   6.013  0.1367 -0.7486  0.4612
    3TTP    C42 9660   2.940   7.274   5.875 -0.6260 -0.5660  0.2047
    4BIM     F1 9661   4.838   5.671   6.800  0.1056 -0.3757 -0.7331
    4BIM     F2 9662   4.743   5.425   6.866 -0.2488 -0.0268  0.0944
    4BIM     O1 9663   4.396   5.898   6.585  0.2183 -0.1974 -0.7769
    4BIM     N5 9664   4.291   5.232   6.806 -0.6782  0.6024  1.2527
    4BIM     N6 9665   3.965   5.459   6.624 -0.5187  0.6715  1.0517
    4BIM    C19 9666   4.148   5.743   6.570 -0.0804  0.1995 -0.0019
    4BIM    C20 9667   4.263   5.695   6.622 -0.0948  0.1409 -0.0232
    4BIM    C21 9668   4.387   5.781   6.626  0.0648 -0.0656 -0.4332
    4BIM    C22 9669   4.492   5.699   6.688  0.0026 -0.0795 -0.3452
    4BIM    C23 9670   4.624   5.736   6.713  0.1026 -0.2425 -0.6278
    4BIM    C24 9671   4.706   5.642   6.773  0.0146 -0.2205 -0.4709
    4BIM    C25 9672   4.657   5.515   6.806 -0.1679 -0.0405 -0.0446
    4BIM    C26 9673   4.526   5.478   6.782 -0.2687  0.1227  0.2390
    4BIM    C27 9674   4.441   5.572   6.721 -0.1818  0.1032  0.0863
    4BIM    C28 9675   4.298   5.564   6.682 -0.2489  0.2459  0.3011
    4BIM    C29 9676   4.214   5.456   6.699 -0.4210  0.4386  0.7205
    4BIM    C30 9677   4.257   5.333   6.758 -0.5618  0.5279  1.0116
    4BIM    C31 9678   4.078   5.458   6.658 -0.4739  0.5655  0.9001
    5BIM     F1 9679   4.756   7.516   6.219 -0.0855  0.0653  0.1998
    5BIM     F2 9680   4.640   7.745   6.130  0.3023 -0.0196 -0.5406
    5BIM     O1 9681   4.361   7.158   6.123 -0.4203  0.3011  0.6882
    5BIM     N5 9682   4.192   7.820   5.934  0.6211  0.0263 -1.2572
    5BIM     N6 9683   3.907   7.494   5.877  0.2814  0.2277 -0.7261
    5BIM    C19 9684   4.110   7.250   6.004 -0.1687  0.3036  0.1543
    5BIM    C20 9685   4.214   7.331   6.031 -0.0998  0.2478  0.0602
    5BIM    C21 9686   4.340   7.276   6.093 -0.2383  0.2503  0.3507
    5BIM    C22 9687   4.431   7.390   6.109 -0.1154  0.1812  0.1552
    5BIM    C23 9688   4.560   7.389   6.162 -0.1779  0.1588  0.3083
    5BIM    C24 9689   4.628   7.510   6.168 -0.0340  0.0910  0.0673
    5BIM    C25 9690   4.568   7.628   6.122  0.1655  0.0475 -0.3139
    5BIM    C26 9691   4.439   7.630   6.069  0.2289  0.0694 -0.4685
    5BIM    C27 9692   4.369   7.509   6.063  0.0856  0.1379 -0.2291
    5BIM    C28 9693   4.233   7.477   6.013  0.1031  0.1770 -0.3026
    5BIM    C29 9694   4.143   7.566   5.960  0.2747  0.1525 -0.6421
    5BIM    C30 9695   4.170   7.705   5.946  0.4646  0.0831 -0.9791
    5BIM    C31 9696   4.013   7.526   5.914  0.2774  0.1941 -0.6864
    1BTD     S2 9697   6.151   8.450   1.482  0.0251  0.0445 -0.0670
    1BTD     N1 9698   6.006   8.459   1.376  0.3326  0.0994 -0.4886
    1BTD     N2 9699   6.161   8.628   1.509 -0.2549  0.0029  0.3385
    1BTD     N3 9700   5.919   9.006   1.371 -0.2700  0.0167  0.4035
    1BTD     N4 9701   5.728   8.799   1.208  0.4538  0.1357 -0.6156
    1BTD     C5 9702   5.863   8.639   1.290  0.3872  0.1168 -0.5426
    1BTD     C6 9703   5.974   8.588   1.367  0.2168  0.0844 -0.3144
    1BTD     C7 9704   6.061   8.682   1.441 -0.1121  0.0305  0.1486
    1BTD     C8 9705   6.032   8.823   1.435 -0.2540  0.0114  0.3602
    1BTD    C15 9706   5.923   8.869   1.359 -0.0783  0.0445  0.1238
    1BTD    C16 9707   5.839   8.778   1.288  0.2386  0.0966 -0.3222
    1BTD    C43 9708   5.710   8.912   1.112  0.8774 -0.1497  0.3782
    1BTD    C44 9709   5.565   8.968   1.070  0.3076  0.0823  0.3741
    1BTD    C45 9710   5.558   9.058   0.947 -0.3428 -0.6091  0.4892
    1BTD    C46 9711   5.618   9.001   0.817 -0.1955  0.1213 -0.3584
    1BTD    C47 9712   5.477   9.009   1.191 -0.4391  0.7610  0.1682
    1BTD    C48 9713   5.323   9.028   1.180 -0.8375  0.2982 -0.3336
    1BTD    C49 9714   5.257   9.140   1.093 -0.1195  0.0918  0.0781
    1BTD    C50 9715   5.278   9.270   1.157 -0.2530 -0.3160  0.6452
    1BTD    C75 9716   5.792   9.084   1.371 -0.2625  0.7106 -0.5229
    1BTD    C76 9717   5.784   9.240   1.354  0.6390 -0.1885 -0.3533
    1BTD    C77 9718   5.665   9.317   1.422  0.1856 -0.3594  0.5849
    1BTD    C78 9719   5.650   9.317   1.572 -0.5392 -0.3601 -0.1117
    1BTD    C79 9720   5.816   9.293   1.217  0.1261 -0.2671  0.4859
    1BTD    C80 9721   5.942   9.243   1.138  0.3917 -0.0787  0.2368
    1BTD    C81 9722   5.970   9.321   1.007  0.9635  0.3940 -0.5661
    1BTD    C82 9723   6.088   9.251   0.939  0.0852  0.3535  0.2144
    2TTP     S1 9724   5.699   8.409   1.182 -0.2071 -0.0385  0.2255
    2TTP     S5 9725   5.390   8.689   1.076 -0.0610  0.0448  0.0185
    2TTP     C1 9726   5.330   8.521   1.040 -0.1548  0.0481  0.1581
    2TTP     C2 9727   5.422   8.424   1.071 -0.2055  0.0226  0.2302
    2TTP     C3 9728   5.543   8.480   1.124 -0.1720 -0.0005  0.1779
    2TTP     C4 9729   5.758   8.577   1.217 -0.1132 -0.0420  0.0860
    2TTP    C17 9730   5.667   8.673   1.187 -0.0626 -0.0165  0.0138
    2TTP    C18 9731   5.546   8.618   1.134 -0.0961  0.0067  0.0662
    2TTP    C32 9732   5.405   8.275   1.049  0.7652 -0.0890  0.1612
    2TTP    C33 9733   5.455   8.224   0.915  0.3127 -0.1539 -0.8130
    2TTP    C34 9734   5.493   8.075   0.916 -0.1848 -0.2740  0.4310
    2TTP    C35 9735   5.546   8.025   0.784 -0.4165  0.1520 -0.0297
    2TTP    C36 9736   5.449   8.012   0.665  0.3308 -0.3918 -0.1205
    2TTP    C37 9737   5.317   7.921   0.678  0.3947 -0.3809 -0.2747
    2TTP    C38 9738   5.251   7.920   0.537  0.5179 -0.2812 -0.6249
    2TTP    C39 9739   5.120   7.837   0.525 -0.5892  0.7498  1.0224
    2TTP    C40 9740   5.006   7.834   0.622  0.1876  0.3634 -0.5519
    2TTP    C41 9741   4.962   7.969   0.679 -0.0569  0.3113  0.1071
    2TTP    C42 9742   4.871   7.946   0.803  0.6411 -0.1933  0.2664
    3TTP     S1 9743   6.256   8.970   1.570 -0.1168  0.1257  0.1494
    3TTP     S5 9744   6.075   9.347   1.472  0.0709  0.1357 -0.1604
    3TTP     C1 9745   6.231   9.379   1.560 -0.0180  0.1281  0.0016
    3TTP     C2 9746   6.296   9.264   1.595 -0.0812  0.1249  0.1068
    3TTP     C3 9747   6.225   9.147   1.555 -0.0618  0.1278  0.0633
    3TTP     C4 9748   6.099   8.938   1.483 -0.0279  0.1333 -0.0126
    3TTP    C17 9749   6.034   9.053   1.447  0.0353  0.1367 -0.1178
    3TTP    C18 9750   6.106   9.170   1.488  0.0157  0.1335 -0.0743
    3TTP    C32 9751   6.428   9.246   1.669 -0.4650 -0.5754 -0.1056
    3TTP    C33 9752   6.441   9.152   1.789  0.1036  0.2926  0.0397
    3TTP    C34 9753   6.586   9.098   1.810 -0.5279  0.1029 -0.5920
    3TTP    C35 9754   6.581   8.996   1.918  0.1980 -0.5232 -0.0382
    3TTP    C36 9755   6.700   8.917   1.942  0.0980  0.2902 -0.3022
    3TTP    C37 9756   6.700   8.823   2.066  0.1097  0.0270 -0.1590
    3TTP    C38 9757   6.694   8.892   2.203  0.1041  0.8986  0.6937
    3TTP    C39 9758   6.706   8.797   2.322  0.1483  0.1846 -0.7020
    3TTP    C40 9759   6.727   8.866   2.464 -0.0653  0.1012  0.6556
    3TTP    C41 9760   6.865   8.929   2.475  0.1468 -0.0740 -0.2150
    3TTP    C42 9761   6.892   8.955   2.624  0.2940  0.0849  0.2569
    4BIM     F1 9762   4.653   8.927   0.800 -0.1920 -0.0367  0.3216
    4BIM     F2 9763   4.547   8.690   0.719  0.1117  0.0055 -0.2119
    4BIM     O1 9764   5.130   8.765   0.997 -0.3276  0.0339  0.7083
    4BIM     N5 9765   4.735   8.233   0.744  0.4519  0.1159 -0.7034
    4BIM     N6 9766   5.129   8.154   0.915  0.2848  0.1626 -0.2936
    4BIM    C19 9767   5.198   8.481   0.991 -0.0855  0.0989  0.3359
    4BIM    C20 9768   5.083   8.531   0.944 -0.0631  0.0796  0.2595
    4BIM    C21 9769   5.055   8.678   0.951 -0.1935  0.0465  0.4628
    4BIM    C22 9770   4.921   8.698   0.892 -0.1301  0.0319  0.3129
    4BIM    C23 9771   4.852   8.818   0.877 -0.2073  0.0014  0.4153
    4BIM    C24 9772   4.726   8.812   0.818 -0.1230 -0.0069  0.2340
    4BIM    C25 9773   4.672   8.690   0.777  0.0336  0.0146 -0.0408
    4BIM    C26 9774   4.740   8.570   0.792  0.1111  0.0453 -0.1443
    4BIM    C27 9775   4.868   8.574   0.851  0.0278  0.0541  0.0361
    4BIM    C28 9776   4.965   8.466   0.881  0.0751  0.0842 -0.0077
    4BIM    C29 9777   4.949   8.332   0.855  0.2195  0.1113 -0.2496
    4BIM    C30 9778   4.831   8.278   0.794  0.3469  0.1140 -0.4982
    4BIM    C31 9779   5.048   8.235   0.888  0.2545  0.1392 -0.2724
    5BIM     F1 9780   5.904  10.126   1.550  0.1633  0.0372 -0.1982
    5BIM     F2 9781   6.103  10.210   1.716 -0.0001 -0.0308  0.0319
    5BIM     O1 9782   6.042   9.608   1.478  0.1794  0.0412 -0.1956
    5BIM     N5 9783   6.487   9.960   1.903 -0.2233 -0.1247  0.3644
    5BIM     N6 9784   6.555   9.538   1.813 -0.1779 -0.1080  0.3200
    5BIM    C19 9785   6.281   9.504   1.611  0.0291 -0.0220  0.0251
    5BIM    C20 9786   6.239   9.631   1.622  0.0314 -0.0205  0.0155
    5BIM    C21 9787   6.115   9.677   1.551  0.1111  0.0129 -0.1011
    5BIM    C22 9788   6.098   9.819   1.585  0.0918  0.0055 -0.0804
    5BIM    C23 9789   5.997   9.905   1.542  0.1459  0.0286 -0.1622
    5BIM    C24 9790   6.001  10.036   1.588  0.1132  0.0157 -0.1219
    5BIM    C25 9791   6.103  10.079   1.674  0.0291 -0.0192 -0.0034
    5BIM    C26 9792   6.204   9.994   1.717 -0.0252 -0.0422  0.0787
    5BIM    C27 9793   6.202   9.861   1.671  0.0067 -0.0298  0.0396
    5BIM    C28 9794   6.293   9.747   1.698 -0.0337 -0.0467  0.1032
    5BIM    C29 9795   6.405   9.748   1.777 -0.1160 -0.0815  0.2210
    5BIM    C30 9796   6.450   9.865   1.846 -0.1748 -0.1051  0.2994
    5BIM    C31 9797   6.487   9.633   1.796 -0.1495 -0.0958  0.2748
    1BTD     S2 9798   8.703   4.356   6.628 -0.2711 -0.0988  0.0833
    1BTD     N1 9799   8.737   4.181   6.650  0.0825 -0.0825 -0.3158
    1BTD     N2 9800   8.844   4.410   6.726 -0.6318 -0.0346  0.5741
    1BTD     N3 9801   9.193   4.205   6.964 -0.7279  0.1259  0.8538
    1BTD     N4 9802   9.061   3.922   6.870  0.1526  0.0670 -0.2428
    1BTD     C5 9803   8.908   4.049   6.766  0.1082 -0.0037 -0.2644
    1BTD     C6 9804   8.846   4.172   6.725 -0.0780 -0.0325 -0.0751
    1BTD     C7 9805   8.906   4.301   6.767 -0.4780 -0.0058  0.4231
    1BTD     C8 9806   9.024   4.300   6.849 -0.6714  0.0484  0.7070
    1BTD    C15 9807   9.081   4.177   6.887 -0.4776  0.0751  0.5065
    1BTD    C16 9808   9.024   4.053   6.846 -0.0922  0.0494  0.0267
    1BTD    C43 9809   9.203   3.881   6.893  0.5488 -0.6628 -0.2383
    1BTD    C44 9810   9.229   3.768   6.999  0.8053  0.5292  0.1820
    1BTD    C45 9811   9.159   3.790   7.132  0.1058  0.6011 -0.2385
    1BTD    C46 9812   9.137   3.661   7.214  0.0676 -0.0770 -0.5134
    1BTD    C47 9813   9.370   3.722   7.008  1.0476  0.2021  0.0959
    1BTD    C48 9814   9.444   3.672   6.880 -0.2694 -0.0987 -0.6726
    1BTD    C49 9815   9.567   3.584   6.908 -0.2941  0.0166 -0.5002
    1BTD    C50 9816   9.684   3.651   6.987  0.1680  0.6392  0.6273
    1BTD    C75 9817   9.249   4.125   7.079  0.6246  0.4213  0.1960
    1BTD    C76 9818   9.383   4.149   7.148  0.0826  0.3054  0.2016
    1BTD    C77 9819   9.398   4.079   7.286 -1.1517 -0.4974 -0.4606
    1BTD    C78 9820   9.308   4.126   7.397  0.2625 -0.0517 -0.2749
    1BTD    C79 9821   9.500   4.105   7.049  0.4402  0.3769 -0.2501
    1BTD    C80 9822   9.644   4.132   7.092  0.0448 -0.1127 -0.0690
    1BTD    C81 9823   9.755   4.073   7.011 -0.4302 -0.1120  0.0058
    1BTD    C82 9824   9.901   4.102   7.050  0.1660 -0.1761  0.3168
    2TTP     S1 9825   8.747   3.809   6.662 -0.0206  0.1206  0.1461
    2TTP     S5 9826   9.044   3.546   6.828 -0.2444 -0.3191 -0.1463
    2TTP     C1 9827   8.919   3.446   6.742 -0.4580 -0.1323 -0.0555
    2TTP     C2 9828   8.820   3.521   6.685 -0.4017  0.0144  0.0401
    2TTP     C3 9829   8.839   3.661   6.708 -0.1874 -0.0153  0.0452
    2TTP     C4 9830   8.872   3.910   6.747  0.1934 -0.0662  0.0553
    2TTP    C17 9831   8.971   3.835   6.804  0.1368 -0.2129 -0.0403
    2TTP    C18 9832   8.952   3.695   6.781 -0.0775 -0.1832 -0.0454
    2TTP    C32 9833   8.705   3.466   6.609 -0.3942 -0.0135  0.4657
    2TTP    C33 9834   8.686   3.534   6.471 -0.4948 -0.5743  0.1359
    2TTP    C34 9835   8.601   3.462   6.380  0.5447  0.2495  0.7452
    2TTP    C35 9836   8.593   3.527   6.239  0.4236  0.4248 -0.0212
    2TTP    C36 9837   8.513   3.453   6.133  0.1538 -0.3495  0.4081
    2TTP    C37 9838   8.490   3.554   6.026  0.2164  0.1361  0.3466
    2TTP    C38 9839   8.436   3.503   5.896  0.6145 -0.4951  0.0342
    2TTP    C39 9840   8.416   3.613   5.785 -0.2153 -0.6567  0.1215
    2TTP    C40 9841   8.351   3.748   5.818  0.6085  0.1214 -0.5477
    2TTP    C41 9842   8.204   3.759   5.869 -0.5921  0.2056 -0.2356
    2TTP    C42 9843   8.177   3.903   5.925 -0.3142  0.8048 -0.3902
    3TTP     S1 9844   9.121   4.576   6.874  0.0215 -0.0006 -0.0329
    3TTP     S5 9845   9.476   4.434   7.070 -0.0844  0.0801  0.2185
    3TTP     C1 9846   9.495   4.612   7.037  0.0297  0.0179 -0.0559
    3TTP     C2 9847   9.387   4.666   6.974  0.0689 -0.0107 -0.1498
    3TTP     C3 9848   9.284   4.569   6.950  0.0105  0.0155 -0.0082
    3TTP     C4 9849   9.101   4.398   6.907 -0.0925  0.0616  0.2415
    3TTP    C17 9850   9.210   4.344   6.969 -0.1320  0.0903  0.3354
    3TTP    C18 9851   9.312   4.441   6.993 -0.0734  0.0640  0.1938
    3TTP    C32 9852   9.363   4.812   6.940 -0.7912  0.0293 -0.1686
    3TTP    C33 9853   9.378   4.838   6.793  0.7518 -0.4168  0.1331
    3TTP    C34 9854   9.508   4.796   6.727 -0.1709  0.5577  0.2561
    3TTP    C35 9855   9.547   4.902   6.622 -0.1714 -0.1614 -0.0700
    3TTP    C36 9856   9.697   4.880   6.574  0.3880 -0.2669 -0.1406
    3TTP    C37 9857   9.805   4.937   6.670  0.0777  0.0366 -0.1265
    3TTP    C38 9858   9.794   5.086   6.682  0.0558  0.3771 -0.3636
    3TTP    C39 9859   9.903   5.145   6.765 -0.2505 -0.1229  0.5327
    3TTP    C40 9860   9.878   5.301   6.782 -0.2083  1.1026  0.0937
    3TTP    C41 9861   9.989   5.374   6.851 -0.2719  0.4099 -0.2158
    3TTP    C42 9862   9.936   5.509   6.895  0.0068  0.0796  0.7560
    4BIM     F1 9863   9.297   2.867   7.178  0.2582  0.0429 -0.2476
    4BIM     F2 9864   9.201   2.680   7.005 -0.0083 -0.0734  0.0237
    4BIM     O1 9865   9.088   3.319   6.965  0.2379 -0.0579 -0.4421
    4BIM     N5 9866   8.914   2.733   6.605 -0.4055 -0.3124  0.2751
    4BIM     N6 9867   8.770   3.124   6.474 -0.3679 -0.3676  0.0683
    4BIM    C19 9868   8.922   3.301   6.725 -0.0239 -0.2047 -0.2522
    4BIM    C20 9869   8.978   3.194   6.785 -0.0083 -0.1748 -0.2139
    4BIM    C21 9870   9.062   3.212   6.908  0.1297 -0.0991 -0.3175
    4BIM    C22 9871   9.108   3.077   6.947  0.1099 -0.0836 -0.2419
    4BIM    C23 9872   9.188   3.043   7.056  0.2089 -0.0202 -0.2943
    4BIM    C24 9873   9.218   2.908   7.073  0.1657 -0.0183 -0.2024
    4BIM    C25 9874   9.168   2.812   6.983  0.0288 -0.0783 -0.0628
    4BIM    C26 9875   9.088   2.846   6.875 -0.0703 -0.1417 -0.0097
    4BIM    C27 9876   9.057   2.981   6.856 -0.0291 -0.1447 -0.1010
    4BIM    C28 9877   8.975   3.050   6.753 -0.1073 -0.2032 -0.0783
    4BIM    C29 9878   8.910   2.990   6.648 -0.2449 -0.2705  0.0449
    4BIM    C30 9879   8.913   2.849   6.624 -0.3326 -0.2933  0.1709
    4BIM    C31 9880   8.834   3.064   6.553 -0.3116 -0.3235  0.0571
    5BIM     F1 9881  10.224   4.487   7.393  0.0677  0.2187 -0.2812
    5BIM     F2 9882  10.286   4.749   7.348 -0.0630  0.2719 -0.1571
    5BIM     O1 9883   9.726   4.463   7.184 -0.0666  0.1627  0.0442
    5BIM     N5 9884  10.020   5.106   7.134 -0.3465  0.3082  0.2527
    5BIM     N6 9885   9.618   5.034   6.979 -0.4252  0.2537  0.4818
    5BIM    C19 9886   9.608   4.703   7.066 -0.2392  0.1937  0.2780
    5BIM    C20 9887   9.731   4.699   7.121 -0.2003  0.2056  0.1915
    5BIM    C21 9888   9.785   4.572   7.179 -0.1115  0.1885  0.0733
    5BIM    C22 9889   9.920   4.602   7.229 -0.0887  0.2079  0.0005
    5BIM    C23 9890  10.009   4.516   7.292 -0.0127  0.2016 -0.1158
    5BIM    C24 9891  10.132   4.568   7.331 -0.0058  0.2234 -0.1666
    5BIM    C25 9892  10.163   4.702   7.308 -0.0732  0.2508 -0.1025
    5BIM    C26 9893  10.075   4.789   7.245 -0.1492  0.2573  0.0134
    5BIM    C27 9894   9.950   4.739   7.205 -0.1574  0.2353  0.0663
    5BIM    C28 9895   9.835   4.803   7.137 -0.2286  0.2350  0.1862
    5BIM    C29 9896   9.827   4.935   7.098 -0.3060  0.2577  0.2754
    5BIM    C30 9897   9.933   5.029   7.118 -0.3280  0.2853  0.2625
    5BIM    C31 9898   9.712   4.989   7.033 -0.3711  0.2552  0.3884
    1BTD     S2 9899   9.401   8.325   8.370 -0.1348 -0.1912  0.1843
    1BTD     N1 9900   9.553   8.286   8.460 -0.0792 -0.1335  0.1163
    1BTD     N2 9901   9.436   8.501   8.359 -0.2105 -0.1767  0.1736
    1BTD     N3 9902   9.781   8.789   8.498 -0.2642 -0.0422  0.0296
    1BTD     N4 9903   9.924   8.524   8.622 -0.1023  0.0110 -0.0412
    1BTD     C5 9904   9.745   8.413   8.543 -0.0932 -0.0584  0.0350
    1BTD     C6 9905   9.618   8.400   8.476 -0.1180 -0.1073  0.0906
    1BTD     C7 9906   9.553   8.521   8.420 -0.1915 -0.1318  0.1225
    1BTD     C8 9907   9.618   8.648   8.433 -0.2367 -0.1059  0.0975
    1BTD    C15 9908   9.742   8.657   8.500 -0.2103 -0.0584  0.0429
    1BTD    C16 9909   9.804   8.540   8.554 -0.1395 -0.0346  0.0118
    1BTD    C43 9910   9.986   8.619   8.713  0.2469 -0.7187  0.6070
    1BTD    C44 9911  10.136   8.634   8.755  0.9143  0.3212 -0.5142
    1BTD    C45 9912  10.238   8.664   8.639  0.5945 -0.4894 -0.2643
    1BTD    C46 9913  10.243   8.562   8.521 -0.2047 -0.6202 -0.3907
    1BTD    C47 9914  10.151   8.720   8.882  0.0608  0.9851  0.4674
    1BTD    C48 9915  10.136   8.871   8.898 -0.2028  0.6476 -0.3977
    1BTD    C49 9916  10.004   8.936   8.873 -0.2538 -0.3068  0.2959
    1BTD    C50 9917  10.024   9.085   8.912 -0.0733  0.1857  0.6965
    1BTD    C75 9918   9.913   8.854   8.504 -0.3925  0.3389 -0.2498
    1BTD    C76 9919   9.998   8.867   8.377  0.4710 -0.3199 -0.5578
    1BTD    C77 9920  10.006   8.746   8.282  0.1532  0.0023  0.3459
    1BTD    C78 9921  10.078   8.775   8.148  0.2764  0.4432  0.2442
    1BTD    C79 9922  10.134   8.929   8.411  0.3642 -0.0711  0.2036
    1BTD    C80 9923  10.131   9.065   8.498 -0.8483 -0.3649  0.5891
    1BTD    C81 9924  10.278   9.119   8.507  0.1932 -0.5116 -0.1902
    1BTD    C82 9925  10.283   9.217   8.625  0.1417 -0.1029 -0.3249
    2TTP     S1 9926   9.835   8.144   8.647 -0.0583 -0.0734 -0.0849
    2TTP     S5 9927  10.204   8.324   8.777 -0.0961 -0.1905  0.1853
    2TTP     C1 9928  10.211   8.146   8.813 -0.1220 -0.2158  0.0617
    2TTP     C2 9929  10.097   8.079   8.775 -0.1119 -0.1812 -0.0288
    2TTP     C3 9930  10.001   8.167   8.716 -0.0833 -0.1333 -0.0043
    2TTP     C4 9931   9.828   8.322   8.612 -0.0323 -0.0477  0.0386
    2TTP    C17 9932   9.942   8.388   8.650 -0.0424 -0.0824  0.1291
    2TTP    C18 9933  10.038   8.300   8.708 -0.0711 -0.1307  0.1044
    2TTP    C32 9934  10.071   7.931   8.786  0.4040  0.6587 -0.4421
    2TTP    C33 9935   9.947   7.877   8.863  0.2394 -0.5794  0.5855
    2TTP    C34 9936   9.891   7.737   8.835 -0.1806  0.4610  0.2565
    2TTP    C35 9937   9.985   7.618   8.836 -0.0803  0.4520  0.7880
    2TTP    C36 9938   9.903   7.489   8.824 -0.0475  0.3401 -0.4393
    2TTP    C37 9939   9.981   7.360   8.830  0.1829 -0.1317 -0.2933
    2TTP    C38 9940  10.122   7.349   8.769 -0.2061 -0.0018 -0.5212
    2TTP    C39 9941  10.189   7.207   8.780 -0.2593  0.5487  0.8776
    2TTP    C40 9942  10.183   7.122   8.905  0.0230  0.5131 -0.0593
    2TTP    C41 9943  10.250   7.188   9.032  0.4402  0.3103 -0.2167
    2TTP    C42 9944  10.272   7.085   9.144 -0.1000 -0.2162 -0.4003
    3TTP     S1 9945   9.443   8.876   8.318 -0.0626 -0.1096 -0.1938
    3TTP     S5 9946   9.757   9.150   8.422 -0.0310 -0.0720 -0.3874
    3TTP     C1 9947   9.623   9.244   8.343 -0.0928 -0.0874 -0.3008
    3TTP     C2 9948   9.518   9.165   8.306 -0.1061 -0.0999 -0.2356
    3TTP     C3 9949   9.540   9.027   8.339 -0.0682 -0.0978 -0.2522
    3TTP     C4 9950   9.577   8.783   8.397 -0.0007 -0.0942 -0.2801
    3TTP    C17 9951   9.682   8.862   8.434  0.0126 -0.0817 -0.3453
    3TTP    C18 9952   9.660   8.999   8.401 -0.0255 -0.0839 -0.3290
    3TTP    C32 9953   9.382   9.212   8.237 -0.2137  0.1283 -0.1046
    3TTP    C33 9954   9.251   9.162   8.296 -0.4029 -0.3593  0.3613
    3TTP    C34 9955   9.120   9.209   8.231 -0.4523  0.6807  0.1459
    3TTP    C35 9956   9.085   9.358   8.218 -0.2083  0.9198  0.0804
    3TTP    C36 9957   9.028   9.390   8.081 -0.0606  0.0672  0.1831
    3TTP    C37 9958   9.011   9.533   8.027  0.1179 -0.2273  0.2964
    3TTP    C38 9959   8.943   9.534   7.889 -0.9583  0.3782 -0.1474
    3TTP    C39 9960   8.938   9.665   7.814  0.2575  0.2976  0.2307
    3TTP    C40 9961   8.818   9.742   7.844  0.6812  0.4625 -0.0333
    3TTP    C41 9962   8.814   9.875   7.769 -0.0650  1.3664  0.6608
    3TTP    C42 9963   8.698   9.940   7.833  0.3379 -0.1518 -0.1971
    4BIM     F1 9964  10.976   8.382   8.989  0.0497 -0.1190  0.0257
    4BIM     F2 9965  10.998   8.167   9.154 -0.0655 -0.0196  0.1714
    4BIM     O1 9966  10.475   8.312   8.795  0.1136 -0.1307 -0.1349
    4BIM     N5 9967  10.673   7.807   9.252 -0.1857  0.1153  0.2658
    4BIM     N6 9968  10.277   7.796   9.068 -0.1126  0.0861  0.1106
    4BIM    C19 9969  10.318   8.082   8.883  0.0261 -0.0397 -0.0534
    4BIM    C20 9970  10.444   8.108   8.926  0.0146 -0.0405 -0.0181
    4BIM    C21 9971  10.518   8.228   8.876  0.0619 -0.0889 -0.0641
    4BIM    C22 9972  10.650   8.226   8.941  0.0346 -0.0765 -0.0091
    4BIM    C23 9973  10.754   8.318   8.926  0.0611 -0.1092 -0.0246
    4BIM    C24 9974  10.869   8.296   8.999  0.0264 -0.0888  0.0372
    4BIM    C25 9975  10.881   8.184   9.084 -0.0330 -0.0376  0.1123
    4BIM    C26 9976  10.778   8.093   9.099 -0.0598 -0.0050  0.1278
    4BIM    C27 9977  10.659   8.114   9.027 -0.0253 -0.0248  0.0663
    4BIM    C28 9978  10.533   8.036   9.020 -0.0399 -0.0005  0.0634
    4BIM    C29 9979  10.504   7.921   9.089 -0.0938  0.0494  0.1249
    4BIM    C30 9980  10.597   7.859   9.179 -0.1441  0.0854  0.2022
    4BIM    C31 9981  10.379   7.853   9.077 -0.1038  0.0694  0.1166
    5BIM     F1 9982  10.234   9.789   8.278 -0.0730  0.0105  0.2420
    5BIM     F2 9983  10.048   9.985   8.242 -0.0429 -0.0417 -0.2112
    5BIM     O1 9984   9.915   9.354   8.325 -0.1049  0.0510  0.4003
    5BIM     N5 9985   9.555   9.957   8.225 -0.0226 -0.0873 -0.7496
    5BIM     N6 9986   9.343   9.577   8.269 -0.0536 -0.0453 -0.5345
    5BIM    C19 9987   9.625   9.387   8.308 -0.0875  0.0159  0.0239
    5BIM    C20 9988   9.712   9.489   8.298 -0.0807  0.0076  0.0017
    5BIM    C21 9989   9.860   9.464   8.308 -0.0904  0.0269  0.2034
    5BIM    C22 9990   9.926   9.595   8.292 -0.0793  0.0114  0.1204
    5BIM    C23 9991  10.062   9.623   8.294 -0.0828  0.0210  0.2449
    5BIM    C24 9992  10.100   9.755   8.277 -0.0703  0.0025  0.1289
    5BIM    C25 9993  10.005   9.856   8.259 -0.0549 -0.0242 -0.1043
    5BIM    C26 9994   9.868   9.829   8.257 -0.0513 -0.0334 -0.2301
    5BIM    C27 9995   9.828   9.696   8.274 -0.0638 -0.0155 -0.1156
    5BIM    C28 9996   9.693   9.634   8.276 -0.0640 -0.0188 -0.1976
    5BIM    C29 9997   9.573   9.700   8.262 -0.0512 -0.0420 -0.4165
    5BIM    C30 9998   9.563   9.841   8.242 -0.0355 -0.0665 -0.5989
    5BIM    C31 9999   9.447   9.632   8.266 -0.0525 -0.0439 -0.4802
    1BTD     S210000   5.173   2.293   9.445  0.2619 -0.0804 -0.1109
    1BTD     N110001   5.154   2.421   9.320  0.1012  0.0870  0.0854
    1BTD     N210002   5.318   2.367   9.520  0.3321 -0.1578 -0.1702
    1BTD     N310003   5.580   2.750   9.448  0.1851 -0.0133  0.0629
    1BTD     N410004   5.377   2.817   9.202 -0.0994  0.2882  0.3777
    1BTD     C510005   5.273   2.627   9.262 -0.0001  0.1884  0.2344
    1BTD     C610006   5.252   2.508   9.340  0.1076  0.0771  0.0961
    1BTD     C710007   5.344   2.478   9.452  0.2371 -0.0600 -0.0470
    1BTD     C810008   5.453   2.568   9.480  0.2519 -0.0788 -0.0448
    1BTD    C1510009   5.470   2.683   9.400  0.1435  0.0332  0.0936
    1BTD    C1610010   5.381   2.712   9.292  0.0190  0.1653  0.2311
    1BTD    C4310011   5.402   2.959   9.243  0.3320  0.6572  0.5774
    1BTD    C4410012   5.425   3.077   9.149 -0.0190  0.8755  0.5971
    1BTD    C4510013   5.402   3.211   9.224 -0.4976  0.2180 -0.4623
    1BTD    C4610014   5.400   3.342   9.139 -0.0558  0.0520 -0.2387
    1BTD    C4710015   5.554   3.054   9.071 -0.4748 -0.1240  0.0350
    1BTD    C4810016   5.582   3.132   8.946  0.4209 -0.3788  0.4594
    1BTD    C4910017   5.703   3.093   8.862  0.3436  0.1791  0.0761
    1BTD    C5010018   5.740   3.193   8.757 -0.1182  0.3814 -0.1588
    1BTD    C7510019   5.661   2.853   9.377  0.1129  0.9373  0.2547
    1BTD    C7610020   5.748   2.957   9.448  0.6218 -0.0022  0.5164
    1BTD    C7710021   5.685   3.043   9.563 -0.1943  0.1206  0.0567
    1BTD    C7810022   5.575   3.140   9.521  0.2660 -0.2059 -0.0799
    1BTD    C7910023   5.835   3.038   9.345 -0.6326  0.5184  0.1787
    1BTD    C8010024   5.942   3.147   9.375 -0.2859 -0.0557  0.0034
    1BTD    C8110025   6.068   3.084   9.440  0.1150 -0.2338 -0.3087
    1BTD    C8210026   6.169   3.187   9.484  0.1688  0.1301 -0.6047
    2TTP     S110027   5.055   2.652   9.054  0.0149  0.0783  0.2448
    2TTP     S510028   5.257   2.993   8.888  0.0449 -0.1350 -0.1585
    2TTP     C110029   5.109   2.959   8.788 -0.0437 -0.1440 -0.0246
    2TTP     C210030   5.038   2.852   8.834 -0.0583 -0.0786  0.1080
    2TTP     C310031   5.098   2.793   8.949  0.0004 -0.0192  0.1082
    2TTP     C410032   5.203   2.686   9.154  0.1035  0.0874  0.1106
    2TTP    C1710033   5.275   2.793   9.109  0.1182  0.0219 -0.0218
    2TTP    C1810034   5.215   2.853   8.993  0.0598 -0.0376 -0.0224
    2TTP    C3210035   4.912   2.787   8.767 -0.2930 -0.1278  0.3200
    2TTP    C3310036   4.848   2.661   8.817 -0.4090 -0.1209  0.1432
    2TTP    C3410037   4.707   2.633   8.761  0.0751  0.0844 -0.0026
    2TTP    C3510038   4.600   2.722   8.821 -0.3302  0.1725  0.5773
    2TTP    C3610039   4.462   2.697   8.759  0.0939  0.1429 -0.2915
    2TTP    C3710040   4.375   2.826   8.766 -0.3001  0.1208 -0.2317
    2TTP    C3810041   4.244   2.799   8.702  0.2567  0.0030  0.4325
    2TTP    C3910042   4.149   2.915   8.728  0.1125  0.2447 -0.7030
    2TTP    C4010043   4.028   2.903   8.631 -0.4953  0.6383  0.1240
    2TTP    C4110044   3.912   2.989   8.669  0.5575  0.1809  0.0885
    2TTP    C4210045   3.779   2.960   8.596 -0.4551  0.3196  0.1541
    3TTP     S110046   5.616   2.457   9.700 -0.2634 -0.1223 -0.3533
    3TTP     S510047   5.895   2.782   9.667 -0.3378 -0.0287 -0.0684
    3TTP     C110048   5.953   2.669   9.797 -0.2734 -0.1684 -0.2176
    3TTP     C210049   5.870   2.562   9.815 -0.2466 -0.2055 -0.3143
    3TTP     C310050   5.758   2.565   9.727 -0.2761 -0.1249 -0.2742
    3TTP     C410051   5.558   2.570   9.570 -0.3278  0.0174 -0.2041
    3TTP    C1710052   5.641   2.677   9.552 -0.3546  0.0546 -0.1074
    3TTP    C1810053   5.753   2.673   9.641 -0.3252 -0.0260 -0.1476
    3TTP    C3210054   5.898   2.445   9.904  0.5897  0.1104 -1.0309
    3TTP    C3310055   5.835   2.444  10.044  0.2144  0.4728  0.8073
    3TTP    C3410056   5.839   2.309  10.117 -0.2775  0.1815  0.5659
    3TTP    C3510057   5.795   2.294  10.258 -0.0086 -0.4171 -1.0342
    3TTP    C3610058   5.811   2.148  10.307  0.2725 -0.3104  0.4320
    3TTP    C3710059   5.762   2.110  10.443 -0.1436  0.0447 -0.2566
    3TTP    C3810060   5.768   1.963  10.475  0.1444  0.2871 -0.0034
    3TTP    C3910061   5.717   1.932  10.614 -0.8211 -0.5240 -0.0916
    3TTP    C4010062   5.742   1.790  10.669  0.4799 -0.1234  0.5167
    3TTP    C4110063   5.668   1.770  10.792  0.3508 -0.2463 -0.0683
    3TTP    C4210064   5.687   1.624  10.828  0.0034 -0.1033 -0.6530
    4BIM     F110065   5.361   3.673   8.474  0.1111 -0.2233 -0.2708
    4BIM     F210066   5.218   3.616   8.249 -0.1961 -0.1990 -0.0832
    4BIM     O110067   5.245   3.241   8.780  0.1988 -0.0558 -0.0002
    4BIM     N510068   4.931   3.228   8.144 -0.5754 -0.0451  0.3793
    4BIM     N610069   4.868   2.902   8.428 -0.4450  0.0809  0.5527
    4BIM    C1910070   5.067   3.034   8.674 -0.0637  0.0267  0.2749
    4BIM    C2010071   5.102   3.145   8.605 -0.0737 -0.0164  0.1996
    4BIM    C2110072   5.194   3.247   8.667  0.0664 -0.0571  0.0589
    4BIM    C2210073   5.211   3.354   8.567  0.0151 -0.0983  0.0057
    4BIM    C2310074   5.287   3.470   8.578  0.1042 -0.1441 -0.1204
    4BIM    C2410075   5.288   3.556   8.470  0.0301 -0.1772 -0.1478
    4BIM    C2510076   5.214   3.527   8.354 -0.1282 -0.1648 -0.0512
    4BIM    C2610077   5.138   3.412   8.342 -0.2178 -0.1191  0.0751
    4BIM    C2710078   5.136   3.323   8.450 -0.1447 -0.0850  0.1047
    4BIM    C2810079   5.066   3.193   8.470 -0.2055 -0.0342  0.2277
    4BIM    C2910080   4.984   3.130   8.379 -0.3557 -0.0086  0.3448
    4BIM    C3010081   4.955   3.184   8.250 -0.4761 -0.0287  0.3633
    4BIM    C3110082   4.921   3.005   8.407 -0.4040  0.0405  0.4587
    5BIM     F110083   6.638   3.114   9.730  0.3002 -0.2165 -0.1177
    5BIM     F210084   6.724   3.008   9.966 -0.0075  0.1206  0.1480
    5BIM     O110085   6.161   2.864   9.673  0.3268 -0.2185 -0.3289
    5BIM     N510086   6.507   2.677  10.264 -0.4309  0.6039  0.3795
    5BIM     N610087   6.117   2.503  10.171 -0.3483  0.5343  0.1610
    5BIM    C1910088   6.074   2.674   9.877  0.0421  0.1029 -0.1500
    5BIM    C2010089   6.190   2.741   9.883  0.0474  0.0902 -0.1073
    5BIM    C2110090   6.228   2.837   9.774  0.1982 -0.0796 -0.2053
    5BIM    C2210091   6.360   2.892   9.810  0.1627 -0.0478 -0.1259
    5BIM    C2310092   6.436   2.985   9.740  0.2655 -0.1665 -0.1728
    5BIM    C2410093   6.558   3.022   9.795  0.2052 -0.1062 -0.0783
    5BIM    C2510094   6.602   2.968   9.916  0.0464  0.0675  0.0585
    5BIM    C2610095   6.527   2.875   9.987 -0.0567  0.1867  0.1060
    5BIM    C2710096   6.403   2.836   9.933  0.0024  0.1280  0.0119
    5BIM    C2810097   6.300   2.741   9.982 -0.0749  0.2198  0.0288
    5BIM    C2910098   6.306   2.667  10.098 -0.2300  0.3918  0.1478
    5BIM    C3010099   6.417   2.673  10.189 -0.3399  0.5078  0.2748
    5BIM    C3110100   6.202   2.577  10.138 -0.2941  0.4692  0.1544
    1BTD     S210101   5.042   1.305   6.520 -0.0359  0.0454 -0.1822
    1BTD     N110102   5.034   1.131   6.565  0.0590  0.0614 -0.1020
    1BTD     N210103   5.175   1.343   6.635 -0.1494  0.2007 -0.1016
    1BTD     N310104   5.431   1.107   6.950 -0.2099  0.5463  0.2074
    1BTD     N410105   5.257   0.846   6.864  0.0468  0.3746  0.2071
    1BTD     C510106   5.152   0.985   6.722  0.0496  0.2270  0.0594
    1BTD     C610107   5.126   1.111   6.658  0.0039  0.1758 -0.0235
    1BTD     C710108   5.205   1.230   6.697 -0.1128  0.2538 -0.0231
    1BTD     C810109   5.307   1.217   6.798 -0.1780  0.3791  0.0597
    1BTD    C1510110   5.329   1.091   6.858 -0.1296  0.4253  0.1391
    1BTD    C1610111   5.253   0.977   6.820 -0.0174  0.3501  0.1389
    1BTD    C4310112   5.366   0.768   6.934 -0.0686 -0.0509  0.1453
    1BTD    C4410113   5.480   0.688   6.866 -0.8972 -0.2743 -0.2518
    1BTD    C4510114   5.570   0.628   6.979  0.5039 -0.2595  0.5755
    1BTD    C4610115   5.691   0.549   6.926 -0.2065  0.5538  0.0319
    1BTD    C4710116   5.550   0.759   6.744 -0.7137  0.3412 -0.6009
    1BTD    C4810117   5.631   0.883   6.762 -1.1847  0.3149 -0.7557
    1BTD    C4910118   5.661   0.950   6.624  0.3827  0.8503  0.2047
    1BTD    C5010119   5.739   1.076   6.626  0.4550 -0.2004 -0.6991
    1BTD    C7510120   5.431   1.042   7.083  0.4687  0.0297  0.2257
    1BTD    C7610121   5.548   1.027   7.179 -0.7562  0.4493 -0.0953
    1BTD    C7710122   5.527   0.958   7.321  0.6117 -0.3262  0.1976
    1BTD    C7810123   5.437   1.047   7.410 -0.1760  0.9538  0.3625
    1BTD    C7910124   5.664   0.957   7.106  0.4940  0.0096  0.2393
    1BTD    C8010125   5.801   0.944   7.167 -0.4503  0.0745 -0.0722
    1BTD    C8110126   5.914   0.874   7.088  0.3092  0.1823  0.7709
    1BTD    C8210127   5.958   0.960   6.971  0.0054 -0.5340 -0.5914
    2TTP     S110128   4.979   0.769   6.601  0.5036 -0.1812 -0.2759
    2TTP     S510129   5.173   0.483   6.857  0.3524 -0.0706 -0.0373
    2TTP     C110130   5.053   0.395   6.752  0.5444 -0.1415 -0.1976
    2TTP     C210131   4.986   0.478   6.666  0.6021 -0.1798 -0.2809
    2TTP     C310132   5.027   0.614   6.681  0.4972 -0.1546 -0.2208
    2TTP     C410133   5.098   0.857   6.706  0.3116 -0.1103 -0.1155
    2TTP    C1710134   5.165   0.774   6.791  0.2537 -0.0720 -0.0324
    2TTP    C1810135   5.125   0.638   6.776  0.3588 -0.0972 -0.0923
    2TTP    C3210136   4.870   0.454   6.562 -1.0791 -0.0108  0.5797
    2TTP    C3310137   4.734   0.506   6.600  0.0812  0.8987 -0.0676
    2TTP    C3410138   4.621   0.453   6.514  0.6863  0.1499  0.4053
    2TTP    C3510139   4.487   0.501   6.553  0.5428  0.0324 -0.3454
    2TTP    C3610140   4.376   0.437   6.480 -0.2794  0.1161 -0.3957
    2TTP    C3710141   4.233   0.483   6.518  0.5322  0.0535 -0.1718
    2TTP    C3810142   4.113   0.405   6.459 -0.1080 -0.2407  0.6335
    2TTP    C3910143   4.096   0.401   6.306  0.0057  0.2819 -0.1282
    2TTP    C4010144   4.070   0.535   6.239  0.2681  0.7861  0.2981
    2TTP    C4110145   4.036   0.515   6.091  0.1367  0.7455 -0.2966
    2TTP    C4210146   4.050   0.649   6.020  0.2688 -0.2592  0.2587
    3TTP     S110147   5.440   1.484   6.839  0.1889 -0.0293 -0.0781
    3TTP     S510148   5.734   1.289   7.084  0.1251  0.1139  0.1140
    3TTP     C110149   5.781   1.463   7.065  0.2061  0.0707 -0.0948
    3TTP     C210150   5.693   1.534   6.989  0.2308  0.0239 -0.1663
    3TTP     C310151   5.585   1.453   6.942  0.1863  0.0205 -0.0589
    3TTP     C410152   5.393   1.309   6.858  0.1079  0.0140  0.1307
    3TTP    C1710153   5.481   1.239   6.935  0.0833  0.0607  0.2021
    3TTP    C1810154   5.589   1.320   6.981  0.1277  0.0641  0.0948
    3TTP    C3210155   5.697   1.680   6.932 -0.2641  0.0263 -0.2024
    3TTP    C3310156   5.634   1.784   7.018  0.5939 -0.2648 -0.2731
    3TTP    C3410157   5.641   1.924   6.965 -0.1901  0.0072  0.2970
    3TTP    C3510158   5.572   2.044   7.031 -0.7265 -0.1716  0.0736
    3TTP    C3610159   5.649   2.145   7.115  0.0426 -0.4857  0.2660
    3TTP    C3710160   5.667   2.094   7.250  0.1791  0.2754  0.3067
    3TTP    C3810161   5.726   2.196   7.345  0.5132 -0.1776 -0.6948
    3TTP    C3910162   5.738   2.166   7.502 -0.4560  0.0180  0.0690
    3TTP    C4010163   5.619   2.095   7.563  0.1385 -0.1958  0.3694
    3TTP    C4110164   5.650   2.064   7.709 -0.4118  0.6220 -0.5988
    3TTP    C4210165   5.709   1.926   7.737 -0.2802 -0.5663 -0.1330
    4BIM     F110166   5.431  -0.257   7.057 -0.1788 -0.2141 -0.1727
    4BIM     F210167   5.210  -0.405   7.000 -0.1183 -0.1836 -0.4886
    4BIM     O110168   5.279   0.229   6.872 -0.0839 -0.0515  0.1726
    4BIM     N510169   4.784  -0.273   6.786  0.0362 -0.0241 -0.6971
    4BIM     N610170   4.710   0.137   6.652  0.0980  0.0967 -0.3637
    4BIM    C1910171   5.014   0.259   6.751  0.0075  0.0353 -0.0068
    4BIM    C2010172   5.061   0.143   6.800 -0.0187 -0.0068 -0.0814
    4BIM    C2110173   5.198   0.135   6.861 -0.0654 -0.0498  0.0193
    4BIM    C2210174   5.217  -0.005   6.904 -0.0844 -0.0892 -0.0995
    4BIM    C2310175   5.329  -0.060   6.965 -0.1268 -0.1361 -0.0647
    4BIM    C2410176   5.324  -0.195   6.997 -0.1373 -0.1672 -0.1982
    4BIM    C2510177   5.210  -0.272   6.967 -0.1061 -0.1511 -0.3608
    4BIM    C2610178   5.098  -0.217   6.906 -0.0637 -0.1047 -0.3965
    4BIM    C2710179   5.101  -0.080   6.873 -0.0526 -0.0727 -0.2631
    4BIM    C2810180   5.001   0.007   6.808 -0.0110 -0.0215 -0.2583
    4BIM    C2910181   4.876  -0.030   6.765  0.0277  0.0069 -0.3923
    4BIM    C3010182   4.826  -0.163   6.776  0.0322 -0.0103 -0.5594
    4BIM    C3110183   4.785   0.062   6.703  0.0662  0.0562 -0.3759
    5BIM     F110184   6.457   1.227   7.467 -0.1363 -0.0724  0.0068
    5BIM     F210185   6.566   1.470   7.411  0.0615 -0.1858 -0.1003
    5BIM     O110186   5.967   1.280   7.242 -0.0988  0.2316 -0.0038
    5BIM     N510187   6.374   1.857   7.169  0.3725 -0.1322 -0.2619
    5BIM     N610188   5.969   1.849   7.005  0.3618  0.1283 -0.2486
    5BIM    C1910189   5.897   1.531   7.108  0.1034  0.2313 -0.1099
    5BIM    C2010190   6.016   1.508   7.167  0.0863  0.1592 -0.1030
    5BIM    C2110191   6.045   1.376   7.234 -0.0199  0.1647 -0.0472
    5BIM    C2210192   6.182   1.385   7.287 -0.0112  0.0752 -0.0544
    5BIM    C2310193   6.252   1.288   7.357 -0.0895  0.0476 -0.0142
    5BIM    C2410194   6.381   1.319   7.397 -0.0626 -0.0406 -0.0309
    5BIM    C2510195   6.437   1.444   7.368  0.0390 -0.0989 -0.0862
    5BIM    C2610196   6.368   1.542   7.298  0.1175 -0.0718 -0.1264
    5BIM    C2710197   6.237   1.512   7.257  0.0920  0.0172 -0.1103
    5BIM    C2810198   6.137   1.592   7.182  0.1560  0.0665 -0.1425
    5BIM    C2910199   6.154   1.721   7.135  0.2600  0.0328 -0.1980
    5BIM    C3010200   6.275   1.795   7.154  0.3215 -0.0578 -0.2328
    5BIM    C3110201   6.052   1.791   7.063  0.3153  0.0855 -0.2254
    1BTD     S210202   5.840   4.486   2.076  0.2637 -0.0054 -0.2646
    1BTD     N110203   5.816   4.310   2.099  0.0329  0.0539 -0.0358
    1BTD     N210204   5.978   4.497   2.191  0.4172 -0.0739 -0.4404
    1BTD     N310205   6.215   4.200   2.467  0.3134 -0.1062 -0.3855
    1BTD     N410206   6.016   3.969   2.353 -0.1602  0.0512  0.1131
    1BTD     C510207   5.923   4.135   2.233 -0.0623  0.0505  0.0359
    1BTD     C610208   5.908   4.270   2.186  0.0798  0.0213 -0.0990
    1BTD     C710209   5.998   4.375   2.238  0.2950 -0.0502 -0.3254
    1BTD     C810210   6.099   4.339   2.334  0.3573 -0.0889 -0.4058
    1BTD    C1510211   6.111   4.206   2.376  0.2130 -0.0581 -0.2679
    1BTD    C1610212   6.024   4.104   2.326  0.0057  0.0109 -0.0496
    1BTD    C4310213   6.127   3.881   2.399 -0.4795 -0.1880  0.6982
    1BTD    C4410214   6.217   3.809   2.295 -0.2679 -1.7147 -0.1716
    1BTD    C4510215   6.282   3.895   2.182  0.4359 -0.0972  0.3216
    1BTD    C4610216   6.376   4.010   2.202  0.1669 -0.0111 -0.1815
    1BTD    C4710217   6.314   3.710   2.358  0.0290 -0.4457  1.0322
    1BTD    C4810218   6.258   3.606   2.443 -0.1720 -0.1656 -0.1727
    1BTD    C4910219   6.375   3.529   2.503 -0.6423  0.5072  0.7354
    1BTD    C5010220   6.353   3.416   2.605 -1.0741 -0.0763 -0.3777
    1BTD    C7510221   6.240   4.106   2.575  0.6663 -0.0427 -1.0110
    1BTD    C7610222   6.164   4.118   2.712  0.2212  0.3488  0.6044
    1BTD    C7710223   6.177   4.255   2.776 -0.2137 -0.2864  0.2491
    1BTD    C7810224   6.091   4.290   2.893  0.0961 -0.1968 -0.1491
    1BTD    C7910225   6.182   4.001   2.809 -0.9762 -0.0508 -0.2724
    1BTD    C8010226   6.321   3.966   2.866 -0.1887  0.1687  0.0301
    1BTD    C8110227   6.327   3.832   2.933 -0.4359 -0.0587 -0.1804
    1BTD    C8210228   6.458   3.829   2.998 -0.6434 -0.2008 -0.0597
    2TTP     S110229   5.718   3.952   2.102 -0.0457  0.1134 -0.0522
    2TTP     S510230   5.843   3.629   2.358  0.1374  0.2893  0.0810
    2TTP     C110231   5.700   3.573   2.260  0.1157  0.1960  0.1655
    2TTP     C210232   5.653   3.670   2.175  0.0578  0.1362  0.1293
    2TTP     C310233   5.729   3.791   2.184  0.0286  0.1618  0.0336
    2TTP     C410234   5.862   4.007   2.200 -0.0238  0.2066 -0.1367
    2TTP    C1710235   5.909   3.911   2.284  0.0339  0.2663 -0.1005
    2TTP    C1810236   5.833   3.790   2.275  0.0631  0.2407 -0.0049
    2TTP    C3210237   5.528   3.671   2.084  0.6447 -0.3097 -0.1343
    2TTP    C3310238   5.403   3.761   2.123 -0.0580  0.9448 -0.8038
    2TTP    C3410239   5.285   3.737   2.028  0.3445  0.4575 -0.1907
    2TTP    C3510240   5.310   3.830   1.917  0.6649  0.0461  0.0418
    2TTP    C3610241   5.213   3.806   1.803  0.9082 -0.1421  1.2710
    2TTP    C3710242   5.217   3.906   1.684 -0.0017  0.5062  0.0852
    2TTP    C3810243   5.127   3.857   1.570  0.1280 -0.4560  0.4072
    2TTP    C3910244   5.138   3.949   1.449  0.2640  0.1858  0.1824
    2TTP    C4010245   5.075   3.890   1.318  0.1563  0.4595 -0.3001
    2TTP    C4110246   5.102   3.985   1.208 -0.0129 -0.6139  0.3376
    2TTP    C4210247   5.031   3.946   1.082 -0.7906 -0.1809  0.2979
    3TTP     S110248   6.277   4.576   2.381  0.0264  0.0321  0.2564
    3TTP     S510249   6.547   4.315   2.591  0.2297 -0.0005 -0.0438
    3TTP     C110250   6.629   4.476   2.567  0.1155  0.0818  0.1148
    3TTP     C210251   6.551   4.566   2.501  0.0461  0.0968  0.2168
    3TTP     C310252   6.423   4.511   2.467  0.0803  0.0437  0.1734
    3TTP     C410253   6.196   4.415   2.405  0.1404 -0.0503  0.0977
    3TTP    C1710254   6.274   4.325   2.472  0.2100 -0.0652 -0.0043
    3TTP    C1810255   6.402   4.380   2.506  0.1756 -0.0122  0.0392
    3TTP    C3210256   6.580   4.704   2.445  0.0107 -0.0681 -0.1234
    3TTP    C3310257   6.609   4.709   2.297 -0.1685  0.5105 -0.4425
    3TTP    C3410258   6.650   4.854   2.276 -0.0816 -0.8193 -0.6139
    3TTP    C3510259   6.725   4.886   2.150 -0.2923 -0.8092  0.3916
    3TTP    C3610260   6.712   5.040   2.117 -0.3702  0.1832 -0.3909
    3TTP    C3710261   6.621   5.073   2.007 -0.4557 -0.4186  0.5571
    3TTP    C3810262   6.618   5.226   1.981  0.0253  0.1023 -0.1194
    3TTP    C3910263   6.532   5.264   1.854 -0.7856 -0.1016 -0.6121
    3TTP    C4010264   6.524   5.406   1.784  0.5159  0.5919 -0.3298
    3TTP    C4110265   6.660   5.480   1.781 -0.0619 -0.3106 -0.3194
    3TTP    C4210266   6.674   5.622   1.725  0.7934 -0.0553  0.5186
    4BIM     F110267   5.667   2.986   2.835 -0.0716  0.0580  0.0914
    4BIM     F210268   5.569   2.817   2.646  0.1415 -0.0328  0.0613
    4BIM     O110269   5.714   3.443   2.547 -0.3721  0.0929  0.0972
    4BIM     N510270   5.461   2.898   2.170  0.2337 -0.1386  0.0221
    4BIM     N610271   5.518   3.289   1.983 -0.0441 -0.0929  0.0327
    4BIM    C1910272   5.637   3.443   2.265 -0.2752  0.0185  0.0704
    4BIM    C2010273   5.629   3.335   2.345 -0.2081  0.0133  0.0701
    4BIM    C2110274   5.671   3.343   2.489 -0.2643  0.0532  0.0843
    4BIM    C2210275   5.649   3.208   2.546 -0.1665  0.0357  0.0800
    4BIM    C2310276   5.674   3.167   2.676 -0.1750  0.0600  0.0894
    4BIM    C2410277   5.646   3.034   2.707 -0.0698  0.0361  0.0828
    4BIM    C2510278   5.595   2.947   2.610  0.0398 -0.0107  0.0674
    4BIM    C2610279   5.571   2.988   2.479  0.0488 -0.0351  0.0579
    4BIM    C2710280   5.598   3.122   2.446 -0.0566 -0.0115  0.0644
    4BIM    C2810281   5.584   3.196   2.319 -0.0777 -0.0272  0.0577
    4BIM    C2910282   5.537   3.145   2.199  0.0074 -0.0708  0.0428
    4BIM    C3010283   5.496   3.010   2.184  0.1316 -0.1079  0.0315
    4BIM    C3110284   5.527   3.225   2.081 -0.0213 -0.0828  0.0373
    5BIM     F110285   7.288   4.074   2.858  0.0890 -0.2021 -0.1850
    5BIM     F210286   7.429   4.307   2.843  0.0523 -0.1478  0.2785
    5BIM     O110287   6.803   4.237   2.682  0.1683 -0.0136 -0.2289
    5BIM     N510288   7.286   4.757   2.695  0.0563  0.0644  0.9139
    5BIM     N610289   6.878   4.837   2.560  0.1255  0.2006  0.7861
    5BIM    C1910290   6.765   4.517   2.604  0.1616  0.1050  0.1985
    5BIM    C2010291   6.882   4.467   2.649  0.1431  0.0556  0.1914
    5BIM    C2110292   6.893   4.322   2.687  0.1479 -0.0039 -0.0351
    5BIM    C2210293   7.032   4.301   2.732  0.1241 -0.0478  0.0193
    5BIM    C2310294   7.090   4.183   2.776  0.1192 -0.1090 -0.1347
    5BIM    C2410295   7.224   4.188   2.813  0.0949 -0.1416 -0.0426
    5BIM    C2510296   7.296   4.308   2.805  0.0762 -0.1134  0.1964
    5BIM    C2610297   7.239   4.426   2.761  0.0807 -0.0526  0.3510
    5BIM    C2710298   7.104   4.423   2.723  0.1051 -0.0190  0.2610
    5BIM    C2810299   7.014   4.530   2.672  0.1162  0.0458  0.3762
    5BIM    C2910300   7.048   4.661   2.650  0.1036  0.0885  0.6096
    5BIM    C3010301   7.178   4.713   2.675  0.0776  0.0750  0.7761
    5BIM    C3110302   6.954   4.757   2.601  0.1156  0.1500  0.7054
    1BTD     S210303   4.329   5.154   2.511 -0.1279  0.0600  0.1716
    1BTD     N110304   4.158   5.183   2.464 -0.1261  0.1197  0.2013
    1BTD     N210305   4.390   5.308   2.442 -0.0745  0.0076  0.1010
    1BTD     N310306   4.204   5.676   2.216  0.0378  0.0089  0.0106
    1BTD     N410307   3.919   5.521   2.243 -0.0259  0.1470  0.1342
    1BTD     C510308   4.037   5.361   2.348 -0.0731  0.1322  0.1647
    1BTD     C610309   4.155   5.300   2.402 -0.0877  0.0986  0.1592
    1BTD     C710310   4.285   5.370   2.390 -0.0588  0.0359  0.1030
    1BTD     C810311   4.289   5.498   2.324 -0.0166  0.0100  0.0553
    1BTD    C1510312   4.171   5.554   2.273 -0.0036  0.0445  0.0626
    1BTD    C1610313   4.046   5.487   2.285 -0.0315  0.1051  0.1168
    1BTD    C4310314   3.865   5.656   2.243  0.3747 -0.7290 -0.0659
    1BTD    C4410315   3.747   5.695   2.145 -0.3872 -1.3763  0.8875
    1BTD    C4510316   3.698   5.840   2.168 -0.0264  0.3621  0.0726
    1BTD    C4610317   3.644   5.861   2.306  0.3723 -0.5350 -0.1653
    1BTD    C4710318   3.789   5.669   1.995 -0.3626 -0.0313 -0.4724
    1BTD    C4810319   3.692   5.689   1.883  0.1590 -0.1048  0.2565
    1BTD    C4910320   3.559   5.611   1.875 -0.0310 -0.6091 -0.2415
    1BTD    C5010321   3.568   5.463   1.856 -0.1821  0.0454 -0.1955
    1BTD    C7510322   4.154   5.732   2.089 -0.7720  0.3445  0.8001
    1BTD    C7610323   4.145   5.874   2.042 -0.1432 -0.2368  1.1375
    1BTD    C7710324   4.056   5.974   2.117 -0.4427 -0.6125 -0.0998
    1BTD    C7810325   4.070   6.000   2.268  0.7089 -0.4612  0.8270
    1BTD    C7910326   4.102   5.897   1.893  0.1272  0.3798 -0.3449
    1BTD    C8010327   4.182   5.807   1.793 -0.0943  0.2920  0.0322
    1BTD    C8110328   4.308   5.870   1.749 -0.8971 -0.4833  0.4936
    1BTD    C8210329   4.366   5.778   1.640 -0.7460 -0.4172 -0.3590
    2TTP     S110330   3.792   5.189   2.414 -0.1757 -0.4685 -0.3331
    2TTP     S510331   3.542   5.481   2.222 -0.1588  0.0399  0.4068
    2TTP     C110332   3.436   5.351   2.291 -0.1929  0.0638  0.3994
    2TTP     C210333   3.507   5.253   2.354 -0.2002 -0.0918  0.1705
    2TTP     C310334   3.648   5.278   2.351 -0.1790 -0.2354 -0.0073
    2TTP     C410335   3.898   5.320   2.345 -0.1417 -0.4922 -0.3257
    2TTP    C1710336   3.827   5.418   2.282 -0.1343 -0.3366 -0.0967
    2TTP    C1810337   3.687   5.393   2.285 -0.1556 -0.1930  0.0811
    2TTP    C3210338   3.458   5.130   2.428 -0.3588 -0.0227  0.3647
    2TTP    C3310339   3.469   5.002   2.352 -0.2457 -0.4613  0.3278
    2TTP    C3410340   3.375   4.885   2.389 -0.2715  0.2363 -0.2809
    2TTP    C3510341   3.391   4.832   2.537 -0.0890 -0.0003 -0.1718
    2TTP    C3610342   3.303   4.714   2.552 -0.7932  0.1579  0.2068
    2TTP    C3710343   3.272   4.674   2.690 -0.1863 -0.5919 -0.4391
    2TTP    C3810344   3.212   4.537   2.697 -0.3781  0.1435  0.1886
    2TTP    C3910345   3.202   4.463   2.827  0.3453  0.3051 -0.0044
    2TTP    C4010346   3.115   4.339   2.801  0.2267 -0.7212  0.1794
    2TTP    C4110347   3.035   4.305   2.923 -0.1927 -1.3387 -0.8105
    2TTP    C4210348   2.905   4.224   2.910  0.1847  0.4323  0.0571
    3TTP     S110349   4.570   5.607   2.346  0.0468  0.3053  0.0969
    3TTP     S510350   4.433   5.979   2.180  0.0718  0.0814 -0.4275
    3TTP     C110351   4.606   5.999   2.232  0.0742  0.1429 -0.4586
    3TTP     C210352   4.659   5.886   2.287  0.0665  0.2156 -0.2985
    3TTP     C310353   4.564   5.779   2.289  0.0585  0.2255 -0.1455
    3TTP     C410354   4.397   5.587   2.294  0.0442  0.2439  0.1280
    3TTP    C1710355   4.345   5.701   2.239  0.0519  0.1712 -0.0321
    3TTP    C1810356   4.439   5.808   2.237  0.0598  0.1613 -0.1851
    3TTP    C3210357   4.799   5.866   2.347 -0.2489  0.0602 -0.5015
    3TTP    C3310358   4.800   5.830   2.493  0.1922  0.3598  0.2712
    3TTP    C3410359   4.942   5.809   2.544  0.4076  0.1872 -0.5726
    3TTP    C3510360   4.950   5.765   2.691 -0.0992 -0.0574 -0.0429
    3TTP    C3610361   5.087   5.748   2.758  0.1716 -0.3243  0.0269
    3TTP    C3710362   5.169   5.648   2.672  0.1954  0.0472 -0.5303
    3TTP    C3810363   5.300   5.601   2.742  0.9062 -0.2709  0.5369
    3TTP    C3910364   5.384   5.500   2.661 -1.0252  0.4550  0.4323
    3TTP    C4010365   5.491   5.425   2.745  0.4774 -0.5087 -0.5858
    3TTP    C4110366   5.577   5.323   2.668 -0.0094  0.0442 -0.1991
    3TTP    C4210367   5.678   5.242   2.753 -0.2532 -1.0697  0.1056
    4BIM     F110368   2.842   5.905   2.135 -0.0912 -0.2265 -0.3226
    4BIM     F210369   2.659   5.705   2.153 -0.0629 -0.2252  0.0078
    4BIM     O110370   3.300   5.634   2.235  0.0055 -0.0957 -0.4106
    4BIM     N510371   2.722   5.223   2.248  0.0466 -0.1302  0.4201
    4BIM     N610372   3.117   5.052   2.322  0.1165 -0.0283  0.2847
    4BIM    C1910373   3.288   5.346   2.286  0.0668 -0.0481 -0.1262
    4BIM    C2010374   3.180   5.422   2.261  0.0414 -0.0809 -0.1169
    4BIM    C2110375   3.194   5.570   2.235  0.0107 -0.1038 -0.2686
    4BIM    C2210376   3.058   5.622   2.211 -0.0118 -0.1378 -0.2152
    4BIM    C2310377   3.021   5.753   2.183 -0.0433 -0.1674 -0.3123
    4BIM    C2410378   2.886   5.778   2.164 -0.0600 -0.1964 -0.2339
    4BIM    C2510379   2.792   5.674   2.173 -0.0454 -0.1956 -0.0637
    4BIM    C2610380   2.828   5.543   2.201 -0.0140 -0.1663  0.0340
    4BIM    C2710381   2.965   5.516   2.220  0.0033 -0.1366 -0.0432
    4BIM    C2810382   3.035   5.389   2.251  0.0365 -0.1018  0.0240
    4BIM    C2910383   2.978   5.265   2.268  0.0587 -0.0907  0.1858
    4BIM    C3010384   2.837   5.243   2.257  0.0519 -0.1125  0.3141
    4BIM    C3110385   3.055   5.149   2.298  0.0902 -0.0564  0.2394
    5BIM     F110386   4.525   6.751   1.906  0.0026  0.3487  0.4229
    5BIM     F210387   4.780   6.807   1.983  0.2732 -0.0122 -0.1932
    5BIM     O110388   4.470   6.246   2.093 -0.2422  0.4048  0.5038
    5BIM     N510389   5.108   6.528   2.227  0.4872 -0.4911 -1.0213
    5BIM     N610390   5.014   6.121   2.357  0.2413 -0.3746 -0.8338
    5BIM    C1910391   4.695   6.120   2.233 -0.0712  0.0797 -0.0559
    5BIM    C2010392   4.698   6.245   2.183 -0.0199  0.0799 -0.0523
    5BIM    C2110393   4.579   6.302   2.112 -0.1146  0.2524  0.2448
    5BIM    C2210394   4.617   6.439   2.071 -0.0260  0.2044  0.1667
    5BIM    C2310395   4.539   6.531   2.002 -0.0669  0.3194  0.3663
    5BIM    C2410396   4.596   6.655   1.974  0.0361  0.2427  0.2387
    5BIM    C2510397   4.728   6.683   2.014  0.1753  0.0569 -0.0787
    5BIM    C2610398   4.806   6.591   2.083  0.2168 -0.0587 -0.2792
    5BIM    C2710399   4.750   6.466   2.112  0.1142  0.0163 -0.1544
    5BIM    C2810400   4.805   6.348   2.182  0.1234 -0.0676 -0.3015
    5BIM    C2910401   4.931   6.337   2.236  0.2422 -0.2476 -0.6099
    5BIM    C3010402   5.028   6.442   2.231  0.3765 -0.3810 -0.8350
    5BIM    C3110403   4.976   6.218   2.303  0.2409 -0.3163 -0.7313
    1BTD     S210404   1.802   7.590   3.070  0.1896 -0.1751 -0.1376
    1BTD     N110405   1.854   7.419   3.096  0.0868 -0.1285  0.3970
    1BTD     N210406   1.967   7.658   3.093  0.2531 -0.2133 -0.4770
    1BTD     N310407   2.395   7.490   3.185  0.1969 -0.2068 -0.2033
    1BTD     N410408   2.256   7.195   3.190 -0.0080 -0.1024  0.8737
    1BTD     C510409   2.065   7.306   3.145  0.0398 -0.1160  0.6330
    1BTD     C610410   1.984   7.422   3.119  0.1042 -0.1431  0.3000
    1BTD     C710411   2.048   7.556   3.117  0.1974 -0.1904 -0.1892
    1BTD     C810412   2.189   7.567   3.141  0.2213 -0.2086 -0.3211
    1BTD    C1510413   2.264   7.450   3.166  0.1561 -0.1810  0.0166
    1BTD    C1610414   2.203   7.322   3.168  0.0663 -0.1353  0.4880
    1BTD    C4310415   2.395   7.148   3.223 -1.1102 -0.2283  0.1797
    1BTD    C4410416   2.449   7.025   3.156  0.0604  0.6381  0.1258
    1BTD    C4510417   2.457   7.023   3.005  0.5192  0.2998  0.4070
    1BTD    C4610418   2.556   7.118   2.928 -0.1064  0.2839  0.4979
    1BTD    C4710419   2.577   6.978   3.232 -0.8267  0.4178  0.6073
    1BTD    C4810420   2.628   6.840   3.193  0.1965  0.1024  0.5327
    1BTD    C4910421   2.549   6.726   3.261 -0.0110 -0.3735  0.0401
    1BTD    C5010422   2.605   6.589   3.249 -0.1418 -0.0260 -0.6444
    1BTD    C7510423   2.520   7.421   3.149  0.0643  0.3317 -0.1967
    1BTD    C7610424   2.650   7.438   3.235  0.3165  0.0187 -0.1839
    1BTD    C7710425   2.774   7.382   3.172 -0.4104 -0.3469 -0.4673
    1BTD    C7810426   2.825   7.435   3.036 -0.4639  0.0890  0.7597
    1BTD    C7910427   2.628   7.389   3.375  0.0432  0.2950  0.8388
    1BTD    C8010428   2.723   7.418   3.488 -0.2594  0.3744 -0.6212
    1BTD    C8110429   2.735   7.566   3.530 -0.1112 -0.2139  0.4881
    1BTD    C8210430   2.841   7.571   3.640 -0.1193  0.3041  0.2540
    2TTP     S110431   1.889   7.060   3.176 -0.2361  0.2074  0.3444
    2TTP     S510432   2.230   6.854   3.339  0.0413  0.4756  0.1063
    2TTP     C110433   2.082   6.750   3.362  0.1230  0.4026  0.2987
    2TTP     C210434   1.968   6.807   3.314  0.0421  0.3153  0.3836
    2TTP     C310435   1.993   6.935   3.256 -0.0872  0.3031  0.2996
    2TTP     C410436   2.036   7.164   3.153 -0.3177  0.2804  0.1519
    2TTP    C1710437   2.150   7.106   3.202 -0.2368  0.3677  0.0671
    2TTP    C1810438   2.125   6.978   3.259 -0.1075  0.3798  0.1510
    2TTP    C3210439   1.824   6.760   3.322  0.0637 -0.4216  0.7155
    2TTP    C3310440   1.771   6.711   3.192  0.3168  0.8733  0.1725
    2TTP    C3410441   1.626   6.687   3.189  0.0492  0.2295 -0.9574
    2TTP    C3510442   1.594   6.613   3.058  0.2982  0.6137  0.0788
    2TTP    C3610443   1.457   6.538   3.037 -0.3222 -0.2755 -0.4371
    2TTP    C3710444   1.427   6.413   3.114 -0.2971  0.3839  0.0947
    2TTP    C3810445   1.517   6.289   3.092 -0.5080  0.3034 -0.3343
    2TTP    C3910446   1.541   6.240   2.946  0.6476 -0.0420 -0.0607
    2TTP    C4010447   1.417   6.164   2.892  0.0796 -0.5495 -0.0964
    2TTP    C4110448   1.444   6.113   2.754  0.3340  0.2977  0.1974
    2TTP    C4210449   1.365   5.984   2.710 -1.1881  0.0348 -0.3654
    3TTP     S110450   2.277   7.858   3.093 -0.1554  0.1159 -0.4234
    3TTP     S510451   2.685   7.735   3.150 -0.2186  0.0739 -0.0553
    3TTP     C110452   2.683   7.910   3.101 -0.1449  0.0134 -0.2787
    3TTP     C210453   2.557   7.959   3.081 -0.1211  0.0226 -0.4055
    3TTP     C310454   2.457   7.859   3.103 -0.1602  0.0782 -0.3309
    3TTP     C410455   2.278   7.683   3.142 -0.2291  0.1765 -0.2002
    3TTP    C1710456   2.405   7.634   3.162 -0.2530  0.1673 -0.0733
    3TTP    C1810457   2.505   7.734   3.140 -0.2139  0.1119 -0.1479
    3TTP    C3210458   2.526   8.099   3.039 -0.2219 -0.4062  0.4151
    3TTP    C3310459   2.428   8.175   3.125  0.9889 -0.4003 -0.5656
    3TTP    C3410460   2.425   8.328   3.121  0.0470 -0.0029  0.0051
    3TTP    C3510461   2.296   8.383   3.192 -0.5472 -0.0202  0.0996
    3TTP    C3610462   2.296   8.535   3.208  1.0168 -0.1683  0.2924
    3TTP    C3710463   2.185   8.591   3.288  0.3534 -0.6764  0.2586
    3TTP    C3810464   2.196   8.742   3.291 -0.4084 -0.6896  0.5831
    3TTP    C3910465   2.102   8.795   3.393  0.4616 -0.1627 -0.5907
    3TTP    C4010466   2.117   8.944   3.412  0.0032 -0.3258  0.1258
    3TTP    C4110467   2.005   8.973   3.514 -0.0241 -0.6356  0.8557
    3TTP    C4210468   1.975   9.122   3.551  0.2869  0.0876 -0.1482
    4BIM     F110469   2.610   6.202   3.681 -0.1512 -0.1553  0.1280
    4BIM     F210470   2.410   6.018   3.674 -0.2236 -0.0780  0.1698
    4BIM     O110471   2.354   6.639   3.489  0.0926 -0.1667 -0.2252
    4BIM     N510472   1.939   6.065   3.528 -0.1537  0.0249 -0.0219
    4BIM     N610473   1.780   6.443   3.380  0.0515  0.0005 -0.3063
    4BIM    C1910474   2.072   6.618   3.414  0.1102 -0.0971 -0.3107
    4BIM    C2010475   2.144   6.515   3.463  0.0517 -0.0972 -0.2235
    4BIM    C2110476   2.289   6.534   3.499  0.0466 -0.1341 -0.1844
    4BIM    C2210477   2.337   6.403   3.548 -0.0235 -0.1240 -0.0888
    4BIM    C2310478   2.464   6.371   3.593 -0.0522 -0.1488 -0.0250
    4BIM    C2410479   2.486   6.241   3.635 -0.1196 -0.1325  0.0615
    4BIM    C2510480   2.383   6.146   3.632 -0.1568 -0.0925  0.0828
    4BIM    C2610481   2.255   6.177   3.587 -0.1284 -0.0677  0.0195
    4BIM    C2710482   2.231   6.309   3.544 -0.0602 -0.0838 -0.0684
    4BIM    C2810483   2.109   6.374   3.492 -0.0156 -0.0656 -0.1504
    4BIM    C2910484   1.986   6.315   3.473 -0.0331 -0.0271 -0.1570
    4BIM    C3010485   1.961   6.177   3.503 -0.0993  0.0014 -0.0827
    4BIM    C3110486   1.873   6.386   3.422  0.0136 -0.0122 -0.2392
    5BIM     F110487   3.484   7.849   3.296 -0.0867 -0.1504  0.4722
    5BIM     F210488   3.528   8.087   3.172  0.1712 -0.2201  0.4270
    5BIM     O110489   2.950   7.793   3.228 -0.0849  0.2253  0.1423
    5BIM     N510490   3.209   8.389   2.944  0.5433 -0.0527  0.1268
    5BIM     N610491   2.783   8.298   2.916  0.4927  0.2551 -0.1219
    5BIM    C1910492   2.802   8.001   3.085  0.1621  0.2921 -0.0181
    5BIM    C2010493   2.934   8.006   3.107  0.1516  0.2005  0.0666
    5BIM    C2110494   3.004   7.895   3.182  0.0212  0.1715  0.1457
    5BIM    C2210495   3.146   7.931   3.188  0.0446  0.0675  0.2272
    5BIM    C2310496   3.250   7.860   3.247 -0.0468  0.0086  0.3166
    5BIM    C2410497   3.377   7.914   3.240 -0.0015 -0.0882  0.3824
    5BIM    C2510498   3.399   8.037   3.176  0.1314 -0.1239  0.3590
    5BIM    C2610499   3.296   8.109   3.116  0.2233 -0.0656  0.2699
    5BIM    C2710500   3.167   8.055   3.122  0.1792  0.0324  0.2023
    5BIM    C2810501   3.037   8.106   3.070  0.2502  0.1130  0.1028
    5BIM    C2910502   3.017   8.223   3.001  0.3821  0.1070  0.0534
    5BIM    C3010503   3.123   8.314   2.970  0.4703  0.0196  0.0939
    5BIM    C3110504   2.888   8.264   2.955  0.4422  0.1886 -0.0428
    1BTD     S210505   6.294   9.084   5.531 -0.1867  0.1374 -0.1101
    1BTD     N110506   6.277   9.263   5.523 -0.1719  0.1409 -0.0726
    1BTD     N210507   6.143   9.050   5.441 -0.1748  0.1688 -0.1415
    1BTD     N310508   5.802   9.305   5.242 -0.1247  0.2387 -0.1380
    1BTD     N410509   5.968   9.566   5.343 -0.1210  0.2046 -0.0532
    1BTD     C510510   6.114   9.418   5.428 -0.1456  0.1745 -0.0635
    1BTD     C610511   6.165   9.287   5.457 -0.1597  0.1638 -0.0849
    1BTD     C710512   6.090   9.168   5.411 -0.1613  0.1793 -0.1235
    1BTD     C810513   5.967   9.186   5.338 -0.1487  0.2048 -0.1385
    1BTD    C1510514   5.920   9.317   5.312 -0.1348  0.2146 -0.1168
    1BTD    C1610515   5.993   9.431   5.356 -0.1333  0.1989 -0.0794
    1BTD    C4310516   5.907   9.633   5.227 -0.3209  0.4432 -0.0128
    1BTD    C4410517   5.839   9.770   5.212 -0.7973  0.3008 -0.3300
    1BTD    C4510518   5.863   9.817   5.069 -0.2218  0.1600 -0.0203
    1BTD    C4610519   5.862   9.964   5.028  0.1625 -0.7618  0.0437
    1BTD    C4710520   5.697   9.768   5.262  0.8243 -0.5033  0.3458
    1BTD    C4810521   5.633   9.910   5.280  0.4295  0.0872  0.0907
    1BTD    C4910522   5.489   9.909   5.320  0.3737 -0.1402  0.2483
    1BTD    C5010523   5.401  10.005   5.239 -0.0171  0.3840 -0.4675
    1BTD    C7510524   5.692   9.401   5.259 -0.0948 -0.4425 -0.8259
    1BTD    C7610525   5.573   9.425   5.156 -0.5867 -0.2563 -0.3502
    1BTD    C7710526   5.454   9.504   5.206  0.0546 -0.2390  0.2036
    1BTD    C7810527   5.402   9.456   5.340  0.0127 -0.0465 -1.0619
    1BTD    C7910528   5.622   9.451   5.015 -0.3135 -0.0560  0.0338
    1BTD    C8010529   5.540   9.462   4.893  0.4093  0.1264 -0.2920
    1BTD    C8110530   5.604   9.487   4.762 -0.3172  0.2304  0.2174
    1BTD    C8210531   5.503   9.466   4.648  0.5974 -0.6254  0.8267
    2TTP     S110532   6.301   9.629   5.544  0.1806 -0.0667  0.0472
    2TTP     S510533   6.033   9.932   5.399  0.0683 -0.0283  0.3344
    2TTP     C110534   6.171  10.013   5.485  0.0665 -0.0564  0.3634
    2TTP     C210535   6.262   9.924   5.535  0.1012 -0.0699  0.2764
    2TTP     C310536   6.226   9.789   5.507  0.1303 -0.0586  0.1837
    2TTP     C410537   6.163   9.548   5.458  0.1822 -0.0386  0.0182
    2TTP    C1710538   6.072   9.636   5.408  0.1477 -0.0251  0.1050
    2TTP    C1810539   6.108   9.772   5.436  0.1186 -0.0365  0.1978
    2TTP    C3210540   6.393   9.951   5.599  0.1019 -0.2697  0.1327
    2TTP    C3310541   6.406   9.987   5.747  0.1334 -0.6921 -0.3072
    2TTP    C3410542   6.534   9.942   5.813  0.1112  0.1394 -0.3979
    2TTP    C3510543   6.544   9.994   5.958 -0.0034 -0.2899 -0.4994
    2TTP    C3610544   6.669   9.969   6.042  0.2075  0.4656 -0.6639
    2TTP    C3710545   6.697   9.822   6.061 -0.1960 -0.0937  0.5017
    2TTP    C3810546   6.791   9.788   6.180 -0.1474  0.4784  0.2458
    2TTP    C3910547   6.831   9.640   6.188  0.3692 -0.0089 -1.0083
    2TTP    C4010548   6.935   9.591   6.290 -0.1920 -0.0085 -0.0823
    2TTP    C4110549   6.912   9.607   6.441 -0.1684 -0.3593 -0.1166
    2TTP    C4210550   6.845   9.479   6.495 -0.4401 -0.5353 -0.4869
    3TTP     S110551   5.861   8.916   5.251  0.1542 -0.0335 -0.0517
    3TTP     S510552   5.545   9.117   5.040  0.0097  0.0358  0.2308
    3TTP     C110553   5.532   8.939   5.007 -0.0471  0.0404  0.2267
    3TTP     C210554   5.629   8.866   5.070 -0.0060  0.0196  0.1394
    3TTP     C310555   5.717   8.949   5.147  0.0721 -0.0012  0.0722
    3TTP     C410556   5.874   9.095   5.284  0.2109 -0.0381 -0.0477
    3TTP    C1710557   5.777   9.167   5.221  0.1696 -0.0171  0.0396
    3TTP    C1810558   5.689   9.085   5.144  0.0918  0.0036  0.1067
    3TTP    C3210559   5.643   8.712   5.062  0.4379  0.5104 -0.1199
    3TTP    C3310560   5.656   8.643   5.197  0.3426 -0.4548 -0.2162
    3TTP    C3410561   5.661   8.498   5.191 -0.0419 -0.1888  0.9197
    3TTP    C3510562   5.712   8.427   5.313  0.6302 -0.6673 -0.4819
    3TTP    C3610563   5.755   8.284   5.308  0.1299  0.2566  0.3060
    3TTP    C3710564   5.869   8.264   5.207 -0.0154 -0.3640 -0.6975
    3TTP    C3810565   5.942   8.126   5.218  0.0912 -0.3775  0.4772
    3TTP    C3910566   6.010   8.091   5.349  0.3420 -0.2273  0.4083
    3TTP    C4010567   6.150   8.155   5.332  0.3068  0.5888  0.1170
    3TTP    C4110568   6.220   8.176   5.465 -0.0401 -0.9035  0.3747
    3TTP    C4210569   6.349   8.254   5.458  0.6496  0.1232 -0.3154
    4BIM     F110570   5.675  10.665   5.413 -0.2023 -0.0451  0.0442
    4BIM     F210571   5.880  10.823   5.496 -0.1645  0.0085 -0.1494
    4BIM     O110572   5.905  10.176   5.433 -0.1529 -0.0184  0.1280
    4BIM     N510573   6.341  10.700   5.630 -0.0755  0.1045 -0.3682
    4BIM     N610574   6.480  10.286   5.629 -0.0443  0.1146 -0.2637
    4BIM    C1910575   6.184  10.153   5.519 -0.0994  0.0423 -0.0274
    4BIM    C2010576   6.118  10.269   5.511 -0.1134  0.0335 -0.0408
    4BIM    C2110577   5.975  10.273   5.466 -0.1408  0.0019  0.0427
    4BIM    C2210578   5.934  10.415   5.468 -0.1501 -0.0001  0.0030
    4BIM    C2310579   5.810  10.468   5.434 -0.1744 -0.0250  0.0527
    4BIM    C2410580   5.795  10.606   5.445 -0.1787 -0.0214 -0.0005
    4BIM    C2510581   5.901  10.687   5.488 -0.1593  0.0062 -0.1002
    4BIM    C2610582   6.025  10.634   5.522 -0.1349  0.0311 -0.1504
    4BIM    C2710583   6.042  10.495   5.512 -0.1303  0.0280 -0.0979
    4BIM    C2810584   6.159  10.409   5.540 -0.1068  0.0497 -0.1287
    4BIM    C2910585   6.283  10.451   5.584 -0.0837  0.0792 -0.2210
    4BIM    C3010586   6.314  10.588   5.609 -0.0792  0.0930 -0.3015
    4BIM    C3110587   6.390  10.360   5.608 -0.0622  0.0985 -0.2440
    5BIM     F110588   5.085   9.211   4.376 -0.0768 -0.0088 -0.3084
    5BIM     F210589   4.951   8.974   4.377  0.0073 -0.0560 -0.1569
    5BIM     O110590   5.441   9.128   4.775  0.0101  0.3409 -0.3126
    5BIM     N510591   5.012   8.575   4.662  0.1901  0.1249  0.0579
    5BIM     N610592   5.318   8.558   4.974  0.2412  0.4077  0.0241
    5BIM    C1910593   5.440   8.873   4.918  0.1214  0.4199 -0.1693
    5BIM    C2010594   5.355   8.903   4.817  0.0962  0.3338 -0.1742
    5BIM    C2110595   5.362   9.036   4.749  0.0391  0.2980 -0.2499
    5BIM    C2210596   5.257   9.036   4.645  0.0242  0.2029 -0.2348
    5BIM    C2310597   5.225   9.138   4.556 -0.0249  0.1419 -0.2874
    5BIM    C2410598   5.122   9.114   4.467 -0.0294  0.0552 -0.2596
    5BIM    C2510599   5.053   8.992   4.468  0.0141  0.0308 -0.1813
    5BIM    C2610600   5.084   8.890   4.556  0.0631  0.0913 -0.1286
    5BIM    C2710601   5.189   8.912   4.647  0.0685  0.1793 -0.1557
    5BIM    C2810602   5.246   8.825   4.753  0.1143  0.2589 -0.1153
    5BIM    C2910603   5.206   8.698   4.785  0.1644  0.2627 -0.0384
    5BIM    C3010604   5.100   8.631   4.718  0.1783  0.1864  0.0145
    5BIM    C3110605   5.268   8.621   4.889  0.2062  0.3421 -0.0043
    1BTD     S210606   7.153   7.090   9.394 -0.0605 -0.0931 -0.4068
    1BTD     N110607   7.014   6.977   9.382 -0.0769 -0.0885 -0.2637
    1BTD     N210608   7.054   7.238   9.367 -0.0648 -0.0998 -0.4265
    1BTD     N310609   6.601   7.334   9.289 -0.1035 -0.1050 -0.2089
    1BTD     N410610   6.552   7.012   9.308 -0.1183 -0.0911 -0.0083
    1BTD     C510611   6.774   6.999   9.343 -0.0983 -0.0900 -0.1328
    1BTD     C610612   6.907   7.051   9.359 -0.0844 -0.0920 -0.2396
    1BTD     C710613   6.929   7.197   9.351 -0.0776 -0.0982 -0.3304
    1BTD     C810614   6.817   7.284   9.327 -0.0850 -0.1023 -0.3104
    1BTD    C1510615   6.689   7.229   9.311 -0.0986 -0.1001 -0.2047
    1BTD    C1610616   6.667   7.088   9.319 -0.1053 -0.0942 -0.1170
    1BTD    C4310617   6.423   7.054   9.368 -0.2874  0.2968  0.3512
    1BTD    C4410618   6.288   6.983   9.348  0.2561  0.0071 -0.1563
    1BTD    C4510619   6.222   7.000   9.213 -0.1448  1.1976  0.0012
    1BTD    C4610620   6.294   6.976   9.078 -0.1282 -0.0190  0.0894
    1BTD    C4710621   6.188   7.011   9.454  0.7207 -0.0678 -0.3532
    1BTD    C4810622   6.128   7.149   9.464 -0.0129 -0.5993  0.0506
    1BTD    C4910623   6.015   7.165   9.571 -0.1211  0.2596  0.3347
    1BTD    C5010624   5.944   7.289   9.539 -0.0854 -0.3664 -0.1339
    1BTD    C7510625   6.458   7.335   9.238 -0.1435  0.4153 -0.6856
    1BTD    C7610626   6.431   7.358   9.091  0.0676 -0.1842 -0.5444
    1BTD    C7710627   6.520   7.278   9.000 -0.2710  0.3021  0.2122
    1BTD    C7810628   6.512   7.302   8.850 -0.0850  0.0234 -0.7830
    1BTD    C7910629   6.281   7.375   9.056 -0.9865 -0.0412  0.2476
    1BTD    C8010630   6.200   7.484   9.126  0.0623  0.6951  0.0190
    1BTD    C8110631   6.058   7.497   9.078 -0.5107 -0.1266  0.3540
    1BTD    C8210632   5.974   7.617   9.124 -1.2944 -0.5070  0.3108
    2TTP     S110633   6.778   6.693   9.347  0.0461  0.1288 -0.2311
    2TTP     S510634   6.356   6.693   9.261 -0.0691  0.1991  0.3300
    2TTP     C110635   6.414   6.521   9.265 -0.1778  0.1692  0.6646
    2TTP     C210636   6.548   6.511   9.292 -0.1488  0.1459  0.5112
    2TTP     C310637   6.609   6.638   9.310 -0.0393  0.1507  0.1235
    2TTP     C410638   6.719   6.865   9.342  0.1550  0.1587 -0.5660
    2TTP    C1710639   6.586   6.875   9.316  0.1258  0.1821 -0.4124
    2TTP    C1810640   6.525   6.748   9.298  0.0165  0.1774 -0.0248
    2TTP    C3210641   6.629   6.374   9.301  0.0732 -0.4110 -0.2271
    2TTP    C3310642   6.756   6.378   9.389  0.1126  0.7559 -0.4178
    2TTP    C3410643   6.819   6.240   9.395  0.2293  0.4089  0.2633
    2TTP    C3510644   6.743   6.137   9.483  0.1856 -0.1849  0.5883
    2TTP    C3610645   6.820   6.005   9.487 -0.3098  1.0498 -0.4903
    2TTP    C3710646   6.758   5.893   9.564  0.4105  0.1657 -0.7003
    2TTP    C3810647   6.850   5.784   9.616  0.1712  0.3253 -0.3060
    2TTP    C3910648   6.778   5.666   9.683  0.3031 -0.2341  1.0831
    2TTP    C4010649   6.876   5.552   9.730  0.2367  0.2505 -0.3909
    2TTP    C4110650   6.993   5.582   9.832 -0.0013 -0.0185 -0.3518
    2TTP    C4210651   7.122   5.495   9.825 -0.1462 -0.2671  0.2509
    3TTP     S110652   6.903   7.581   9.350 -0.0213  0.0031 -0.5857
    3TTP     S510653   6.492   7.691   9.287 -0.1569 -0.0541  0.1829
    3TTP     C110654   6.588   7.842   9.318 -0.0967 -0.0292 -0.1220
    3TTP     C210655   6.721   7.817   9.339 -0.0511 -0.0100 -0.3774
    3TTP     C310656   6.751   7.678   9.332 -0.0625 -0.0145 -0.3414
    3TTP     C410657   6.807   7.430   9.319 -0.0817 -0.0218 -0.2809
    3TTP    C1710658   6.674   7.455   9.298 -0.1273 -0.0411 -0.0256
    3TTP    C1810659   6.644   7.595   9.305 -0.1160 -0.0367 -0.0615
    3TTP    C3210660   6.842   7.915   9.345 -0.4584 -0.0500  0.0314
    3TTP    C3310661   6.907   7.954   9.211  0.8051  0.1604 -0.0956
    3TTP    C3410662   7.050   7.996   9.216  0.1885 -0.2152 -0.2100
    3TTP    C3510663   7.161   7.905   9.276  0.6599 -0.2323  0.1855
    3TTP    C3610664   7.307   7.946   9.237  0.7772 -0.2005 -0.0378
    3TTP    C3710665   7.404   7.829   9.258 -0.1173  0.2224  0.4136
    3TTP    C3810666   7.552   7.867   9.234 -0.1949 -0.0556  0.1846
    3TTP    C3910667   7.660   7.752   9.219  0.6392  0.3667  0.0336
    3TTP    C4010668   7.645   7.649   9.106  0.2956  0.1152  0.0329
    3TTP    C4110669   7.691   7.703   8.965  0.5735 -0.2311  0.0347
    3TTP    C4210670   7.710   7.590   8.865  0.4435 -0.2542 -0.0085
    4BIM     F110671   5.651   6.426   8.983 -0.2365  0.1005  0.1245
    4BIM     F210672   5.654   6.172   9.080  0.0224 -0.0699 -0.3242
    4BIM     O110673   6.152   6.588   9.106 -0.3452  0.3364  0.2575
    4BIM     N510674   6.015   5.922   9.307  0.3171 -0.1465 -0.8748
    4BIM     N610675   6.407   6.100   9.384  0.1801  0.0722 -0.6802
    4BIM    C1910676   6.333   6.403   9.243 -0.1366  0.2576 -0.1240
    4BIM    C2010677   6.207   6.372   9.208 -0.1193  0.2048 -0.1400
    4BIM    C2110678   6.120   6.473   9.138 -0.2313  0.2506  0.0639
    4BIM    C2210679   5.990   6.407   9.115 -0.1791  0.1733 -0.0124
    4BIM    C2310680   5.878   6.461   9.053 -0.2463  0.1811  0.1168
    4BIM    C2410681   5.766   6.379   9.043 -0.1760  0.0979  0.0071
    4BIM    C2510682   5.767   6.248   9.093 -0.0428  0.0103 -0.2240
    4BIM    C2610683   5.880   6.194   9.154  0.0249  0.0023 -0.3536
    4BIM    C2710684   5.994   6.275   9.166 -0.0445  0.0855 -0.2460
    4BIM    C2810685   6.127   6.248   9.225 -0.0024  0.1012 -0.3335
    4BIM    C2910686   6.168   6.131   9.284  0.1214  0.0330 -0.5524
    4BIM    C3010687   6.084   6.016   9.296  0.2286 -0.0653 -0.7288
    4BIM    C3110688   6.299   6.114   9.338  0.1528  0.0550 -0.6216
    5BIM     F110689   5.963   8.248   8.972 -0.0616  0.0494  0.1757
    5BIM     F210690   6.067   8.478   9.074 -0.0336  0.0577  0.1249
    5BIM     O110691   6.323   7.885   9.152  0.0567  0.0821  0.0045
    5BIM     N510692   6.473   8.550   9.347  0.0907  0.0930 -0.0699
    5BIM     N610693   6.733   8.220   9.467  0.1776  0.1168 -0.1938
    5BIM    C1910694   6.550   7.976   9.312  0.1253  0.1016 -0.1046
    5BIM    C2010695   6.455   8.058   9.263  0.0945  0.0930 -0.0598
    5BIM    C2110696   6.342   8.004   9.182  0.0604  0.0834 -0.0048
    5BIM    C2210697   6.258   8.120   9.144  0.0321  0.0753  0.0348
    5BIM    C2310698   6.141   8.119   9.069 -0.0039  0.0653  0.0906
    5BIM    C2410699   6.079   8.241   9.046 -0.0255  0.0594  0.1200
    5BIM    C2510700   6.133   8.360   9.099 -0.0110  0.0642  0.0938
    5BIM    C2610701   6.249   8.361   9.174  0.0249  0.0739  0.0381
    5BIM    C2710702   6.314   8.238   9.198  0.0471  0.0801  0.0076
    5BIM    C2810703   6.437   8.205   9.273  0.0862  0.0908 -0.0515
    5BIM    C2910704   6.519   8.294   9.339  0.1097  0.0978 -0.0908
    5BIM    C3010705   6.494   8.435   9.343  0.0993  0.0951 -0.0794
    5BIM    C3110706   6.636   8.253   9.409  0.1469  0.1080 -0.1473
    1BTD     S210707   3.317   2.401   9.258  0.1528 -0.1633 -0.3197
    1BTD     N110708   3.260   2.302   9.397  0.2239 -0.1116 -0.2532
    1BTD     N210709   3.153   2.418   9.184  0.1039 -0.1288 -0.2029
    1BTD     N310710   2.718   2.274   9.287  0.1329  0.0352  0.1543
    1BTD     N410711   2.850   2.131   9.548  0.2807  0.0564  0.0920
    1BTD     C510712   3.044   2.214   9.473  0.2517 -0.0241 -0.0722
    1BTD     C610713   3.129   2.287   9.382  0.2084 -0.0731 -0.1528
    1BTD     C710714   3.069   2.352   9.263  0.1413 -0.0829 -0.1249
    1BTD     C810715   2.928   2.341   9.241  0.1208 -0.0430 -0.0172
    1BTD    C1510716   2.848   2.269   9.332  0.1649  0.0044  0.0590
    1BTD    C1610717   2.906   2.206   9.447  0.2297  0.0138  0.0320
    1BTD    C4310718   2.727   2.049   9.525 -0.4312 -0.7828  0.6090
    1BTD    C4410719   2.634   1.999   9.635 -0.0230 -0.4636 -0.2370
    1BTD    C4510720   2.581   2.127   9.705 -0.3723  0.4286 -0.2748
    1BTD    C4610721   2.495   2.116   9.826  0.1476  0.7695 -0.4998
    1BTD    C4710722   2.520   1.906   9.595 -1.2032  0.5080 -0.0599
    1BTD    C4810723   2.567   1.761   9.552  0.3479 -0.0262 -0.4608
    1BTD    C4910724   2.456   1.657   9.558 -0.2139 -0.6659  0.0846
    1BTD    C5010725   2.507   1.517   9.567  0.0338  0.5265 -0.9862
    1BTD    C7510726   2.604   2.290   9.379 -0.5988 -0.1304  0.2276
    1BTD    C7610727   2.452   2.261   9.355  0.0152 -0.3417 -0.0293
    1BTD    C7710728   2.431   2.119   9.304  0.0120 -0.5549 -0.3959
    1BTD    C7810729   2.299   2.098   9.244 -0.6043 -0.1872 -0.3961
    1BTD    C7910730   2.360   2.315   9.463 -0.2724 -0.4332 -0.2905
    1BTD    C8010731   2.381   2.466   9.507  0.5485  0.0577 -0.2862
    1BTD    C8110732   2.279   2.517   9.602  0.3128 -0.1360 -0.2625
    1BTD    C8210733   2.140   2.557   9.552 -0.3246  0.0121 -0.6624
    2TTP     S110734   3.202   2.152   9.720  0.0285 -0.0696  0.2313
    2TTP     S510735   2.844   1.998   9.903 -0.2769  0.1181 -0.2038
    2TTP     C110736   2.978   1.996  10.027 -0.3300 -0.3092 -0.1495
    2TTP     C210737   3.096   2.044   9.977 -0.2387 -0.3924 -0.0119
    2TTP     C310738   3.086   2.083   9.840 -0.1237 -0.1216  0.0556
    2TTP     C410739   3.068   2.153   9.597  0.0815  0.3576  0.1770
    2TTP    C1710740   2.950   2.106   9.646 -0.0097  0.4409  0.0394
    2TTP    C1810741   2.961   2.067   9.783 -0.1248  0.1701 -0.0281
    2TTP    C3210742   3.237   2.045  10.044  0.8172 -0.9157  0.3506
    2TTP    C3310743   3.321   1.926  10.017  0.1936  0.2590  0.1640
    2TTP    C3410744   3.458   1.937  10.091  0.3291  0.4867  0.6268
    2TTP    C3510745   3.550   1.815  10.059 -0.3907 -0.6002  0.2073
    2TTP    C3610746   3.696   1.828  10.110  0.1006 -0.0549  0.1042
    2TTP    C3710747   3.779   1.912  10.023 -0.1020 -0.4861  0.0291
    2TTP    C3810748   3.926   1.917  10.057  0.0937 -0.3282  0.6511
    2TTP    C3910749   4.011   2.010   9.971  0.8723  0.0982  0.2929
    2TTP    C4010750   4.159   1.973   9.950  0.2149  0.1062 -0.6870
    2TTP    C4110751   4.235   2.072   9.865 -0.4869  0.3588  0.3771
    2TTP    C4210752   4.385   2.059   9.886  0.3846 -0.1109 -0.0386
    3TTP     S110753   2.847   2.472   8.977  0.1430 -0.0540  0.2144
    3TTP     S510754   2.449   2.317   9.032  0.1140 -0.0248  0.0863
    3TTP     C110755   2.457   2.401   8.870  0.1513  0.0395  0.1219
    3TTP     C210756   2.580   2.454   8.844  0.1624  0.0343  0.1633
    3TTP     C310757   2.673   2.430   8.950  0.1420 -0.0207  0.1690
    3TTP     C410758   2.839   2.388   9.138  0.1057 -0.1184  0.1791
    3TTP    C1710759   2.716   2.336   9.165  0.0947 -0.1132  0.1378
    3TTP    C1810760   2.623   2.359   9.058  0.1152 -0.0581  0.1323
    3TTP    C3210761   2.627   2.523   8.713 -0.1417 -0.5640  0.3547
    3TTP    C3310762   2.693   2.428   8.615  0.6568  0.4220  0.0196
    3TTP    C3410763   2.763   2.488   8.491 -0.4458 -0.7654 -0.3592
    3TTP    C3510764   2.694   2.582   8.390  0.0517  0.2629 -0.1894
    3TTP    C3610765   2.777   2.610   8.264 -0.6845 -0.0284  0.5566
    3TTP    C3710766   2.883   2.722   8.278 -0.1007 -0.2651 -0.4279
    3TTP    C3810767   2.940   2.784   8.148  0.8011 -0.5637 -0.0516
    3TTP    C3910768   3.070   2.858   8.162 -0.5104 -0.5520  0.1684
    3TTP    C4010769   3.193   2.783   8.215 -0.1940 -0.1971  0.0925
    3TTP    C4110770   3.330   2.852   8.175 -0.4539 -0.3756 -0.0312
    3TTP    C4210771   3.454   2.793   8.246  0.1886 -0.1468  0.5822
    4BIM     F110772   2.350   1.953  10.556 -0.1417  0.0075  0.1444
    4BIM     F210773   2.518   1.841  10.738 -0.1159 -0.2078 -0.0110
    4BIM     O110774   2.688   2.030  10.140 -0.2980  0.1014  0.0351
    4BIM     N510775   3.001   1.735  10.704 -0.1899 -0.4507 -0.3122
    4BIM     N610776   3.230   1.818  10.342 -0.3170 -0.3339 -0.3662
    4BIM    C1910777   2.968   1.951  10.166 -0.3286 -0.0711 -0.1521
    4BIM    C2010778   2.877   1.936  10.264 -0.2903 -0.0863 -0.1186
    4BIM    C2110779   2.734   1.979  10.243 -0.2768  0.0064 -0.0216
    4BIM    C2210780   2.662   1.949  10.368 -0.2339 -0.0379 -0.0076
    4BIM    C2310781   2.528   1.971  10.396 -0.2083  0.0173  0.0716
    4BIM    C2410782   2.482   1.934  10.522 -0.1687 -0.0420  0.0685
    4BIM    C2510783   2.569   1.876  10.615 -0.1555 -0.1529 -0.0116
    4BIM    C2610784   2.703   1.853  10.588 -0.1808 -0.2085 -0.0909
    4BIM    C2710785   2.751   1.890  10.461 -0.2210 -0.1499 -0.0890
    4BIM    C2810786   2.887   1.880  10.401 -0.2551 -0.1841 -0.1604
    4BIM    C2910787   2.999   1.829  10.461 -0.2542 -0.2867 -0.2485
    4BIM    C3010788   3.000   1.778  10.595 -0.2188 -0.3765 -0.2832
    4BIM    C3110789   3.126   1.823  10.395 -0.2888 -0.3120 -0.3128
    5BIM     F110790   1.670   2.166   8.822 -0.0127  0.1394  0.4334
    5BIM     F210791   1.643   2.319   8.599 -0.0239 -0.0587  0.2983
    5BIM     O110792   2.190   2.254   8.945  0.0556  0.0665  0.1969
    5BIM     N510793   1.976   2.601   8.365  0.0087 -0.3954 -0.0641
    5BIM     N610794   2.387   2.639   8.506  0.0644 -0.4125 -0.2217
    5BIM    C1910795   2.349   2.431   8.775  0.0692 -0.1486 -0.0162
    5BIM    C2010796   2.219   2.403   8.753  0.0525 -0.1226  0.0489
    5BIM    C2110797   2.144   2.311   8.845  0.0464 -0.0103  0.1571
    5BIM    C2210798   2.007   2.302   8.793  0.0277 -0.0097  0.2058
    5BIM    C2310799   1.900   2.229   8.844  0.0164  0.0766  0.3061
    5BIM    C2410800   1.779   2.236   8.777 -0.0009  0.0576  0.3350
    5BIM    C2510801   1.766   2.315   8.662 -0.0066 -0.0444  0.2657
    5BIM    C2610802   1.871   2.389   8.610  0.0046 -0.1307  0.1655
    5BIM    C2710803   1.995   2.382   8.676  0.0221 -0.1132  0.1345
    5BIM    C2810804   2.125   2.447   8.648  0.0372 -0.1867  0.0355
    5BIM    C2910805   2.153   2.532   8.543  0.0368 -0.2937 -0.0525
    5BIM    C3010806   2.055   2.570   8.446  0.0214 -0.3492 -0.0584
    5BIM    C3110807   2.282   2.591   8.523  0.0520 -0.3584 -0.1450
    1BTD     S210808   2.715   5.894   3.780  0.0048 -0.1203 -0.2292
    1BTD     N110809   2.632   5.734   3.787  0.0432 -0.1706 -0.8002
    1BTD     N210810   2.881   5.825   3.782  0.0353 -0.0430  0.3970
    1BTD     N310811   3.070   5.396   3.798  0.1669  0.0242  0.6421
    1BTD     N410812   2.764   5.284   3.805  0.1765 -0.1330 -0.8330
    1BTD     C510813   2.705   5.501   3.797  0.1126 -0.1491 -0.7994
    1BTD     C610814   2.728   5.643   3.790  0.0752 -0.1291 -0.5096
    1BTD     C710815   2.867   5.693   3.787  0.0707 -0.0578  0.1605
    1BTD     C810816   2.976   5.599   3.790  0.1041 -0.0099  0.5072
    1BTD    C1510817   2.949   5.461   3.796  0.1403 -0.0318  0.2039
    1BTD    C1610818   2.815   5.413   3.799  0.1444 -0.1003 -0.4417
    1BTD    C4310819   2.839   5.170   3.762  0.1425  0.1879 -0.1834
    1BTD    C4410820   2.800   5.023   3.802 -0.1672  0.0870 -0.4826
    1BTD    C4510821   2.803   5.010   3.960 -0.6091 -0.1576  0.0819
    1BTD    C4610822   2.742   4.884   4.020  0.8902 -0.4834 -0.0660
    1BTD    C4710823   2.873   4.916   3.725  0.2221 -0.0519 -0.0721
    1BTD    C4810824   2.866   4.918   3.572  0.4912  0.4740  0.6201
    1BTD    C4910825   2.726   4.939   3.506 -0.3940 -0.3451  0.3080
    1BTD    C5010826   2.745   4.974   3.354 -0.3042  1.2218  0.1825
    1BTD    C7510827   3.087   5.291   3.898 -0.0444  0.3473 -0.3374
    1BTD    C7610828   3.217   5.204   3.901  0.1309  0.4468 -0.0145
    1BTD    C7710829   3.234   5.136   4.041 -0.2633 -0.0076  0.7025
    1BTD    C7810830   3.270   5.227   4.151 -0.4632 -0.5726 -0.0096
    1BTD    C7910831   3.216   5.099   3.791  0.0909 -0.1352  0.5748
    1BTD    C8010832   3.326   4.986   3.792  0.5785  0.0831 -0.0770
    1BTD    C8110833   3.307   4.880   3.682  0.9070 -0.3692  0.5455
    1BTD    C8210834   3.412   4.778   3.698 -0.4484  0.4118  0.4854
    2TTP     S110835   2.409   5.450   3.792  0.0641  0.0434 -0.2069
    2TTP     S510836   2.479   5.026   3.792 -0.0414  0.0250  0.1006
    2TTP     C110837   2.300   5.055   3.774 -0.0469  0.0539  0.2012
    2TTP     C210838   2.268   5.188   3.773 -0.0147  0.0610  0.1122
    2TTP     C310839   2.384   5.271   3.786  0.0156  0.0443 -0.0387
    2TTP     C410840   2.588   5.420   3.810  0.0696  0.0147 -0.3075
    2TTP    C1710841   2.620   5.288   3.811  0.0374  0.0073 -0.2184
    2TTP    C1810842   2.505   5.204   3.798  0.0072  0.0243 -0.0675
    2TTP    C3210843   2.133   5.247   3.767 -0.1533 -0.6209  0.1966
    2TTP    C3310844   2.087   5.343   3.884 -0.0803  0.0610 -0.5767
    2TTP    C3410845   1.960   5.424   3.867 -0.3855  0.1691 -0.1968
    2TTP    C3510846   1.950   5.494   3.735 -0.4047  0.1846 -0.7779
    2TTP    C3610847   1.832   5.586   3.734 -0.1342  0.2443  0.2265
    2TTP    C3710848   1.841   5.668   3.609  1.3432  0.2842 -0.3419
    2TTP    C3810849   1.723   5.766   3.608  1.1587  0.2328 -0.4092
    2TTP    C3910850   1.706   5.844   3.477 -0.6020  0.3032  0.5188
    2TTP    C4010851   1.572   5.918   3.448  0.0320  0.0594  0.0195
    2TTP    C4110852   1.585   6.076   3.470  0.9495  0.5845  0.5063
    2TTP    C4210853   1.451   6.144   3.424 -0.0727  0.4708  0.0709
    3TTP     S110854   3.240   5.738   3.724  0.0636  0.1723 -0.0338
    3TTP     S510855   3.427   5.352   3.684  0.1171  0.1711  0.2226
    3TTP     C110856   3.546   5.480   3.635  0.0977  0.1546  0.1328
    3TTP     C210857   3.496   5.607   3.644  0.0800  0.1541  0.0484
    3TTP     C310858   3.361   5.607   3.691  0.0812  0.1664  0.0516
    3TTP     C410859   3.120   5.610   3.774  0.0830  0.1887  0.0560
    3TTP    C1710860   3.171   5.483   3.764  0.1006  0.1891  0.1405
    3TTP    C1810861   3.306   5.483   3.717  0.0995  0.1767  0.1373
    3TTP    C3210862   3.569   5.744   3.628  0.2696 -0.2473  0.2393
    3TTP    C3310863   3.631   5.788   3.759  0.6533 -0.0810  0.5354
    3TTP    C3410864   3.670   5.936   3.774  0.3815  0.5120 -0.3236
    3TTP    C3510865   3.771   5.980   3.676  0.7309  0.1457  0.2129
    3TTP    C3610866   3.837   6.120   3.684  0.2385 -0.1090  0.1362
    3TTP    C3710867   3.757   6.242   3.673  0.8528 -1.0956 -0.0689
    3TTP    C3810868   3.844   6.368   3.687  0.1351  0.1797 -0.5076
    3TTP    C3910869   3.771   6.489   3.752  0.3744  0.2095  0.2871
    3TTP    C4010870   3.868   6.593   3.787  0.4968 -0.1152  0.2798
    3TTP    C4110871   3.813   6.707   3.879 -0.0281 -0.2087  0.1453
    3TTP    C4210872   3.776   6.676   4.020  0.1753 -0.0488  0.1402
    4BIM     F110873   2.234   4.242   3.874  0.0356 -0.1920 -0.0541
    4BIM     F210874   1.971   4.262   3.807 -0.0697 -0.2037  0.3503
    4BIM     O110875   2.389   4.760   3.841 -0.0841 -0.1599 -0.1081
    4BIM     N510876   1.703   4.660   3.686 -0.3066 -0.1974  0.8932
    4BIM     N610877   1.877   5.061   3.674 -0.3789 -0.1699  0.7696
    4BIM    C1910878   2.192   4.963   3.765 -0.2274 -0.1595  0.2590
    4BIM    C2010879   2.164   4.832   3.776 -0.1930 -0.1673  0.2569
    4BIM    C2110880   2.270   4.734   3.815 -0.1194 -0.1669  0.0621
    4BIM    C2210881   2.206   4.601   3.818 -0.0982 -0.1763  0.1136
    4BIM    C2310882   2.264   4.479   3.849 -0.0343 -0.1793 -0.0173
    4BIM    C2410883   2.183   4.366   3.844 -0.0262 -0.1886  0.0667
    4BIM    C2510884   2.047   4.377   3.810 -0.0805 -0.1945  0.2750
    4BIM    C2610885   1.988   4.499   3.779 -0.1444 -0.1916  0.4064
    4BIM    C2710886   2.069   4.614   3.782 -0.1536 -0.1822  0.3243
    4BIM    C2810887   2.038   4.756   3.755 -0.2141 -0.1768  0.4206
    4BIM    C2910888   1.916   4.808   3.718 -0.2774 -0.1801  0.6229
    4BIM    C3010889   1.799   4.726   3.701 -0.2932 -0.1897  0.7709
    4BIM    C3110890   1.895   4.947   3.694 -0.3329 -0.1745  0.7024
    5BIM     F110891   4.082   4.857   3.725 -0.0936 -0.0516  0.1950
    5BIM     F210892   4.268   5.007   3.594 -0.0284 -0.1014  0.2300
    5BIM     O110893   3.660   5.195   3.728 -0.0269  0.0329  0.0481
    5BIM     N510894   4.233   5.464   3.407  0.1128 -0.1129  0.1755
    5BIM     N610895   3.865   5.698   3.435  0.1518 -0.0368  0.0537
    5BIM    C1910896   3.687   5.459   3.603  0.0591  0.0152  0.0293
    5BIM    C2010897   3.786   5.368   3.608  0.0398 -0.0041  0.0649
    5BIM    C2110898   3.764   5.234   3.673 -0.0045  0.0067  0.0724
    5BIM    C2210899   3.891   5.160   3.661 -0.0157 -0.0199  0.1137
    5BIM    C2310900   3.920   5.032   3.706 -0.0537 -0.0212  0.1340
    5BIM    C2410901   4.047   4.983   3.682 -0.0570 -0.0489  0.1730
    5BIM    C2510902   4.143   5.060   3.615 -0.0232 -0.0744  0.1910
    5BIM    C2610903   4.115   5.188   3.569  0.0144 -0.0734  0.1709
    5BIM    C2710904   3.986   5.240   3.592  0.0184 -0.0457  0.1314
    5BIM    C2810905   3.925   5.370   3.557  0.0539 -0.0368  0.1021
    5BIM    C2910906   3.986   5.474   3.490  0.0926 -0.0556  0.1083
    5BIM    C3010907   4.122   5.468   3.444  0.1036 -0.0870  0.1453
    5BIM    C3110908   3.919   5.597   3.460  0.1249 -0.0453  0.0783
    1BTD     S210909   8.674   7.776   0.489 -0.1615  0.0044 -0.1116
    1BTD     N110910   8.844   7.789   0.546 -0.2553 -0.2228  0.2261
    1BTD     N210911   8.707   7.642   0.374 -0.0296  0.2559 -0.3689
    1BTD     N310912   9.082   7.392   0.242  0.0689  0.3583 -0.2834
    1BTD     N410913   9.251   7.573   0.454 -0.2093 -0.2320  0.4498
    1BTD     C510914   9.055   7.674   0.495 -0.2282 -0.2204  0.3341
    1BTD     C610915   8.914   7.697   0.480 -0.1874 -0.1056  0.1345
    1BTD     C710916   8.837   7.615   0.383 -0.0608  0.1624 -0.1986
    1BTD     C810917   8.905   7.514   0.307  0.0186  0.3024 -0.3154
    1BTD    C1510918   9.043   7.494   0.326 -0.0253  0.1821 -0.1114
    1BTD    C1610919   9.117   7.573   0.419 -0.1472 -0.0762  0.2095
    1BTD    C4310920   9.361   7.567   0.355 -0.8978  0.4936  0.0043
    1BTD    C4410921   9.506   7.536   0.390 -0.9034  0.3388  0.5400
    1BTD    C4510922   9.606   7.549   0.270 -0.6056 -0.1311 -0.2516
    1BTD    C4610923   9.616   7.684   0.196  0.1515 -0.0918  0.4103
    1BTD    C4710924   9.515   7.406   0.473 -0.6281 -0.2608  0.9081
    1BTD    C4810925   9.657   7.369   0.517 -0.3774 -0.0523  0.1795
    1BTD    C4910926   9.675   7.246   0.599  0.2496 -0.0431  0.3497
    1BTD    C5010927   9.814   7.194   0.593  0.3066  0.1501 -0.3697
    1BTD    C7510928   9.208   7.317   0.254  0.2444  0.1513  0.9821
    1BTD    C7610929   9.212   7.166   0.286 -0.6554  0.0685 -0.0860
    1BTD    C7710930   9.348   7.102   0.254  0.3576 -0.2670 -1.0244
    1BTD    C7810931   9.420   7.114   0.116  0.1950 -0.7812  0.3579
    1BTD    C7910932   9.162   7.121   0.423  0.2667 -0.8206 -0.2967
    1BTD    C8010933   9.120   6.978   0.449 -0.5743  0.6422 -1.1748
    1BTD    C8110934   9.024   6.896   0.361  0.3710 -0.0650 -0.4630
    1BTD    C8210935   8.886   6.964   0.360 -0.2287  0.4792  0.3595
    2TTP     S110936   9.171   7.853   0.714  0.0986  0.0338  0.1139
    2TTP     S510937   9.540   7.634   0.692 -0.0241 -0.1446 -0.1677
    2TTP     C110938   9.551   7.751   0.830  0.0438 -0.3248 -0.0192
    2TTP     C210939   9.437   7.826   0.845  0.0854 -0.2804  0.0765
    2TTP     C310940   9.338   7.793   0.748  0.0656 -0.1023  0.0360
    2TTP     C410941   9.160   7.736   0.576  0.0308  0.2140 -0.0345
    2TTP    C1710942   9.273   7.661   0.561 -0.0110  0.1694 -0.1303
    2TTP    C1810943   9.373   7.694   0.658  0.0088 -0.0085 -0.0898
    2TTP    C3210944   9.410   7.931   0.952 -0.1176 -0.5607 -0.6797
    2TTP    C3310945   9.435   8.078   0.908 -0.3724  0.3383  0.1122
    2TTP    C3410946   9.432   8.180   1.021 -0.9498 -0.3055 -0.0081
    2TTP    C3510947   9.425   8.327   0.958 -0.6590 -0.8984  0.4984
    2TTP    C3610948   9.451   8.458   1.037  0.1332 -0.1481  0.3553
    2TTP    C3710949   9.376   8.478   1.167  0.0523  0.1779 -0.1773
    2TTP    C3810950   9.394   8.614   1.233 -0.4275 -0.0813 -0.2022
    2TTP    C3910951   9.336   8.730   1.153 -0.2909  0.2907 -0.2882
    2TTP    C4010952   9.187   8.728   1.114 -0.1032 -0.2208 -0.0278
    2TTP    C4110953   9.158   8.871   1.067  0.2292  0.2179  0.1191
    2TTP    C4210954   9.003   8.878   1.050  0.0022  0.1650  0.4885
    3TTP     S110955   8.702   7.346   0.150  0.0301  0.0430 -0.1626
    3TTP     S510956   9.027   7.101   0.011  0.2093  0.1454  0.0757
    3TTP     C110957   8.872   7.035  -0.058  0.2722  0.0500  0.0243
    3TTP     C210958   8.762   7.107  -0.019  0.2203  0.0130 -0.0523
    3TTP     C310959   8.797   7.216   0.066  0.1297  0.0582 -0.0732
    3TTP     C410960   8.857   7.411   0.218 -0.0327  0.1384 -0.1112
    3TTP    C1710961   8.967   7.339   0.180  0.0195  0.1755 -0.0346
    3TTP    C1810962   8.932   7.230   0.094  0.1101  0.1303 -0.0137
    3TTP    C3210963   8.616   7.079  -0.049 -0.2665 -0.3320  0.5124
    3TTP    C3310964   8.498   7.170  -0.032  0.3236  0.1814  0.0815
    3TTP    C3410965   8.365   7.132  -0.081 -0.0712  0.1263  0.5053
    3TTP    C3510966   8.263   7.240  -0.058 -0.1280 -0.2575 -0.3018
    3TTP    C3610967   8.123   7.205  -0.107  0.0450 -0.1371 -0.6027
    3TTP    C3710968   8.012   7.286  -0.030  0.1478  0.9834  0.0736
    3TTP    C3810969   7.886   7.257  -0.103 -0.1400  0.3095  0.3714
    3TTP    C3910970   7.760   7.324  -0.056  0.2322 -0.3158  0.0877
    3TTP    C4010971   7.647   7.325  -0.166 -0.1371 -0.2095 -0.4239
    3TTP    C4110972   7.524   7.385  -0.097  0.4056  0.3481  0.2043
    3TTP    C4210973   7.407   7.407  -0.190  0.6957 -0.4971  0.2129
    4BIM     F110974  10.127   7.217   1.079  0.2579  0.0306 -0.2276
    4BIM     F210975  10.263   7.425   1.189  0.1616  0.0073 -0.0651
    4BIM     O110976   9.689   7.470   0.886  0.3017  0.0308 -0.3270
    4BIM     N510977  10.145   7.906   1.211  0.0543 -0.0261  0.0976
    4BIM     N610978   9.776   8.061   1.038  0.1080 -0.0215 -0.0128
    4BIM    C1910979   9.663   7.759   0.923  0.2253  0.0085 -0.2071
    4BIM    C2010980   9.768   7.687   0.967  0.2180  0.0094 -0.1884
    4BIM    C2110981   9.774   7.539   0.944  0.2591  0.0211 -0.2535
    4BIM    C2210982   9.900   7.493   1.005  0.2388  0.0190 -0.2126
    4BIM    C2310983   9.950   7.363   1.009  0.2631  0.0272 -0.2479
    4BIM    C2410984  10.072   7.343   1.071  0.2362  0.0230 -0.1967
    4BIM    C2510985  10.142   7.451   1.128  0.1866  0.0110 -0.1131
    4BIM    C2610986  10.093   7.580   1.125  0.1621  0.0027 -0.0775
    4BIM    C2710987   9.969   7.602   1.062  0.1888  0.0069 -0.1282
    4BIM    C2810988   9.891   7.726   1.041  0.1740  0.0002 -0.1101
    4BIM    C2910989   9.925   7.853   1.082  0.1282 -0.0114 -0.0349
    4BIM    C3010990  10.046   7.882   1.153  0.0877 -0.0197  0.0377
    4BIM    C3110991   9.843   7.967   1.057  0.1174 -0.0167 -0.0232
    5BIM     F110992   9.397   6.493  -0.398  0.1192  0.0626 -0.0889
    5BIM     F210993   9.183   6.362  -0.503  0.0963 -0.0478  0.0954
    5BIM     O110994   9.150   6.900  -0.140  0.1564  0.1645 -0.2131
    5BIM     N510995   8.700   6.462  -0.469  0.0904 -0.1341  0.2716
    5BIM     N610996   8.550   6.807  -0.247  0.1240 -0.0319  0.1373
    5BIM    C1910997   8.858   6.919  -0.148  0.1478  0.0951 -0.0814
    5BIM    C2010998   8.928   6.822  -0.209  0.1392  0.0738 -0.0572
    5BIM    C2110999   9.078   6.819  -0.200  0.1447  0.1123 -0.1290
    5BIM    C2211000   9.123   6.701  -0.277  0.1328  0.0756 -0.0799
    5BIM    C2311001   9.253   6.657  -0.297  0.1323  0.0919 -0.1171
    5BIM    C2411002   9.271   6.543  -0.374  0.1201  0.0496 -0.0564
    5BIM    C2511003   9.160   6.475  -0.428  0.1087 -0.0073  0.0383
    5BIM    C2611004   9.030   6.518  -0.408  0.1087 -0.0240  0.0763
    5BIM    C2711005   9.010   6.634  -0.331  0.1211  0.0182  0.0160
    5BIM    C2811006   8.886   6.705  -0.291  0.1247  0.0151  0.0339
    5BIM    C2911007   8.758   6.670  -0.324  0.1161 -0.0333  0.1178
    5BIM    C3011008   8.726   6.556  -0.404  0.1020 -0.0885  0.2019
    5BIM    C3111009   8.644   6.746  -0.281  0.1206 -0.0323  0.1280
    1BTD     S211010   4.363   7.339   1.176 -0.0872  0.2098  0.1461
    1BTD     N111011   4.204   7.263   1.138  0.0824  0.0631 -0.2842
    1BTD     N211012   4.430   7.193   1.255 -0.2520  0.3501  0.5512
    1BTD     N311013   4.282   6.757   1.349 -0.2818  0.3707  0.5999
    1BTD     N411014   4.003   6.844   1.204  0.1303  0.0168 -0.4294
    1BTD     C511015   4.103   7.044   1.175  0.1025  0.0433 -0.3476
    1BTD     C611016   4.210   7.139   1.184  0.0111  0.1230 -0.1126
    1BTD     C711017   4.336   7.100   1.250 -0.1761  0.2836  0.3550
    1BTD     C811018   4.350   6.966   1.302 -0.2626  0.3566  0.5642
    1BTD    C1511019   4.242   6.876   1.290 -0.1679  0.2740  0.3212
    1BTD    C1611020   4.120   6.914   1.227  0.0123  0.1192 -0.1294
    1BTD    C4311021   3.941   6.761   1.309  0.2354 -0.5430 -0.3048
    1BTD    C4411022   3.830   6.659   1.287 -0.1015  0.6829  0.3030
    1BTD    C4511023   3.765   6.626   1.422  0.0401  0.6073  0.2926
    1BTD    C4611024   3.713   6.734   1.519 -0.0587  0.5463 -0.2846
    1BTD    C4711025   3.886   6.539   1.201 -0.5960  0.4561 -0.2743
    1BTD    C4811026   3.776   6.453   1.141 -0.6858  1.2579 -0.3294
    1BTD    C4911027   3.837   6.377   1.026  0.1345  0.8638  0.0997
    1BTD    C5011028   3.717   6.304   0.970 -0.5638  0.6928 -0.2900
    1BTD    C7511029   4.243   6.623   1.290  0.2419 -0.2485 -0.1968
    1BTD    C7611030   4.263   6.483   1.361 -0.0282 -0.1069  0.2078
    1BTD    C7711031   4.244   6.366   1.268 -0.2239 -0.2759  0.0625
    1BTD    C7811032   4.347   6.346   1.156  0.4950  0.0523  0.2851
    1BTD    C7911033   4.166   6.484   1.489 -0.6289 -0.2036 -0.3351
    1BTD    C8011034   4.190   6.360   1.577 -0.0094 -0.6675  0.6179
    1BTD    C8111035   4.124   6.380   1.709 -0.0924  0.1900  0.4010
    1BTD    C8211036   4.169   6.285   1.817 -0.3475  0.3389  0.2778
    2TTP     S111037   3.886   7.146   0.990 -0.2070 -0.0175  0.5300
    2TTP     S511038   3.707   6.755   0.986  0.0786 -0.1434 -0.3738
    2TTP     C111039   3.624   6.858   0.861  0.0727  0.0537 -0.2083
    2TTP     C211040   3.675   6.985   0.855 -0.0157  0.1043  0.0806
    2TTP     C311041   3.781   7.006   0.949 -0.0821 -0.0108  0.1816
    2TTP     C411042   3.969   7.043   1.114 -0.2012 -0.2143  0.3644
    2TTP    C1711043   3.919   6.917   1.121 -0.1126 -0.2650  0.0756
    2TTP    C1811044   3.813   6.896   1.027 -0.0463 -0.1498 -0.0255
    2TTP    C3211045   3.655   7.085   0.741 -0.6066  0.1353 -0.3302
    2TTP    C3311046   3.636   7.234   0.782 -0.4957 -0.4962  0.5048
    2TTP    C3411047   3.505   7.271   0.854 -0.0462 -0.0141  0.0383
    2TTP    C3511048   3.390   7.236   0.761  0.0441 -0.4714 -0.5215
    2TTP    C3611049   3.265   7.202   0.839  0.4063 -0.7156 -0.3265
    2TTP    C3711050   3.164   7.140   0.748 -0.2289  0.1442 -0.5240
    2TTP    C3811051   3.089   7.035   0.825  0.4855  0.1622  0.0838
    2TTP    C3911052   2.966   6.997   0.740  0.3240  0.1308 -0.4325
    2TTP    C4011053   2.878   6.892   0.808  0.9819 -0.3237  0.5120
    2TTP    C4111054   2.729   6.891   0.771  0.6480  0.2036 -0.7074
    2TTP    C4211055   2.671   6.751   0.802 -0.6020  0.2232 -0.6585
    3TTP     S111056   4.638   6.918   1.403 -0.1663  0.2025 -0.0046
    3TTP     S511057   4.519   6.531   1.547 -0.1549  0.1473 -0.1428
    3TTP     C111058   4.691   6.560   1.596 -0.2450  0.2549  0.1149
    3TTP     C211059   4.739   6.682   1.554 -0.2538  0.2785  0.1726
    3TTP     C311060   4.640   6.756   1.482 -0.1899  0.2120  0.0156
    3TTP     C411061   4.465   6.889   1.354 -0.0763  0.0948 -0.2622
    3TTP    C1711062   4.418   6.768   1.396 -0.0676  0.0712 -0.3200
    3TTP    C1811063   4.517   6.694   1.468 -0.1315  0.1377 -0.1630
    3TTP    C3211064   4.869   6.757   1.588 -0.1911  0.0930  0.6194
    3TTP    C3311065   4.964   6.788   1.469  0.0666  0.1251 -0.2316
    3TTP    C3411066   5.085   6.878   1.514  0.7572  0.3009 -0.0039
    3TTP    C3511067   5.183   6.925   1.405  0.4982 -0.9913  0.2283
    3TTP    C3611068   5.290   7.021   1.455 -0.6270 -0.4576 -0.2937
    3TTP    C3711069   5.404   7.060   1.356  0.6531 -0.5811 -0.2922
    3TTP    C3811070   5.354   7.127   1.226 -0.1732 -0.0039  0.2818
    3TTP    C3911071   5.414   7.266   1.225  0.1508  0.6777  0.1609
    3TTP    C4011072   5.389   7.335   1.093 -0.2604 -0.0567 -0.6575
    3TTP    C4111073   5.246   7.376   1.057 -0.1216  0.0666  0.1289
    3TTP    C4211074   5.172   7.487   1.141 -0.1069 -0.1115 -0.0911
    4BIM     F111075   2.995   6.330   0.967 -0.2042  0.5038  0.3041
    4BIM     F211076   2.889   6.418   0.732  0.1785 -0.1533 -0.1249
    4BIM     O111077   3.444   6.632   0.997 -0.3299  0.6948  0.2648
    4BIM     N511078   3.056   6.762   0.417  0.6390 -0.9621 -0.7698
    4BIM     N611079   3.428   6.980   0.488  0.4636 -0.6803 -0.7140
    4BIM    C1911080   3.501   6.824   0.784 -0.0090  0.1346 -0.1591
    4BIM    C2011081   3.393   6.745   0.786  0.0077  0.1123 -0.1324
    4BIM    C2111082   3.370   6.648   0.899 -0.1639  0.4113  0.0907
    4BIM    C2211083   3.244   6.578   0.869 -0.0958  0.3010  0.0612
    4BIM    C2311084   3.181   6.479   0.945 -0.2030  0.4907  0.2215
    4BIM    C2411085   3.062   6.427   0.897 -0.1070  0.3312  0.1541
    4BIM    C2511086   3.008   6.473   0.776  0.0902 -0.0073 -0.0670
    4BIM    C2611087   3.069   6.572   0.700  0.1980 -0.1981 -0.2278
    4BIM    C2711088   3.190   6.626   0.747  0.1032 -0.0411 -0.1628
    4BIM    C2811089   3.280   6.730   0.691  0.1746 -0.1705 -0.2906
    4BIM    C2911090   3.261   6.799   0.574  0.3601 -0.4909 -0.5129
    4BIM    C3011091   3.148   6.778   0.488  0.5128 -0.7489 -0.6533
    4BIM    C3111092   3.353   6.898   0.527  0.4160 -0.5934 -0.6222
    5BIM     F111093   4.624   5.808   1.918  0.1924 -0.1205 -0.0898
    5BIM     F211094   4.886   5.821   1.988  0.0622  0.1955  0.3494
    5BIM     O111095   4.556   6.290   1.681  0.0932 -0.3362 -0.5017
    5BIM     N511096   5.216   6.184   1.920 -0.1961  0.4954  0.6871
    5BIM     N611097   5.110   6.558   1.720 -0.2474  0.2631  0.2767
    5BIM    C1911098   4.783   6.474   1.664 -0.0665 -0.1111 -0.2285
    5BIM    C2011099   4.790   6.352   1.721 -0.0366 -0.0691 -0.1420
    5BIM    C2111100   4.669   6.263   1.726  0.0461 -0.1918 -0.2934
    5BIM    C2211101   4.711   6.139   1.794  0.0598 -0.1065 -0.1457
    5BIM    C2311102   4.633   6.027   1.822  0.1280 -0.1699 -0.2092
    5BIM    C2411103   4.695   5.922   1.887  0.1270 -0.0656 -0.0390
    5BIM    C2511104   4.830   5.929   1.923  0.0598  0.0969  0.1872
    5BIM    C2611105   4.908   6.040   1.896 -0.0083  0.1612  0.2516
    5BIM    C2711106   4.848   6.148   1.829 -0.0085  0.0575  0.0817
    5BIM    C2811107   4.902   6.279   1.786 -0.0705  0.0865  0.0930
    5BIM    C2911108   5.031   6.324   1.803 -0.1450  0.2308  0.2847
    5BIM    C3011109   5.132   6.247   1.867 -0.1729  0.3760  0.5053
    5BIM    C3111110   5.074   6.453   1.757 -0.2010  0.2477  0.2792
    1BTD     S211111   6.736   7.008   5.948 -0.0822  0.1704  0.1397
    1BTD     N111112   6.790   6.841   5.989  0.0179  0.2289  0.2450
    1BTD     N211113   6.561   6.972   5.969 -0.0713  0.0399  0.0153
    1BTD     N311114   6.303   6.598   6.088  0.1315 -0.1209 -0.0483
    1BTD     N411115   6.585   6.437   6.112  0.2412  0.1118  0.2348
    1BTD     C511116   6.680   6.632   6.053  0.1332  0.1649  0.2363
    1BTD     C611117   6.681   6.771   6.015  0.0525  0.1519  0.1850
    1BTD     C711118   6.553   6.844   6.004  0.0025  0.0463  0.0564
    1BTD     C811119   6.430   6.775   6.031  0.0359 -0.0412 -0.0145
    1BTD    C1511120   6.433   6.639   6.068  0.1153 -0.0247  0.0394
    1BTD    C1611121   6.557   6.568   6.078  0.1633  0.0770  0.1633
    1BTD    C4311122   6.508   6.362   6.218 -0.1008 -0.2920 -0.2589
    1BTD    C4411123   6.502   6.212   6.241 -0.1536  0.2648 -0.7314
    1BTD    C4511124   6.442   6.155   6.112  0.0953 -0.5191  0.1403
    1BTD    C4611125   6.411   6.007   6.098 -0.0701  0.1489 -0.0095
    1BTD    C4711126   6.417   6.168   6.367 -0.0889  0.2838 -0.4403
    1BTD    C4811127   6.465   6.222   6.509  0.8610  0.5757  0.6131
    1BTD    C4911128   6.590   6.163   6.571 -0.3479 -0.7964 -0.3951
    1BTD    C5011129   6.587   6.154   6.723  0.2859 -0.0520 -0.0731
    1BTD    C7511130   6.251   6.465   6.058 -0.3955 -0.3187  0.4920
    1BTD    C7611131   6.137   6.408   6.136  0.0856  0.3886  1.3109
    1BTD    C7711132   6.089   6.272   6.083  0.6839  0.5598 -0.2632
    1BTD    C7811133   6.036   6.250   5.937 -0.2352  0.1160 -0.4254
    1BTD    C7911134   6.144   6.425   6.286 -0.4027 -0.3833 -0.1190
    1BTD    C8011135   6.017   6.376   6.353  0.3124 -0.4713 -0.0405
    1BTD    C8111136   6.032   6.354   6.499 -0.1744 -0.0717 -0.3089
    1BTD    C8211137   5.915   6.266   6.536 -0.0788  0.8043 -0.3459
    2TTP     S111138   6.953   6.515   6.013 -0.0319  0.0022  0.0459
    2TTP     S511139   6.798   6.126   6.111 -0.2347  0.1217  0.2000
    2TTP     C111140   6.973   6.109   6.067 -0.3046 -0.0211 -0.0228
    2TTP     C211141   7.032   6.228   6.034 -0.2463 -0.0664 -0.0836
    2TTP     C311142   6.940   6.337   6.042 -0.1440  0.0100  0.0437
    2TTP     C411143   6.777   6.532   6.058  0.0379  0.1450  0.2688
    2TTP    C1711144   6.719   6.413   6.091 -0.0204  0.1902  0.3294
    2TTP    C1811145   6.811   6.304   6.082 -0.1225  0.1138  0.2023
    2TTP    C3211146   7.176   6.257   5.996  0.1592 -0.7872  0.0685
    2TTP    C3311147   7.268   6.320   6.097  0.1153 -0.1715  0.2431
    2TTP    C3411148   7.417   6.344   6.063  0.3363 -0.2727 -0.0492
    2TTP    C3511149   7.479   6.428   6.172 -0.1381  0.1655  0.0375
    2TTP    C3611150   7.611   6.482   6.130 -0.3169  0.7420 -0.7774
    2TTP    C3711151   7.701   6.561   6.235 -0.3139 -0.5927 -0.5808
    2TTP    C3811152   7.843   6.620   6.199  0.0594  0.5808  1.1612
    2TTP    C3911153   7.846   6.707   6.069 -0.4635  0.2021 -0.5040
    2TTP    C4011154   7.983   6.766   6.034  0.8043 -0.7473  0.3914
    2TTP    C4111155   8.083   6.656   5.986  0.5575 -0.3436  0.0258
    2TTP    C4211156   8.218   6.710   5.944  0.2899  0.3579 -0.1016
    3TTP     S111157   6.194   6.961   5.983  0.0207 -0.0420 -0.0055
    3TTP     S511158   5.925   6.643   6.089  0.1400 -0.1029  0.1163
    3TTP     C111159   5.827   6.789   6.044  0.0851 -0.1574  0.0572
    3TTP     C211160   5.904   6.896   6.009  0.0448 -0.1420  0.0161
    3TTP     C311161   6.044   6.866   6.016  0.0561 -0.0863  0.0298
    3TTP     C411162   6.293   6.815   6.028  0.0757  0.0126  0.0538
    3TTP    C1711163   6.215   6.708   6.063  0.1159 -0.0030  0.0948
    3TTP    C1811164   6.076   6.738   6.056  0.1044 -0.0585  0.0809
    3TTP    C3211165   5.854   7.024   5.934  0.2066  0.3475  0.2516
    3TTP    C3311166   5.905   7.156   5.996 -0.0463 -0.6660 -0.2440
    3TTP    C3411167   5.862   7.282   5.920  0.5722  0.3528 -0.1115
    3TTP    C3511168   5.932   7.409   5.967 -0.1507 -0.0399 -0.0493
    3TTP    C3611169   5.931   7.514   5.861 -0.0253  0.1413  0.0071
    3TTP    C3711170   6.029   7.630   5.884  0.1263  1.0090  0.5524
    3TTP    C3811171   6.004   7.755   5.807 -0.5866 -0.1979  0.2060
    3TTP    C3911172   6.124   7.856   5.788 -0.1426  0.5851 -0.1509
    3TTP    C4011173   6.254   7.830   5.705 -0.0652  0.0545 -0.3835
    3TTP    C4111174   6.232   7.814   5.557 -0.4646 -0.4101  0.3455
    3TTP    C4211175   6.338   7.743   5.469  0.6859  0.1465  0.0474
    4BIM     F111176   6.756   5.317   6.041 -0.1593  0.2297 -0.3513
    4BIM     F211177   7.018   5.249   6.066 -0.2265  0.1420  0.1407
    4BIM     O111178   6.790   5.858   6.039  0.0374  0.2170 -0.4344
    4BIM     N511179   7.420   5.536   6.101 -0.1832  0.0069  0.7889
    4BIM     N611180   7.394   5.972   6.094 -0.0160  0.0148  0.6250
    4BIM    C1911181   7.053   5.985   6.063  0.0429  0.1288  0.0061
    4BIM    C2011182   7.034   5.851   6.062 -0.0039  0.1353  0.0079
    4BIM    C2111183   6.896   5.794   6.050 -0.0036  0.1818 -0.2264
    4BIM    C2211184   6.912   5.647   6.053 -0.0608  0.1769 -0.1591
    4BIM    C2311185   6.811   5.551   6.044 -0.0808  0.2106 -0.3145
    4BIM    C2411186   6.850   5.418   6.049 -0.1366  0.1980 -0.2084
    4BIM    C2511187   6.985   5.383   6.062 -0.1714  0.1527  0.0451
    4BIM    C2611188   7.086   5.478   6.070 -0.1516  0.1190  0.2012
    4BIM    C2711189   7.049   5.614   6.066 -0.0951  0.1312  0.0973
    4BIM    C2811190   7.129   5.738   6.072 -0.0615  0.1038  0.2099
    4BIM    C2911191   7.266   5.746   6.084 -0.0802  0.0581  0.4548
    4BIM    C3011192   7.350   5.631   6.093 -0.1369  0.0302  0.6377
    4BIM    C3111193   7.336   5.870   6.090 -0.0448  0.0345  0.5471
    5BIM     F111194   5.202   6.306   6.261 -0.1773  0.2266  0.3648
    5BIM     F211195   5.031   6.497   6.171 -0.1110 -0.0466 -0.3486
    5BIM     O111196   5.679   6.546   6.173 -0.1366  0.3011  0.7814
    5BIM     N511197   5.125   6.942   5.977  0.0134 -0.3864 -1.0771
    5BIM     N611198   5.532   7.091   5.926  0.0319 -0.2730 -0.6077
    5BIM    C1911199   5.685   6.813   6.055 -0.0588  0.0666  0.2478
    5BIM    C2011200   5.572   6.746   6.081 -0.0715  0.0585  0.1711
    5BIM    C2111201   5.577   6.608   6.141 -0.1121  0.1837  0.4599
    5BIM    C2211202   5.437   6.564   6.156 -0.1163  0.1390  0.2857
    5BIM    C2311203   5.392   6.443   6.208 -0.1489  0.2190  0.4449
    5BIM    C2411204   5.254   6.423   6.212 -0.1462  0.1537  0.2250
    5BIM    C2511205   5.166   6.522   6.165 -0.1121  0.0129 -0.1424
    5BIM    C2611206   5.211   6.642   6.113 -0.0795 -0.0676 -0.3033
    5BIM    C2711207   5.350   6.664   6.108 -0.0817 -0.0033 -0.0848
    5BIM    C2811208   5.429   6.780   6.060 -0.0527 -0.0583 -0.1699
    5BIM    C2911209   5.379   6.897   6.007 -0.0157 -0.1920 -0.5012
    5BIM    C3011210   5.240   6.921   5.991  0.0002 -0.2984 -0.8167
    5BIM    C3111211   5.464   7.003   5.963  0.0103 -0.2357 -0.5579
    1BTD     S211212   5.091   2.997   9.427 -0.0319 -0.0995 -0.0208
    1BTD     N111213   5.201   2.932   9.553  0.1284 -0.1603 -0.1912
    1BTD     N211214   4.975   2.860   9.436 -0.0807 -0.0477  0.1414
    1BTD     N311215   4.937   2.463   9.683  0.1093 -0.0520  0.1638
    1BTD     N411216   5.216   2.551   9.827  0.3672 -0.1908 -0.2458
    1BTD     C511217   5.205   2.732   9.695  0.2500 -0.1745 -0.2148
    1BTD     C611218   5.148   2.817   9.594  0.1369 -0.1400 -0.1221
    1BTD     C711219   5.022   2.777   9.528  0.0198 -0.0769  0.0639
    1BTD     C811220   4.958   2.654   9.567  0.0216 -0.0516  0.1481
    1BTD    C1511221   5.018   2.574   9.666  0.1344 -0.0872  0.0523
    1BTD    C1611222   5.140   2.612   9.729  0.2472 -0.1480 -0.1271
    1BTD    C4311223   5.231   2.407   9.846  0.4227  0.8127 -0.1194
    1BTD    C4411224   5.271   2.336   9.978 -0.1029  0.7099 -0.0620
    1BTD    C4511225   5.309   2.191   9.946 -0.4382  0.0598 -0.0385
    1BTD    C4611226   5.436   2.168   9.866  0.4170  0.7987  0.3522
    1BTD    C4711227   5.170   2.364  10.087 -0.1078 -0.5771  0.7351
    1BTD    C4811228   5.204   2.339  10.236  0.0618 -0.0888 -0.6491
    1BTD    C4911229   5.285   2.212  10.273  0.0286 -0.5339  0.0940
    1BTD    C5011230   5.323   2.209  10.421 -0.4399  0.0320 -0.4831
    1BTD    C7511231   4.901   2.407   9.818  0.0755 -0.4972  0.8881
    1BTD    C7611232   4.874   2.254   9.829  0.3578 -0.8207 -0.4120
    1BTD    C7711233   4.836   2.221   9.975  0.4691 -0.0463 -0.6413
    1BTD    C7811234   4.719   2.293  10.035  0.9893 -0.0666  0.2501
    1BTD    C7911235   4.988   2.168   9.781  0.4208 -0.1488  0.5242
    1BTD    C8011236   4.962   2.016   9.786 -0.4633 -0.7293  0.1035
    1BTD    C8111237   5.083   1.923   9.791  0.7361 -0.7285  0.5551
    1BTD    C8211238   5.159   1.929   9.660 -0.4568 -0.0871 -0.4696
    2TTP     S111239   5.436   2.875   9.823 -0.3393  0.0141  0.1153
    2TTP     S511240   5.469   2.555  10.108  0.3047 -0.2003 -0.1985
    2TTP     C111241   5.590   2.684  10.152  0.1928 -0.0957 -0.1973
    2TTP     C211242   5.587   2.790  10.066 -0.0125 -0.0233 -0.1003
    2TTP     C311243   5.489   2.774   9.963 -0.0889 -0.0479 -0.0235
    2TTP     C411244   5.315   2.746   9.780 -0.2275 -0.0905  0.1140
    2TTP    C1711245   5.318   2.640   9.866 -0.0222 -0.1629  0.0171
    2TTP    C1811246   5.416   2.656   9.968  0.0544 -0.1383 -0.0598
    2TTP    C3211247   5.654   2.926  10.088  0.0582 -0.4099 -0.1410
    2TTP    C3311248   5.775   2.942   9.987  0.7181  0.1617  0.2116
    2TTP    C3411249   5.861   3.064   9.983  0.6158 -0.5874 -0.1849
    2TTP    C3511250   5.822   3.137   9.855  0.2583  0.1490 -0.4005
    2TTP    C3611251   5.916   3.250   9.823  0.2616  0.4177  0.6563
    2TTP    C3711252   5.872   3.330   9.701 -0.1324  0.9495 -0.0287
    2TTP    C3811253   5.954   3.458   9.695  0.4245 -0.0419 -0.2893
    2TTP    C3911254   5.918   3.527   9.572  0.6310  0.1914  0.4090
    2TTP    C4011255   6.020   3.633   9.538 -0.3933  0.1054 -0.5766
    2TTP    C4111256   6.154   3.572   9.484  0.3682  0.0998 -0.1561
    2TTP    C4211257   6.250   3.678   9.431 -0.1355  0.2996 -0.3277
    3TTP     S111258   4.738   2.580   9.373  0.2267 -0.0404  0.1965
    3TTP     S511259   4.708   2.193   9.557 -0.5991  0.0182  0.1945
    3TTP     C111260   4.610   2.192   9.404 -0.2877  0.1114 -0.0084
    3TTP     C211261   4.613   2.312   9.338 -0.0143  0.0987 -0.0200
    3TTP     C311262   4.694   2.408   9.406 -0.0409  0.0150  0.1311
    3TTP     C411263   4.837   2.581   9.526 -0.0848 -0.1335  0.3996
    3TTP    C1711264   4.833   2.461   9.592 -0.3581 -0.1209  0.4109
    3TTP    C1811265   4.753   2.365   9.524 -0.3314 -0.0373  0.2596
    3TTP    C3211266   4.538   2.365   9.223 -0.6790 -0.4520 -0.2033
    3TTP    C3311267   4.385   2.378   9.240 -0.2571 -0.0865 -0.1402
    3TTP    C3411268   4.304   2.444   9.128 -0.4541 -0.3847  0.7579
    3TTP    C3511269   4.156   2.453   9.162 -0.0842 -0.2201  0.3757
    3TTP    C3611270   4.067   2.524   9.058  0.8643  0.3394 -0.1095
    3TTP    C3711271   4.051   2.669   9.073  0.0833  0.0805 -0.0148
    3TTP    C3811272   3.968   2.744   8.972  0.4420  0.1847 -0.1678
    3TTP    C3911273   3.828   2.692   8.940  0.4109  0.2268  0.7937
    3TTP    C4011274   3.732   2.726   9.055 -0.2970 -0.4886 -0.3149
    3TTP    C4111275   3.585   2.688   9.036 -0.2445 -0.7224 -0.2343
    3TTP    C4211276   3.536   2.543   9.029 -0.1682 -0.2502  0.6363
    4BIM     F111277   5.627   2.282  10.868  0.1742  0.0492  0.0300
    4BIM     F211278   5.874   2.389  10.910  0.2303 -0.0433 -0.0636
    4BIM     O111279   5.497   2.505  10.392  0.1167  0.0250  0.0343
    4BIM     N511280   6.136   2.702  10.630  0.2705 -0.1938 -0.1951
    4BIM     N611281   5.985   2.855  10.250  0.2142 -0.1940 -0.1728
    4BIM    C1911282   5.687   2.687  10.263  0.1501 -0.0720 -0.0536
    4BIM    C2011283   5.710   2.626  10.381  0.1625 -0.0623 -0.0510
    4BIM    C2111284   5.608   2.534  10.441  0.1439 -0.0115 -0.0045
    4BIM    C2211285   5.664   2.486  10.569  0.1639 -0.0138 -0.0143
    4BIM    C2311286   5.606   2.399  10.660  0.1568  0.0244  0.0177
    4BIM    C2411287   5.679   2.368  10.774  0.1797  0.0132  0.0002
    4BIM    C2511288   5.806   2.423  10.795  0.2086 -0.0345 -0.0481
    4BIM    C2611289   5.865   2.510  10.704  0.2158 -0.0727 -0.0803
    4BIM    C2711290   5.792   2.543  10.588  0.1931 -0.0622 -0.0631
    4BIM    C2811291   5.826   2.631  10.474  0.1934 -0.0940 -0.0876
    4BIM    C2911292   5.941   2.704  10.457  0.2174 -0.1432 -0.1350
    4BIM    C3011293   6.048   2.702  10.552  0.2465 -0.1708 -0.1678
    4BIM    C3111294   5.965   2.786  10.343  0.2155 -0.1708 -0.1555
    5BIM     F111295   4.427   1.435   9.674 -0.1153 -0.0087 -0.1187
    5BIM     F211296   4.309   1.384   9.434 -0.3269  0.1269 -0.0436
    5BIM     O111297   4.587   1.947   9.603 -0.0613 -0.0117 -0.0184
    5BIM     N511298   4.253   1.676   9.039 -0.5928  0.3197  0.1352
    5BIM     N611299   4.402   2.087   9.032 -0.5080  0.2900  0.1986
    5BIM    C1911300   4.531   2.081   9.349 -0.2444  0.1168  0.0887
    5BIM    C2011301   4.495   1.954   9.376 -0.2495  0.1123  0.0606
    5BIM    C2111302   4.528   1.892   9.509 -0.1519  0.0443  0.0057
    5BIM    C2211303   4.475   1.754   9.505 -0.1856  0.0577 -0.0134
    5BIM    C2311304   4.481   1.658   9.606 -0.1228  0.0104 -0.0622
    5BIM    C2411305   4.424   1.534   9.579 -0.1726  0.0352 -0.0714
    5BIM    C2511306   4.364   1.509   9.455 -0.2815  0.1051 -0.0325
    5BIM    C2611307   4.357   1.604   9.355 -0.3445  0.1525  0.0162
    5BIM    C2711308   4.414   1.730   9.380 -0.2958  0.1284  0.0260
    5BIM    C2811309   4.424   1.851   9.295 -0.3394  0.1647  0.0730
    5BIM    C2911310   4.376   1.866   9.167 -0.4432  0.2337  0.1192
    5BIM    C3011311   4.309   1.762   9.097 -0.5251  0.2808  0.1278
    5BIM    C3111312   4.391   1.988   9.093 -0.4783  0.2643  0.1626
    1BTD     S211313   1.363   2.692   1.049  0.1204  0.0294 -0.0241
    1BTD     N111314   1.497   2.758   1.149  0.1420 -0.0404 -0.0065
    1BTD     N211315   1.327   2.556   1.162  0.0611  0.0249 -0.0483
    1BTD     N311316   1.496   2.400   1.571 -0.0209 -0.1104 -0.0661
    1BTD     N411317   1.706   2.648   1.555  0.0789 -0.1910 -0.0145
    1BTD     C511318   1.604   2.698   1.361  0.1078 -0.1180 -0.0113
    1BTD     C611319   1.508   2.680   1.255  0.1058 -0.0624 -0.0190
    1BTD     C711320   1.413   2.567   1.262  0.0604 -0.0259 -0.0424
    1BTD     C811321   1.418   2.477   1.375  0.0195 -0.0468 -0.0570
    1BTD    C1511322   1.514   2.499   1.476  0.0232 -0.1014 -0.0487
    1BTD    C1611323   1.605   2.608   1.469  0.0668 -0.1368 -0.0262
    1BTD    C4311324   1.736   2.625   1.701 -0.3287 -0.8416  0.8262
    1BTD    C4411325   1.700   2.746   1.796  0.6812 -0.1507 -0.1761
    1BTD    C4511326   1.555   2.800   1.799  0.4962  0.1568 -0.6579
    1BTD    C4611327   1.444   2.708   1.797  0.5654  0.3654  0.5237
    1BTD    C4711328   1.763   2.707   1.928 -0.1849  0.4449 -0.2581
    1BTD    C4811329   1.779   2.799   2.047 -0.0797 -0.2065 -0.4107
    1BTD    C4911330   1.874   2.924   2.033  0.2818 -0.0718  0.0126
    1BTD    C5011331   1.848   3.026   2.143 -0.6217 -0.7635 -0.1799
    1BTD    C7511332   1.591   2.350   1.672 -0.1182  0.5767  0.7454
    1BTD    C7611333   1.684   2.234   1.629 -0.2015  0.2071 -0.5369
    1BTD    C7711334   1.776   2.275   1.519 -0.3196 -0.8536  0.7493
    1BTD    C7811335   1.856   2.163   1.448  0.4038  0.2114 -0.1526
    1BTD    C7911336   1.751   2.156   1.751  0.4491  0.0471 -0.2604
    1BTD    C8011337   1.661   2.110   1.872 -0.2180  0.7969  0.3089
    1BTD    C8111338   1.740   2.032   1.970 -0.1085 -0.1750 -0.4853
    1BTD    C8211339   1.661   1.969   2.077  0.3837  0.0875 -0.5715
    2TTP     S111340   1.766   2.947   1.311 -0.2670 -0.4770 -0.2349
    2TTP     S511341   2.006   2.852   1.655  0.0563  0.3140 -0.2380
    2TTP     C111342   2.067   3.008   1.583 -0.1461  0.2605 -0.5283
    2TTP     C211343   1.997   3.046   1.473 -0.2578  0.0130 -0.5444
    2TTP     C311344   1.892   2.954   1.441 -0.1877 -0.1431 -0.3282
    2TTP     C411345   1.705   2.791   1.383 -0.0647 -0.4234  0.0553
    2TTP    C1711346   1.775   2.753   1.494  0.0471 -0.1760  0.0714
    2TTP    C1811347   1.880   2.845   1.526 -0.0230 -0.0198 -0.1448
    2TTP    C3211348   2.020   3.179   1.398  0.0320  0.4138  0.2303
    2TTP    C3311349   1.908   3.279   1.401  0.0039  0.7391  0.3401
    2TTP    C3411350   1.942   3.398   1.318 -1.0765  0.4037 -0.3622
    2TTP    C3511351   1.825   3.492   1.309 -0.5063  0.4592  0.0975
    2TTP    C3611352   1.855   3.618   1.236 -0.8118  0.7020 -0.4469
    2TTP    C3711353   1.739   3.711   1.240  1.2711  0.5285  0.2525
    2TTP    C3811354   1.757   3.838   1.175 -0.0626 -0.1164  0.2841
    2TTP    C3911355   1.632   3.930   1.191 -0.2426  0.4468 -0.6036
    2TTP    C4011356   1.510   3.892   1.105 -0.0274 -0.6291  0.0197
    2TTP    C4111357   1.518   3.896   0.953  0.1945  0.2493  0.3053
    2TTP    C4211358   1.387   3.852   0.893 -0.3529 -0.3570  0.3214
    3TTP     S111359   1.188   2.283   1.366  0.0642 -0.0184 -0.1566
    3TTP     S511360   1.319   2.115   1.739 -0.3398 -0.1397 -0.0688
    3TTP     C111361   1.167   2.029   1.687 -0.2395 -0.1766 -0.3004
    3TTP     C211362   1.118   2.076   1.568 -0.1088 -0.1413 -0.3411
    3TTP     C311363   1.198   2.181   1.515 -0.0831 -0.0839 -0.1909
    3TTP     C411364   1.339   2.369   1.418 -0.0360  0.0184  0.0749
    3TTP    C1711365   1.389   2.322   1.536 -0.1667 -0.0168  0.1157
    3TTP    C1811366   1.309   2.217   1.590 -0.1923 -0.0743 -0.0345
    3TTP    C3211367   0.996   2.033   1.486  0.0386  0.0962  0.5343
    3TTP    C3311368   1.023   1.941   1.363 -0.5738 -0.0173 -0.3760
    3TTP    C3411369   1.074   1.799   1.397  0.0960 -0.3726 -0.3404
    3TTP    C3511370   1.007   1.700   1.305  0.1718 -0.0734  0.1721
    3TTP    C3611371   1.041   1.551   1.317  0.4263 -1.0664 -0.9484
    3TTP    C3711372   1.179   1.512   1.356 -0.3864  0.2814 -0.3808
    3TTP    C3811373   1.189   1.380   1.433 -0.7082 -0.7180  0.4885
    3TTP    C3911374   1.133   1.386   1.573 -0.2216  0.6359  0.5831
    3TTP    C4011375   1.120   1.245   1.628 -0.2347  0.6246 -0.1328
    3TTP    C4111376   1.053   1.243   1.768  0.6075  0.0110  0.6387
    3TTP    C4211377   1.000   1.106   1.808 -0.2081 -0.1417  0.4989
    4BIM     F111378   2.719   2.842   2.062  0.2953  0.1060 -0.1393
    4BIM     F211379   2.797   3.101   2.033  0.0429  0.2081  0.0781
    4BIM     O111380   2.267   2.838   1.764  0.3276 -0.0978 -0.1856
    4BIM     N511381   2.588   3.470   1.778 -0.2970  0.2096  0.3578
    4BIM     N611382   2.220   3.415   1.551 -0.2208  0.0299  0.2778
    4BIM    C1911383   2.182   3.084   1.630  0.0979 -0.0726  0.0057
    4BIM    C2011384   2.292   3.075   1.706  0.0997 -0.0253  0.0089
    4BIM    C2111385   2.329   2.945   1.772  0.2215 -0.0421 -0.0930
    4BIM    C2211386   2.454   2.970   1.847  0.1898  0.0202 -0.0608
    4BIM    C2311387   2.527   2.879   1.923  0.2717  0.0295 -0.1273
    4BIM    C2411388   2.642   2.926   1.985  0.2197  0.0933 -0.0783
    4BIM    C2511389   2.682   3.060   1.970  0.0896  0.1458  0.0337
    4BIM    C2611390   2.610   3.150   1.893  0.0073  0.1369  0.1006
    4BIM    C2711391   2.493   3.105   1.830  0.0582  0.0727  0.0525
    4BIM    C2811392   2.395   3.174   1.743 -0.0023  0.0468  0.0997
    4BIM    C2911393   2.400   3.306   1.705 -0.1287  0.0828  0.2071
    4BIM    C3011394   2.503   3.396   1.745 -0.2208  0.1523  0.2896
    4BIM    C3111395   2.301   3.365   1.620 -0.1786  0.0534  0.2454
    5BIM     F111396   1.352   1.457   2.252  0.0936 -0.1183 -0.1469
    5BIM     F211397   1.097   1.365   2.234  0.1615 -0.2632 -0.3663
    5BIM     O111398   1.340   1.864   1.896  0.0738  0.0902  0.0916
    5BIM     N511399   0.721   1.522   1.953  0.2449 -0.3229 -0.5118
    5BIM     N611400   0.762   1.859   1.678  0.2157 -0.1308 -0.2812
    5BIM    C1911401   1.091   1.921   1.751  0.1315  0.0259 -0.0333
    5BIM    C2011402   1.104   1.822   1.842  0.1339 -0.0210 -0.0848
    5BIM    C2111403   1.235   1.799   1.912  0.1031  0.0166 -0.0148
    5BIM    C2211404   1.215   1.685   2.003  0.1145 -0.0509 -0.0970
    5BIM    C2311405   1.308   1.627   2.089  0.0949 -0.0462 -0.0725
    5BIM    C2411406   1.265   1.519   2.165  0.1114 -0.1186 -0.1649
    5BIM    C2511407   1.134   1.472   2.155  0.1464 -0.1931 -0.2778
    5BIM    C2611408   1.041   1.529   2.070  0.1661 -0.1984 -0.3028
    5BIM    C2711409   1.082   1.638   1.992  0.1498 -0.1257 -0.2105
    5BIM    C2811410   1.009   1.720   1.892  0.1631 -0.1103 -0.2075
    5BIM    C2911411   0.877   1.706   1.855  0.1962 -0.1677 -0.3006
    5BIM    C3011412   0.792   1.605   1.909  0.2229 -0.2528 -0.4164
    5BIM    C3111413   0.815   1.790   1.758  0.2067 -0.1470 -0.2894
    1BTD     S211414   5.149   9.494   9.445 -0.0743  0.2758 -0.4162
    1BTD     N111415   5.249   9.643   9.460  0.0281  0.1667  0.0100
    1BTD     N211416   5.266   9.390   9.534 -0.2344 -0.0153 -0.5469
    1BTD     N311417   5.684   9.445   9.741 -0.3754 -0.8051 -0.0429
    1BTD     N411418   5.663   9.757   9.650 -0.0519 -0.5805  0.6437
    1BTD     C511419   5.466   9.699   9.561 -0.0175 -0.2263  0.3326
    1BTD     C611420   5.359   9.609   9.527 -0.0577 -0.0689  0.0322
    1BTD     C711421   5.368   9.467   9.568 -0.2046 -0.1707 -0.2794
    1BTD     C811422   5.484   9.422   9.641 -0.3041 -0.4251 -0.2754
    1BTD    C1511423   5.586   9.514   9.672 -0.2601 -0.5724  0.0245
    1BTD    C1611424   5.577   9.651   9.632 -0.1183 -0.4738  0.3251
    1BTD    C4311425   5.808   9.753   9.675 -0.2600  0.2547 -0.6462
    1BTD    C4411426   5.916   9.765   9.571  0.3100 -0.5830 -0.3867
    1BTD    C4511427   6.050   9.764   9.638  0.3488 -0.8896  0.1569
    1BTD    C4611428   6.167   9.823   9.559  0.2008  0.1633  0.8422
    1BTD    C4711429   5.903   9.665   9.456 -0.4697 -0.4460 -0.4031
    1BTD    C4811430   5.922   9.508   9.483  0.0368  0.3372  0.4392
    1BTD    C4911431   5.934   9.418   9.359 -0.6527  0.0450  0.0655
    1BTD    C5011432   5.949   9.266   9.390 -0.5779  0.4489 -0.1987
    1BTD    C7511433   5.772   9.489   9.850  0.2119 -0.3307 -0.7801
    1BTD    C7611434   5.727   9.471   9.997  0.0125 -0.3852 -0.2846
    1BTD    C7711435   5.825   9.494  10.113  0.6702  0.2846 -0.2340
    1BTD    C7811436   5.956   9.419  10.100 -0.8987 -0.1123 -0.2091
    1BTD    C7911437   5.594   9.537  10.012  0.3749 -0.0878 -0.2687
    1BTD    C8011438   5.497   9.506  10.126  0.1551 -0.4268  0.1030
    1BTD    C8111439   5.492   9.364  10.181  0.5872 -0.0337 -0.4699
    1BTD    C8211440   5.377   9.336  10.284  0.7057 -0.6261 -0.6021
    2TTP     S111441   5.370   9.979   9.509 -0.2072  0.0036  0.2479
    2TTP     S511442   5.720  10.129   9.709  0.1495 -0.4058 -0.0658
    2TTP     C111443   5.611  10.269   9.670  0.2303 -0.2893  0.1246
    2TTP     C211444   5.497  10.231   9.606  0.1248 -0.1560  0.2325
    2TTP     C311445   5.491  10.090   9.586 -0.0235 -0.1411  0.1693
    2TTP     C411446   5.479   9.839   9.549 -0.2879 -0.1130  0.0579
    2TTP    C1711447   5.594   9.877   9.613 -0.1827 -0.2463 -0.0502
    2TTP    C1811448   5.599  10.018   9.633 -0.0342 -0.2612  0.0131
    2TTP    C3211449   5.388  10.328   9.557  0.2369  0.3530  0.5566
    2TTP    C3311450   5.397  10.346   9.406 -0.1320 -0.6071  0.1261
    2TTP    C3411451   5.307  10.447   9.332  0.4942 -0.6759 -0.4711
    2TTP    C3511452   5.160  10.391   9.338  0.4164  0.0863  0.9723
    2TTP    C3611453   5.042  10.469   9.285 -0.2033  0.1873  0.2343
    2TTP    C3711454   4.999  10.578   9.378  0.0694  0.3318 -0.5808
    2TTP    C3811455   4.988  10.719   9.332  0.0364  0.1648  0.3021
    2TTP    C3911456   4.918  10.808   9.447  0.0581  0.3590  0.1732
    2TTP    C4011457   4.928  10.959   9.433 -0.1183  0.0119  0.8695
    2TTP    C4111458   4.838  11.030   9.532 -0.6688 -0.2591  0.1828
    2TTP    C4211459   4.847  11.182   9.551 -0.2925 -0.2479 -0.3426
    3TTP     S111460   5.463   9.127   9.697 -0.1379 -0.0585 -0.1186
    3TTP     S511461   5.858   9.137   9.866 -0.1986 -0.0765  0.0254
    3TTP     C111462   5.798   8.965   9.869 -0.2790 -0.0451  0.1704
    3TTP     C211463   5.672   8.952   9.817 -0.2651 -0.0381  0.1345
    3TTP     C311464   5.619   9.077   9.773 -0.1903 -0.0565 -0.0089
    3TTP     C411465   5.523   9.299   9.694 -0.0575 -0.0894 -0.2637
    3TTP    C1711466   5.649   9.312   9.746 -0.0714 -0.0966 -0.2277
    3TTP    C1811467   5.702   9.187   9.790 -0.1463 -0.0780 -0.0844
    3TTP    C3211468   5.580   8.827   9.805  0.0050 -0.1122 -0.7608
    3TTP    C3311469   5.531   8.759   9.935  0.3887 -0.2520  0.4765
    3TTP    C3411470   5.426   8.846  10.004 -0.1581  0.0730 -0.8102
    3TTP    C3511471   5.343   8.780  10.110  0.1628  0.3231  0.4643
    3TTP    C3611472   5.207   8.843  10.135 -0.0068  1.0558 -0.9750
    3TTP    C3711473   5.103   8.806  10.031 -0.0810  0.0419  0.4932
    3TTP    C3811474   4.972   8.875  10.063  0.5011  0.3723 -0.4195
    3TTP    C3911475   4.875   8.841   9.955  0.3314 -0.4140 -0.2567
    3TTP    C4011476   4.741   8.906   9.974 -0.8626  0.0291 -0.1059
    3TTP    C4111477   4.670   8.900   9.843 -0.1935 -0.1524 -0.1829
    3TTP    C4211478   4.515   8.940   9.846 -0.1748  0.5718 -0.4392
    4BIM     F111479   6.188  10.679  10.091  0.1899  0.0979 -0.2167
    4BIM     F211480   6.095  10.909   9.980 -0.2193  0.1183  0.1639
    4BIM     O111481   5.846  10.317   9.878  0.4594 -0.0822 -0.3449
    4BIM     N511482   5.717  10.983   9.669 -0.6157  0.0193  0.6196
    4BIM     N611483   5.468  10.653   9.525 -0.3223 -0.1256  0.4427
    4BIM    C1911484   5.635  10.409   9.697  0.1642 -0.1267 -0.0269
    4BIM    C2011485   5.725  10.491   9.755  0.1124 -0.0822 -0.0095
    4BIM    C2111486   5.830  10.436   9.847  0.2731 -0.0618 -0.1797
    4BIM    C2211487   5.910  10.551   9.892  0.1651 -0.0131 -0.1111
    4BIM    C2311488   6.019  10.550   9.978  0.2495  0.0197 -0.2170
    4BIM    C2411489   6.079  10.672  10.006  0.1166  0.0637 -0.1207
    4BIM    C2511490   6.031  10.791   9.949 -0.0942  0.0741  0.0754
    4BIM    C2611491   5.923  10.792   9.863 -0.1796  0.0415  0.1819
    4BIM    C2711492   5.860  10.670   9.833 -0.0473 -0.0032  0.0869
    4BIM    C2811493   5.745  10.637   9.746 -0.0881 -0.0452  0.1571
    4BIM    C2911494   5.670  10.726   9.673 -0.2759 -0.0491  0.3414
    4BIM    C3011495   5.696  10.867   9.671 -0.4619 -0.0114  0.4937
    4BIM    C3111496   5.559  10.686   9.592 -0.3004 -0.0911  0.3960
    5BIM     F111497   6.428   8.905  10.393  0.1439 -0.2940  0.0094
    5BIM     F211498   6.440   8.639  10.335  0.0758 -0.2444 -0.2329
    5BIM     O111499   6.008   9.058  10.087  0.1853  0.0935  0.1456
    5BIM     N511500   6.158   8.367  10.033  0.0076  0.1032 -0.4843
    5BIM     N611501   5.828   8.540   9.805  0.0536  0.3960 -0.3290
    5BIM    C1911502   5.871   8.859   9.922  0.1352  0.2787 -0.0375
    5BIM    C2011503   5.976   8.831  10.002  0.1272  0.1793 -0.0623
    5BIM    C2111504   6.041   8.939  10.083  0.1545  0.0880  0.0367
    5BIM    C2211505   6.151   8.874  10.157  0.1374 -0.0081 -0.0211
    5BIM    C2311506   6.240   8.934  10.246  0.1522 -0.1116  0.0342
    5BIM    C2411507   6.336   8.853  10.304  0.1309 -0.1895 -0.0393
    5BIM    C2511508   6.342   8.716  10.274  0.0958 -0.1637 -0.1642
    5BIM    C2611509   6.254   8.656  10.186  0.0809 -0.0603 -0.2199
    5BIM    C2711510   6.156   8.736  10.126  0.1022  0.0196 -0.1470
    5BIM    C2811511   6.048   8.704  10.029  0.0944  0.1357 -0.1773
    5BIM    C2911512   6.021   8.581   9.975  0.0632  0.1915 -0.2903
    5BIM    C3011513   6.096   8.464  10.007  0.0327  0.1428 -0.3966
    5BIM    C3111514   5.915   8.559   9.882  0.0581  0.3035 -0.3109
    1BTD     S211515   2.475   3.416   2.159  0.2163  0.0607 -0.1061
    1BTD     N111516   2.642   3.480   2.182  0.1942  0.0057  0.2165
    1BTD     N211517   2.515   3.252   2.221  0.1022 -0.0252 -0.2617
    1BTD     N311518   2.895   3.033   2.387 -0.1705 -0.2994  0.0045
    1BTD     N411519   3.052   3.315   2.340 -0.0571 -0.2615  0.5937
    1BTD     C511520   2.854   3.391   2.265  0.0616 -0.1343  0.4064
    1BTD     C611521   2.714   3.381   2.232  0.1073 -0.0700  0.1931
    1BTD     C711522   2.643   3.253   2.253  0.0558 -0.0872 -0.0746
    1BTD     C811523   2.715   3.141   2.307 -0.0389 -0.1678 -0.1156
    1BTD    C1511524   2.852   3.155   2.338 -0.0808 -0.2290  0.0991
    1BTD    C1611525   2.920   3.278   2.317 -0.0310 -0.2123  0.3570
    1BTD    C4311526   3.175   3.234   2.341 -0.3925  0.3879 -0.0703
    1BTD    C4411527   3.250   3.203   2.210  0.0840  0.3394 -0.0239
    1BTD    C4511528   3.401   3.156   2.219 -0.2765  0.9093  0.5119
    1BTD    C4611529   3.501   3.213   2.323  0.7775  0.0718  0.2494
    1BTD    C4711530   3.174   3.138   2.094  0.2408 -0.2399  0.6093
    1BTD    C4811531   3.062   3.208   2.013  0.1087  0.0618 -0.0520
    1BTD    C4911532   3.111   3.332   1.947  0.0731  0.4917 -0.1067
    1BTD    C5011533   2.992   3.417   1.906  0.5507  0.2981 -0.0186
    1BTD    C7511534   3.020   2.993   2.453 -0.1700 -0.3736 -0.4736
    1BTD    C7611535   3.095   2.853   2.436  0.3579  0.1586 -0.2217
    1BTD    C7711536   3.210   2.837   2.535  0.0794  0.1384  0.1352
    1BTD    C7811537   3.313   2.950   2.555 -0.0758  0.1659 -0.5810
    1BTD    C7911538   3.122   2.811   2.289 -0.2599  0.0847 -0.1048
    1BTD    C8011539   3.180   2.673   2.268  0.6094 -0.0325  0.2303
    1BTD    C8111540   3.081   2.554   2.268 -0.5136 -0.3809 -0.4453
    1BTD    C8211541   3.148   2.420   2.276  0.0908 -0.0343 -0.7893
    2TTP     S111542   2.957   3.669   2.196  0.1149 -0.1086 -0.0971
    2TTP     S511543   3.348   3.557   2.334  0.1149 -0.0225 -0.0272
    2TTP     C111544   3.356   3.728   2.270  0.1824 -0.1663 -0.4105
    2TTP     C211545   3.235   3.772   2.224  0.1864 -0.2013 -0.4547
    2TTP     C311546   3.133   3.673   2.237  0.1363 -0.1159 -0.1875
    2TTP     C411547   2.949   3.498   2.260  0.0473  0.0352  0.2863
    2TTP    C1711548   3.070   3.454   2.306  0.0434  0.0702  0.3304
    2TTP    C1811549   3.172   3.553   2.293  0.0936 -0.0152  0.0631
    2TTP    C3211550   3.203   3.910   2.161 -0.3342  0.0313  0.5611
    2TTP    C3311551   3.130   3.907   2.025  0.2780 -0.0613 -0.1639
    2TTP    C3411552   3.178   3.808   1.915  0.4926 -0.0194 -0.5513
    2TTP    C3511553   3.102   3.798   1.781  0.5628  0.3235 -0.2244
    2TTP    C3611554   3.143   3.676   1.707  0.0558 -0.1651  0.1961
    2TTP    C3711555   3.059   3.653   1.585 -0.0557  0.2263  0.5736
    2TTP    C3811556   3.122   3.713   1.451 -0.4294  0.2129 -0.2968
    2TTP    C3911557   3.040   3.708   1.318  0.5165  0.4856 -0.5826
    2TTP    C4011558   3.094   3.792   1.207  0.6363 -0.2825 -0.0442
    2TTP    C4111559   3.116   3.941   1.241  0.1494 -0.3076 -0.3053
    2TTP    C4211560   3.137   4.038   1.121  0.3924  0.8525  0.3489
    3TTP     S111561   2.528   2.905   2.345  0.1269  0.3532 -0.3799
    3TTP     S511562   2.851   2.680   2.517 -0.2269  0.3012  0.2235
    3TTP     C111563   2.700   2.579   2.524 -0.3354  0.4664  0.2806
    3TTP     C211564   2.591   2.642   2.471 -0.2326  0.4922  0.0975
    3TTP     C311565   2.623   2.773   2.423 -0.0644  0.3825 -0.0942
    3TTP     C411566   2.679   3.006   2.338  0.2354  0.1879 -0.4368
    3TTP    C1711567   2.788   2.943   2.391  0.1326  0.1622 -0.2539
    3TTP    C1811568   2.756   2.812   2.438 -0.0356  0.2720 -0.0620
    3TTP    C3211569   2.447   2.599   2.470  0.0960  0.0235 -0.0530
    3TTP    C3311570   2.387   2.526   2.353 -0.2911 -0.6794  0.2169
    3TTP    C3411571   2.376   2.607   2.224  0.1244  0.0923  0.0064
    3TTP    C3511572   2.325   2.533   2.096 -0.3412  0.1662  0.3498
    3TTP    C3611573   2.174   2.525   2.080  0.6115 -0.6225  0.9927
    3TTP    C3711574   2.119   2.487   1.935  0.0711  0.2036 -0.2156
    3TTP    C3811575   2.162   2.353   1.878  0.0069 -0.5909 -0.1205
    3TTP    C3911576   2.150   2.329   1.730  0.6661 -0.1062  0.0259
    3TTP    C4011577   2.247   2.406   1.635 -0.6285 -0.0472 -0.1883
    3TTP    C4111578   2.266   2.552   1.647 -0.2414  0.0404  0.1292
    3TTP    C4211579   2.387   2.600   1.567  0.5271 -0.1214 -0.0564
    4BIM     F111580   3.925   3.839   2.848 -0.0734  0.0561 -0.0203
    4BIM     F211581   4.065   3.990   2.670 -0.1537  0.1165 -0.0321
    4BIM     O111582   3.486   3.715   2.557 -0.0859 -0.0589  0.0475
    4BIM     N511583   3.952   4.118   2.205 -0.2777  0.1212 -0.0007
    4BIM     N611584   3.581   3.990   2.013 -0.2713  0.0192  0.0548
    4BIM    C1911585   3.463   3.815   2.283 -0.1669 -0.0421  0.0603
    4BIM    C2011586   3.568   3.840   2.363 -0.1606 -0.0155  0.0438
    4BIM    C2111587   3.573   3.785   2.503 -0.1181 -0.0265  0.0381
    4BIM    C2211588   3.700   3.832   2.562 -0.1222  0.0091  0.0194
    4BIM    C2311589   3.748   3.806   2.690 -0.0912  0.0134  0.0085
    4BIM    C2411590   3.871   3.861   2.723 -0.1025  0.0499 -0.0088
    4BIM    C2511591   3.943   3.938   2.631 -0.1440  0.0808 -0.0147
    4BIM    C2611592   3.895   3.964   2.503 -0.1751  0.0768 -0.0039
    4BIM    C2711593   3.771   3.910   2.468 -0.1641  0.0401  0.0135
    4BIM    C2811594   3.693   3.918   2.342 -0.1894  0.0262  0.0283
    4BIM    C2911595   3.729   3.985   2.227 -0.2313  0.0479  0.0277
    4BIM    C3011596   3.852   4.058   2.215 -0.2566  0.0882  0.0122
    4BIM    C3111597   3.647   3.988   2.110 -0.2531  0.0319  0.0426
    5BIM     F111598   3.235   2.018   2.812 -0.0726 -0.0786  0.1488
    5BIM     F211599   3.023   1.861   2.878 -0.0715 -0.2112 -0.1586
    5BIM     O111600   2.983   2.442   2.588 -0.0218 -0.1538 -0.0511
    5BIM     N511601   2.538   1.937   2.814 -0.0337 -0.4555 -0.7431
    5BIM     N611602   2.384   2.299   2.625  0.0057 -0.4876 -0.8374
    5BIM    C1911603   2.691   2.442   2.571 -0.0028 -0.3073 -0.4158
    5BIM    C2011604   2.763   2.341   2.625 -0.0156 -0.2832 -0.3536
    5BIM    C2111605   2.913   2.349   2.630 -0.0248 -0.2035 -0.1643
    5BIM    C2211606   2.958   2.224   2.694 -0.0379 -0.1962 -0.1410
    5BIM    C2311607   3.089   2.185   2.721 -0.0496 -0.1326  0.0121
    5BIM    C2411608   3.108   2.063   2.783 -0.0607 -0.1393  0.0023
    5BIM    C2511609   2.999   1.982   2.817 -0.0601 -0.2076 -0.1562
    5BIM    C2611610   2.868   2.020   2.791 -0.0485 -0.2714 -0.3094
    5BIM    C2711611   2.847   2.144   2.728 -0.0371 -0.2657 -0.3021
    5BIM    C2811612   2.722   2.213   2.687 -0.0234 -0.3219 -0.4391
    5BIM    C2911613   2.594   2.166   2.703 -0.0188 -0.3956 -0.6120
    5BIM    C3011614   2.564   2.040   2.764 -0.0270 -0.4283 -0.6835
    5BIM    C3111615   2.479   2.240   2.660 -0.0053 -0.4458 -0.7350
    1BTD     S211616   0.769   1.887   6.171 -0.2190 -0.2524  0.2167
    1BTD     N111617   0.783   2.057   6.227 -0.0222 -0.2039  0.0223
    1BTD     N211618   0.619   1.915   6.076 -0.2597 -0.2168  0.2913
    1BTD     N311619   0.337   2.279   5.983  0.0126 -0.0566  0.0926
    1BTD     N411620   0.539   2.455   6.169  0.3052 -0.0408 -0.2388
    1BTD     C511621   0.653   2.263   6.194  0.1452 -0.1190 -0.1099
    1BTD     C611622   0.680   2.123   6.175  0.0017 -0.1657  0.0230
    1BTD     C711623   0.588   2.043   6.090 -0.1312 -0.1729  0.1736
    1BTD     C811624   0.474   2.107   6.030 -0.1140 -0.1329  0.1837
    1BTD    C1511625   0.452   2.244   6.052  0.0286 -0.0879  0.0503
    1BTD    C1611626   0.541   2.321   6.133  0.1567 -0.0809 -0.0947
    1BTD    C4311627   0.414   2.533   6.188 -0.2258  0.6605  0.5193
    1BTD    C4411628   0.403   2.682   6.164 -0.9081  0.0113  0.6752
    1BTD    C4511629   0.286   2.754   6.215  0.6008  0.1562  0.3307
    1BTD    C4611630   0.204   2.723   6.336 -0.0463 -0.3063 -0.3577
    1BTD    C4711631   0.453   2.727   6.026 -0.5747 -0.0790  0.0484
    1BTD    C4811632   0.471   2.884   5.998  0.5733  0.3817 -0.0050
    1BTD    C4911633   0.499   2.930   5.848  0.3253 -0.0994 -0.2141
    1BTD    C5011634   0.390   2.908   5.751  0.5672 -0.2458 -0.1104
    1BTD    C7511635   0.309   2.411   5.922  0.4840  0.0706 -0.1414
    1BTD    C7611636   0.165   2.471   5.907  0.1165 -0.0730 -0.4224
    1BTD    C7711637   0.149   2.594   5.823  0.1549 -0.0761  0.4773
    1BTD    C7811638   0.201   2.596   5.677  0.3154  1.1797 -0.8122
    1BTD    C7911639   0.085   2.474   6.038  0.1365 -0.1883  0.1540
    1BTD    C8011640  -0.061   2.486   6.004 -0.3970  0.1016 -0.4471
    1BTD    C8111641  -0.145   2.486   6.131 -0.0393  0.2963  0.6243
    1BTD    C8211642  -0.288   2.492   6.095  0.5880  0.0123 -0.3481
    2TTP     S111643   0.891   2.391   6.334  0.1254  0.1861 -0.0170
    2TTP     S511644   0.697   2.774   6.312 -0.2715 -0.0134 -0.0106
    2TTP     C111645   0.864   2.798   6.380 -0.3647  0.1341  0.1685
    2TTP     C211646   0.934   2.681   6.391 -0.2477  0.2043  0.1771
    2TTP     C311647   0.858   2.569   6.346 -0.0801  0.1443  0.0424
    2TTP     C411648   0.724   2.368   6.266  0.2187  0.0386 -0.1960
    2TTP    C1711649   0.654   2.485   6.255  0.1016 -0.0317 -0.2049
    2TTP    C1811650   0.730   2.597   6.300 -0.0660  0.0284 -0.0702
    2TTP    C3211651   1.083   2.665   6.432  0.3375  0.6254  0.7180
    2TTP    C3311652   1.105   2.579   6.552 -0.0080  0.0810 -0.3264
    2TTP    C3411653   1.219   2.490   6.525  0.0283 -0.0899  0.0546
    2TTP    C3511654   1.216   2.375   6.628 -0.3003  0.0397 -0.1462
    2TTP    C3611655   1.330   2.276   6.601  0.4830 -0.1179 -0.2123
    2TTP    C3711656   1.315   2.138   6.668  0.6701 -0.5373  0.3127
    2TTP    C3811657   1.422   2.041   6.621  0.0516  0.5356  0.9112
    2TTP    C3911658   1.412   1.908   6.690  0.3195  0.0633 -1.0728
    2TTP    C4011659   1.515   1.806   6.649 -0.5171  0.2960 -0.4860
    2TTP    C4111660   1.486   1.686   6.743  0.2946 -0.1572  0.1571
    2TTP    C4211661   1.536   1.546   6.698 -0.1614  0.0312 -0.1631
    3TTP     S111662   0.301   1.903   5.880  0.3656 -0.0270 -0.0854
    3TTP     S511663   0.008   2.211   5.814  0.0350 -0.3209  0.0010
    3TTP     C111664  -0.058   2.054   5.751 -0.0193 -0.4792  0.4487
    3TTP     C211665   0.028   1.950   5.768  0.0792 -0.3977  0.4483
    3TTP     C311666   0.150   1.990   5.830  0.2017 -0.2075  0.0944
    3TTP     C411667   0.367   2.060   5.942  0.4202  0.1312 -0.5332
    3TTP    C1711668   0.281   2.165   5.926  0.3213  0.0497 -0.5329
    3TTP    C1811669   0.159   2.124   5.863  0.1989 -0.1405 -0.1791
    3TTP    C3211670   0.003   1.807   5.727  0.9898  0.1055 -0.0340
    3TTP    C3311671   0.052   1.770   5.589  0.0501 -0.0690  0.4321
    3TTP    C3411672  -0.000   1.636   5.534  0.1884 -0.0213 -0.4638
    3TTP    C3511673   0.065   1.596   5.403  0.1494 -0.4163  0.1259
    3TTP    C3611674  -0.011   1.475   5.350 -0.1681  0.5333  0.6333
    3TTP    C3711675   0.028   1.418   5.212 -0.1702  0.6363  0.1268
    3TTP    C3811676  -0.058   1.307   5.156 -0.2997  1.0340  0.4581
    3TTP    C3911677  -0.076   1.182   5.247  0.4072 -0.6178 -0.2029
    3TTP    C4011678  -0.184   1.083   5.210  0.1950 -0.4918  0.1507
    3TTP    C4111679  -0.227   0.982   5.308  0.2671  0.1940 -0.0539
    3TTP    C4211680  -0.362   1.017   5.393 -0.9598  0.5619 -0.2612
    4BIM     F111681   0.843   3.553   6.048  0.0889 -0.1103  0.0215
    4BIM     F211682   1.011   3.636   6.246 -0.1294 -0.1036  0.2042
    4BIM     O111683   0.791   3.029   6.170  0.1589 -0.1621 -0.1704
    4BIM     N511684   1.214   3.380   6.618 -0.3933 -0.1310  0.3301
    4BIM     N611685   1.139   2.954   6.674 -0.2947 -0.1729  0.1436
    4BIM    C1911686   0.932   2.921   6.403 -0.0248 -0.1741 -0.0638
    4BIM    C2011687   0.939   3.050   6.364 -0.0339 -0.1614 -0.0226
    4BIM    C2111688   0.863   3.098   6.244  0.0644 -0.1559 -0.0823
    4BIM    C2211689   0.892   3.241   6.230  0.0259 -0.1418 -0.0155
    4BIM    C2311690   0.845   3.329   6.133  0.0875 -0.1326 -0.0373
    4BIM    C2411691   0.886   3.461   6.141  0.0331 -0.1198  0.0379
    4BIM    C2511692   0.973   3.503   6.243 -0.0794 -0.1165  0.1322
    4BIM    C2611693   1.020   3.417   6.340 -0.1413 -0.1256  0.1545
    4BIM    C2711694   0.979   3.282   6.334 -0.0877 -0.1386  0.0792
    4BIM    C2811695   1.011   3.166   6.421 -0.1289 -0.1504  0.0784
    4BIM    C2911696   1.093   3.167   6.531 -0.2349 -0.1512  0.1565
    4BIM    C3011697   1.159   3.284   6.579 -0.3216 -0.1401  0.2517
    4BIM    C3111698   1.118   3.049   6.609 -0.2672 -0.1631  0.1489
    5BIM     F111699  -0.759   2.474   5.842  0.2787  0.0683 -0.0888
    5BIM     F211700  -0.864   2.331   5.636  0.0832 -0.1559  0.1652
    5BIM     O111701  -0.266   2.252   5.880  0.3092  0.0989 -0.3016
    5BIM     N511702  -0.665   1.966   5.367 -0.1755 -0.4567  0.3786
    5BIM     N611703  -0.259   1.822   5.438 -0.1123 -0.3875  0.1612
    5BIM    C1911704  -0.192   2.036   5.697  0.1334 -0.1046 -0.1347
    5BIM    C2011705  -0.312   2.097   5.695  0.1335 -0.1035 -0.0911
    5BIM    C2111706  -0.343   2.207   5.793  0.2270  0.0045 -0.1827
    5BIM    C2211707  -0.480   2.252   5.764  0.2007 -0.0242 -0.1041
    5BIM    C2311708  -0.553   2.352   5.828  0.2630  0.0483 -0.1464
    5BIM    C2411709  -0.681   2.376   5.783  0.2212  0.0016 -0.0537
    5BIM    C2511710  -0.736   2.302   5.677  0.1211 -0.1140  0.0771
    5BIM    C2611711  -0.664   2.202   5.612  0.0584 -0.1868  0.1199
    5BIM    C2711712  -0.533   2.176   5.657  0.0992 -0.1411  0.0275
    5BIM    C2811713  -0.432   2.078   5.610  0.0536 -0.1944  0.0409
    5BIM    C2911714  -0.447   1.988   5.508 -0.0436 -0.3066  0.1535
    5BIM    C3011715  -0.566   1.976   5.431 -0.1156 -0.3887  0.2770
    5BIM    C3111716  -0.343   1.897   5.470 -0.0808 -0.3504  0.1571
    1BTD     S211717   4.467   3.703   7.504 -0.0921 -0.0980 -0.1333
    1BTD     N111718   4.386   3.831   7.408 -0.1714 -0.0557 -0.0104
    1BTD     N211719   4.578   3.816   7.589 -0.0166 -0.1366 -0.1798
    1BTD     N311720   4.657   4.278   7.591 -0.0055 -0.1389 -0.0529
    1BTD     N411721   4.421   4.298   7.366 -0.1965 -0.0391  0.1559
    1BTD     C511722   4.407   4.075   7.389 -0.1822 -0.0484  0.0740
    1BTD     C611723   4.443   3.946   7.443 -0.1390 -0.0717 -0.0103
    1BTD     C711724   4.550   3.937   7.544 -0.0523 -0.1170 -0.1050
    1BTD     C811725   4.616   4.057   7.587 -0.0130 -0.1365 -0.1111
    1BTD    C1511726   4.578   4.181   7.532 -0.0576 -0.1125 -0.0266
    1BTD    C1611727   4.475   4.190   7.434 -0.1412 -0.0687  0.0648
    1BTD    C4311728   4.403   4.437   7.422  0.0635  0.5315 -0.2357
    1BTD    C4411729   4.400   4.559   7.339 -0.6189 -0.4492  0.1007
    1BTD    C4511730   4.530   4.564   7.261  0.5297 -0.2293 -0.4363
    1BTD    C4611731   4.558   4.668   7.154 -0.1171  0.2818  0.3875
    1BTD    C4711732   4.360   4.688   7.418  0.9076  0.3318  0.5643
    1BTD    C4811733   4.224   4.687   7.497 -0.9508 -0.0456 -0.0056
    1BTD    C4911734   4.103   4.655   7.417  0.5260 -0.0756 -0.0508
    1BTD    C5011735   4.042   4.769   7.335 -0.1036  0.0086  0.5972
    1BTD    C7511736   4.696   4.411   7.544 -0.7735  0.3169  0.0783
    1BTD    C7611737   4.837   4.435   7.491 -0.0083  0.2126  0.1539
    1BTD    C7711738   4.882   4.337   7.383 -0.0298 -0.2005  0.5013
    1BTD    C7811739   4.830   4.349   7.237  0.3559  0.3103  0.1211
    1BTD    C7911740   4.874   4.582   7.484 -0.1107 -0.6378  0.0916
    1BTD    C8011741   5.020   4.632   7.446 -0.0487 -0.3049 -0.2071
    1BTD    C8111742   5.033   4.776   7.403 -0.0667 -0.6044 -0.3571
    1BTD    C8211743   5.181   4.813   7.371 -0.2794  0.3061  0.3540
    2TTP     S111744   4.199   4.046   7.167 -0.0463 -0.0524 -0.2042
    2TTP     S511745   4.209   4.471   7.102  0.1333 -0.0429 -0.1165
    2TTP     C111746   4.095   4.396   6.981  0.1906  0.0165 -0.2080
    2TTP     C211747   4.085   4.260   6.994  0.1385  0.0170 -0.2406
    2TTP     C311748   4.167   4.210   7.100  0.0515 -0.0294 -0.1944
    2TTP     C411749   4.313   4.120   7.288 -0.1037 -0.1118 -0.1128
    2TTP    C1711750   4.323   4.256   7.275 -0.0516 -0.1125 -0.0804
    2TTP    C1811751   4.240   4.306   7.169  0.0354 -0.0659 -0.1264
    2TTP    C3211752   3.987   4.164   6.931  0.5732  0.5553  0.5634
    2TTP    C3311753   4.029   4.104   6.795  0.1913 -0.1317 -0.6225
    2TTP    C3411754   3.965   3.977   6.739 -0.2551  0.1433 -0.4897
    2TTP    C3511755   3.821   3.986   6.691 -0.0240 -0.6880  0.9212
    2TTP    C3611756   3.770   3.860   6.626 -0.0528  0.5665  0.0038
    2TTP    C3711757   3.753   3.740   6.719 -0.3313 -0.0786 -0.1993
    2TTP    C3811758   3.676   3.627   6.645  0.2425  0.4030 -0.9758
    2TTP    C3911759   3.653   3.506   6.737  0.0579 -0.0501  0.0005
    2TTP    C4011760   3.776   3.418   6.773 -0.3064  0.2420  0.1546
    2TTP    C4111761   3.743   3.306   6.873 -0.2616 -0.7504  0.7651
    2TTP    C4211762   3.866   3.261   6.953 -0.2435 -0.2048 -0.3890
    3TTP     S111763   4.814   3.999   7.811 -0.0711  0.1290 -0.1362
    3TTP     S511764   4.858   4.423   7.873  0.2253  0.0938 -0.1069
    3TTP     C111765   4.946   4.335   8.006  0.2657  0.0225 -0.1809
    3TTP     C211766   4.938   4.199   7.995  0.1767  0.0291 -0.1940
    3TTP     C311767   4.861   4.159   7.881  0.0732  0.0910 -0.1465
    3TTP     C411768   4.726   4.087   7.678 -0.1117  0.2003 -0.0623
    3TTP    C1711769   4.734   4.223   7.689 -0.0225  0.1937 -0.0492
    3TTP    C1811770   4.811   4.263   7.803  0.0809  0.1321 -0.0966
    3TTP    C3211771   5.011   4.098   8.086  0.1313  0.7633 -0.4931
    3TTP    C3311772   5.157   4.057   8.058  0.6768  0.2457 -0.0854
    3TTP    C3411773   5.196   4.006   7.919 -0.0098  0.3401  0.1927
    3TTP    C3511774   5.215   4.103   7.803 -0.4451  0.1994 -0.4927
    3TTP    C3611775   5.315   4.218   7.821  0.1378  0.6495  0.0530
    3TTP    C3711776   5.327   4.313   7.705  0.2362 -0.4886 -0.2317
    3TTP    C3811777   5.456   4.382   7.684  0.0129 -0.3888 -0.1265
    3TTP    C3911778   5.449   4.486   7.563 -0.0145  0.4813 -0.0371
    3TTP    C4011779   5.584   4.502   7.504 -0.1143 -0.1088 -0.2073
    3TTP    C4111780   5.569   4.581   7.373 -0.1332 -0.0716  0.3853
    3TTP    C4211781   5.687   4.589   7.283  0.2289  0.6888  0.9396
    4BIM     F111782   3.986   5.178   6.761  0.0713 -0.0499 -0.0110
    4BIM     F211783   3.758   5.103   6.633  0.2570 -0.1162 -0.3049
    4BIM     O111784   4.163   4.700   6.945 -0.1478  0.0328  0.4194
    4BIM     N511785   3.556   4.654   6.580  0.3679 -0.1523 -0.4203
    4BIM     N611786   3.740   4.296   6.749  0.1593 -0.0743 -0.0249
    4BIM    C1911787   4.008   4.459   6.887 -0.0480 -0.0009  0.2916
    4BIM    C2011788   3.972   4.582   6.846 -0.0004 -0.0192  0.1948
    4BIM    C2111789   4.057   4.701   6.880 -0.0567  0.0001  0.2698
    4BIM    C2211790   3.990   4.818   6.820  0.0174 -0.0275  0.1307
    4BIM    C2311791   4.031   4.951   6.825  0.0005 -0.0226  0.1385
    4BIM    C2411792   3.951   5.045   6.761  0.0827 -0.0530 -0.0098
    4BIM    C2511793   3.833   5.006   6.695  0.1782 -0.0869 -0.1612
    4BIM    C2611794   3.792   4.874   6.690  0.1956 -0.0921 -0.1699
    4BIM    C2711795   3.872   4.777   6.754  0.1135 -0.0618 -0.0209
    4BIM    C2811796   3.856   4.630   6.768  0.1063 -0.0579  0.0125
    4BIM    C2911797   3.753   4.554   6.717  0.1838 -0.0852 -0.1034
    4BIM    C3011798   3.645   4.609   6.642  0.2847 -0.1221 -0.2772
    4BIM    C3111799   3.747   4.413   6.735  0.1698 -0.0792 -0.0595
    5BIM     F111800   5.004   5.112   8.272 -0.3006 -0.0634  0.0436
    5BIM     F211801   5.155   5.025   8.481  0.1575  0.0582 -0.2341
    5BIM     O111802   4.901   4.645   8.018 -0.4407 -0.1533  0.2649
    5BIM     N511803   5.299   4.566   8.599  0.7164  0.1688 -0.4759
    5BIM     N611804   5.188   4.219   8.358  0.5145  0.0740 -0.2470
    5BIM    C1911805   5.008   4.396   8.127 -0.0528 -0.0691  0.0779
    5BIM    C2011806   5.029   4.517   8.182 -0.0354 -0.0513  0.0331
    5BIM    C2111807   4.970   4.641   8.121 -0.2427 -0.0973  0.1357
    5BIM    C2211808   5.011   4.754   8.206 -0.1638 -0.0627  0.0525
    5BIM    C2311809   4.980   4.888   8.189 -0.2946 -0.0855  0.1013
    5BIM    C2411810   5.030   4.977   8.283 -0.1817 -0.0439  0.0027
    5BIM    C2511811   5.108   4.932   8.390  0.0543  0.0187 -0.1405
    5BIM    C2611812   5.139   4.798   8.408  0.1857  0.0420 -0.1900
    5BIM    C2711813   5.089   4.706   8.314  0.0745  0.0004 -0.0916
    5BIM    C2811814   5.103   4.559   8.304  0.1628  0.0098 -0.1090
    5BIM    C2911815   5.172   4.477   8.390  0.3859  0.0648 -0.2334
    5BIM    C3011816   5.242   4.526   8.505  0.5667  0.1217 -0.3662
    5BIM    C3111817   5.181   4.336   8.372  0.4554  0.0696 -0.2401
    1BTD     S211818   4.374   9.378   2.665  0.0764  0.0496 -0.2245
    1BTD     N111819   4.404   9.553   2.699 -0.0811  0.0029  0.1670
    1BTD     N211820   4.527   9.323   2.743  0.2774  0.0362 -0.6230
    1BTD     N311821   4.890   9.524   2.961  0.4026 -0.0753 -0.7283
    1BTD     N411822   4.739   9.807   2.907 -0.0392 -0.1161  0.2452
    1BTD     C511823   4.581   9.682   2.808 -0.0539 -0.0589  0.1960
    1BTD     C611824   4.520   9.560   2.763  0.0190 -0.0191 -0.0104
    1BTD     C711825   4.588   9.431   2.787  0.2197 -0.0005 -0.4526
    1BTD     C811826   4.715   9.431   2.856  0.3375 -0.0226 -0.6663
    1BTD    C1511827   4.771   9.553   2.899  0.2598 -0.0613 -0.4516
    1BTD    C1611828   4.704   9.677   2.875  0.0667 -0.0789 -0.0255
    1BTD    C4311829   4.830   9.846   3.025 -0.4097 -0.3505  0.8301
    1BTD    C4411830   4.902   9.981   3.038  0.2998  0.1262  0.3953
    1BTD    C4511831   4.971  10.016   3.176  0.3872  0.6533  0.0812
    1BTD    C4611832   4.879   9.986   3.302 -0.6674 -0.2218  0.2313
    1BTD    C4711833   4.994   9.999   2.918  0.0896  0.1412  0.2872
    1BTD    C4811834   5.079  10.125   2.914  0.2777  1.0404 -0.2327
    1BTD    C4911835   5.168  10.138   2.796 -0.0428 -0.1085  0.3622
    1BTD    C5011836   5.221  10.282   2.786 -0.5437  0.3457  0.0148
    1BTD    C7511837   5.017   9.596   2.933  0.3714  0.1759  0.4327
    1BTD    C7611838   5.157   9.585   3.006  0.1683 -0.3590  0.4170
    1BTD    C7711839   5.267   9.666   2.923  0.3980 -0.2261 -0.2513
    1BTD    C7811840   5.310   9.591   2.806 -0.0489  0.1575  0.6372
    1BTD    C7911841   5.125   9.628   3.152  0.4434 -0.3484 -0.0097
    1BTD    C8011842   5.238   9.653   3.251 -0.3878  0.2883 -0.0852
    1BTD    C8111843   5.329   9.535   3.288 -0.3798 -0.5088  0.6247
    1BTD    C8211844   5.449   9.577   3.373 -0.4089  0.4736  0.3542
    2TTP     S111845   4.411   9.915   2.718  0.1657 -0.0288 -0.2472
    2TTP     S511846   4.708  10.187   2.870 -0.0782 -0.0401  0.2552
    2TTP     C111847   4.576  10.284   2.790  0.0792 -0.0371 -0.0014
    2TTP     C211848   4.477  10.206   2.738  0.1638 -0.0334 -0.1717
    2TTP     C311849   4.501  10.067   2.760  0.1074 -0.0329 -0.1056
    2TTP     C411850   4.543   9.819   2.799  0.0082 -0.0318  0.0094
    2TTP    C1711851   4.642   9.897   2.850 -0.0765 -0.0354  0.1797
    2TTP    C1811852   4.618  10.036   2.828 -0.0200 -0.0360  0.1136
    2TTP    C3211853   4.348  10.240   2.666  0.3054 -0.2098 -0.3910
    2TTP    C3311854   4.234  10.229   2.769 -0.1406  0.0030  0.1321
    2TTP    C3411855   4.092  10.217   2.720  0.3469 -0.3694 -0.1828
    2TTP    C3511856   4.051  10.094   2.647 -0.6117  0.1493 -0.1817
    2TTP    C3611857   3.903  10.068   2.639  0.2351 -0.6793  0.6376
    2TTP    C3711858   3.864   9.935   2.577 -0.4808  0.3916 -0.5538
    2TTP    C3811859   3.722   9.916   2.520 -0.7379 -0.1062 -0.1199
    2TTP    C3911860   3.705   9.774   2.467  0.2594 -0.0044  0.3268
    2TTP    C4011861   3.568   9.745   2.401  0.2573  0.0222 -0.3346
    2TTP    C4111862   3.566   9.603   2.345 -0.3627  0.0994  0.5163
    2TTP    C4211863   3.447   9.580   2.254 -0.1036  0.2419 -0.1010
    3TTP     S111864   4.770   9.149   2.934  0.3643 -0.1591  0.1708
    3TTP     S511865   5.098   9.281   3.178  0.1009  0.2780  0.2918
    3TTP     C111866   5.073   9.102   3.206  0.2979  0.2545  0.3172
    3TTP     C211867   4.971   9.051   3.132  0.3909  0.1178  0.2813
    3TTP     C311868   4.907   9.151   3.051  0.3098  0.0272  0.2325
    3TTP     C411869   4.794   9.327   2.907  0.1675 -0.1349  0.1454
    3TTP    C1711870   4.897   9.378   2.981  0.0743  0.0013  0.1813
    3TTP    C1811871   4.960   9.278   3.061  0.1553  0.0918  0.2301
    3TTP    C3211872   4.920   8.907   3.122 -0.3532  0.1910 -0.1886
    3TTP    C3311873   4.925   8.844   2.978  0.1265  0.6607 -0.4820
    3TTP    C3411874   4.835   8.724   2.976 -0.4024  0.2813  0.3067
    3TTP    C3511875   4.812   8.684   2.832 -0.3238  0.0715 -0.4191
    3TTP    C3611876   4.755   8.548   2.799  0.2191  0.3505 -0.0300
    3TTP    C3711877   4.855   8.431   2.815 -0.5017 -0.4727 -0.6410
    3TTP    C3811878   4.800   8.293   2.796 -0.1697 -0.2215  0.3261
    3TTP    C3911879   4.902   8.188   2.769 -0.3544  0.0762 -0.1401
    3TTP    C4011880   4.825   8.058   2.741 -0.3069  0.6795  0.0212
    3TTP    C4111881   4.921   7.947   2.695 -0.8682 -0.2961  0.2842
    3TTP    C4211882   4.857   7.842   2.610 -0.0357  0.5537  0.1022
    4BIM     F111883   5.129  10.877   2.889  0.1224 -0.2850  0.2003
    4BIM     F211884   4.925  11.056   2.905  0.2209 -0.1752  0.2427
    4BIM     O111885   4.858  10.418   2.798 -0.1340 -0.1181  0.1198
    4BIM     N511886   4.437  10.985   2.863  0.1799  0.1015  0.2465
    4BIM     N611887   4.266  10.590   2.788 -0.0402  0.2098  0.1752
    4BIM    C1911888   4.566  10.425   2.780 -0.1308  0.0460  0.1318
    4BIM    C2011889   4.642  10.534   2.803 -0.0702 -0.0002  0.1504
    4BIM    C2111890   4.792  10.522   2.810 -0.0762 -0.0841  0.1427
    4BIM    C2211891   4.843  10.658   2.836 -0.0005 -0.1172  0.1675
    4BIM    C2311892   4.976  10.697   2.850  0.0217 -0.1931  0.1704
    4BIM    C2411893   5.000  10.831   2.874  0.0966 -0.2110  0.1960
    4BIM    C2511894   4.895  10.923   2.882  0.1472 -0.1544  0.2178
    4BIM    C2611895   4.762  10.885   2.867  0.1255 -0.0785  0.2151
    4BIM    C2711896   4.735  10.749   2.843  0.0499 -0.0593  0.1894
    4BIM    C2811897   4.608  10.676   2.824  0.0092  0.0148  0.1798
    4BIM    C2911898   4.481  10.731   2.824  0.0391  0.0842  0.1951
    4BIM    C3011899   4.457  10.870   2.845  0.1165  0.0934  0.2233
    4BIM    C3111900   4.364  10.653   2.804 -0.0046  0.1529  0.1841
    5BIM     F111901   5.517   9.246   3.875  0.0125 -0.2112 -0.1087
    5BIM     F211902   5.583   8.982   3.881 -0.1771 -0.2604 -0.1684
    5BIM     O111903   5.192   9.260   3.442  0.0473  0.1259 -0.1251
    5BIM     N511904   5.446   8.612   3.583 -0.4252 -0.0901 -0.2658
    5BIM     N611905   5.179   8.676   3.243 -0.3599  0.1833 -0.2666
    5BIM    C1911906   5.139   9.012   3.295 -0.1216  0.1991 -0.1879
    5BIM    C2011907   5.219   9.019   3.403 -0.1229  0.1159 -0.1814
    5BIM    C2111908   5.241   9.150   3.474 -0.0330  0.0832 -0.1486
    5BIM    C2211909   5.331   9.122   3.587 -0.0597 -0.0088 -0.1498
    5BIM    C2311910   5.380   9.212   3.681 -0.0005 -0.0668 -0.1252
    5BIM    C2411911   5.465   9.163   3.779 -0.0422 -0.1507 -0.1321
    5BIM    C2511912   5.499   9.027   3.782 -0.1396 -0.1762 -0.1628
    5BIM    C2611913   5.450   8.936   3.688 -0.1993 -0.1187 -0.1876
    5BIM    C2711914   5.364   8.984   3.588 -0.1585 -0.0331 -0.1810
    5BIM    C2811915   5.297   8.916   3.476 -0.2013  0.0427 -0.2017
    5BIM    C2911916   5.304   8.782   3.445 -0.2955  0.0446 -0.2334
    5BIM    C3011917   5.382   8.689   3.521 -0.3664 -0.0296 -0.2511
    5BIM    C3111918   5.235   8.724   3.334 -0.3303  0.1209 -0.2515
    1BTD     S211919   4.536   1.499   2.084 -0.2372 -0.0314  0.1222
    1BTD     N111920   4.495   1.492   1.909 -0.3469  0.3301  0.1327
    1BTD     N211921   4.699   1.570   2.058 -0.0725 -0.3961  0.1441
    1BTD     N311922   4.957   1.703   1.690  0.0653 -0.4865  0.2079
    1BTD     N411923   4.706   1.608   1.506 -0.2726  0.4084  0.1939
    1BTD     C511924   4.608   1.554   1.701 -0.3041  0.3602  0.1648
    1BTD     C611925   4.599   1.541   1.844 -0.2595  0.1687  0.1511
    1BTD     C711926   4.714   1.585   1.927 -0.1060 -0.2378  0.1575
    1BTD     C811927   4.831   1.639   1.864 -0.0046 -0.4326  0.1772
    1BTD    C1511928   4.835   1.649   1.723 -0.0533 -0.2336  0.1901
    1BTD    C1611929   4.724   1.607   1.643 -0.2010  0.1581  0.1840
    1BTD    C4311930   4.764   1.706   1.410 -0.1827  0.4578  0.9717
    1BTD    C4411931   4.790   1.685   1.258  0.5464 -0.1913 -0.0565
    1BTD    C4511932   4.822   1.813   1.176  0.2239  0.2912 -0.8900
    1BTD    C4611933   4.719   1.924   1.197  0.5993 -0.0210 -0.2377
    1BTD    C4711934   4.854   1.550   1.222  0.4018 -0.0294 -0.3685
    1BTD    C4811935   4.860   1.474   1.085  0.6219  0.6863 -0.0956
    1BTD    C4911936   4.883   1.560   0.963  0.6660  0.2954  0.2250
    1BTD    C5011937   4.833   1.498   0.828  0.0356 -0.2376 -0.3955
    1BTD    C7511938   5.041   1.656   1.574 -0.1236  0.3690 -0.1540
    1BTD    C7611939   5.171   1.722   1.530  0.3782 -0.2388  0.5096
    1BTD    C7711940   5.264   1.633   1.445 -0.3571  0.2460 -0.7103
    1BTD    C7811941   5.246   1.599   1.293  0.0835 -0.7277 -0.1619
    1BTD    C7911942   5.143   1.859   1.463 -0.1803  0.7704 -0.1354
    1BTD    C8011943   5.254   1.949   1.411  0.0561 -0.8155  0.2012
    1BTD    C8111944   5.209   2.081   1.354 -0.4188  0.3250 -0.4281
    1BTD    C8211945   5.324   2.164   1.290 -0.5311  0.2498 -0.5351
    2TTP     S111946   4.354   1.447   1.572 -0.0308 -0.3112 -0.2833
    2TTP     S511947   4.498   1.574   1.187  0.0523  0.2036 -0.0834
    2TTP     C111948   4.332   1.503   1.167  0.0261  0.3002 -0.2029
    2TTP     C211949   4.277   1.460   1.284 -0.0013  0.1469 -0.2718
    2TTP     C311950   4.365   1.481   1.395 -0.0023 -0.0523 -0.2325
    2TTP     C411951   4.520   1.518   1.593 -0.0045 -0.4077 -0.1637
    2TTP    C1711952   4.574   1.561   1.475  0.0229 -0.2545 -0.0950
    2TTP    C1811953   4.487   1.540   1.365  0.0238 -0.0552 -0.1342
    2TTP    C3211954   4.141   1.390   1.303 -0.3080 -0.4036  0.1159
    2TTP    C3311955   4.158   1.245   1.333 -0.0880 -0.0504 -1.0414
    2TTP    C3411956   4.014   1.186   1.352  0.1166  0.0984 -0.2237
    2TTP    C3511957   3.948   1.176   1.210 -0.2701 -0.6468 -0.1347
    2TTP    C3611958   3.801   1.136   1.211  0.5916  0.3651  0.0809
    2TTP    C3711959   3.702   1.215   1.301  0.0728  0.1057 -0.1328
    2TTP    C3811960   3.562   1.147   1.316 -0.2799 -0.2428  0.2595
    2TTP    C3911961   3.470   1.195   1.432 -0.3984  0.4857  0.0434
    2TTP    C4011962   3.511   1.169   1.573  0.4476  0.2158  0.6494
    2TTP    C4111963   3.430   1.211   1.694 -0.2173  0.0608  0.2213
    2TTP    C4211964   3.272   1.215   1.690 -0.1032 -0.3541 -0.0041
    3TTP     S111965   5.005   1.755   2.076  0.1368 -0.1140  0.0374
    3TTP     S511966   5.206   1.986   1.774 -0.4179  0.2484 -0.0578
    3TTP     C111967   5.256   2.048   1.938 -0.3574  0.2576 -0.0799
    3TTP     C211968   5.197   1.980   2.040 -0.1825  0.1462 -0.0518
    3TTP     C311969   5.110   1.877   1.994 -0.0900  0.0496 -0.0118
    3TTP     C411970   4.954   1.693   1.913  0.0762 -0.1232  0.0596
    3TTP    C1711971   5.014   1.761   1.810 -0.0986 -0.0118  0.0314
    3TTP    C1811972   5.101   1.864   1.856 -0.1912  0.0848 -0.0086
    3TTP    C3211973   5.222   2.009   2.186  0.3287  0.2470 -1.0127
    3TTP    C3311974   5.274   1.908   2.285 -0.0572 -0.0155 -0.5708
    3TTP    C3411975   5.269   1.964   2.426 -0.0858  0.2728  0.6484
    3TTP    C3511976   5.334   1.875   2.534  0.6061 -0.4714 -0.4228
    3TTP    C3611977   5.337   1.953   2.660  0.2842  0.0219 -0.6005
    3TTP    C3711978   5.416   1.886   2.762  0.2101 -0.4746 -0.5742
    3TTP    C3811979   5.421   1.967   2.893 -0.3024 -0.2896  0.8579
    3TTP    C3911980   5.470   1.906   3.025  0.3627 -0.0955 -0.5466
    3TTP    C4011981   5.414   1.770   3.063 -0.0961  0.4219 -0.4034
    3TTP    C4111982   5.278   1.757   3.123  0.9694  0.4001  0.0811
    3TTP    C4211983   5.218   1.616   3.129  0.1642 -0.0938 -0.0035
    4BIM     F111984   4.525   1.647   0.378 -0.3655  0.1400 -0.0308
    4BIM     F211985   4.260   1.637   0.318 -0.3738 -0.1711  0.0527
    4BIM     O111986   4.514   1.540   0.908 -0.0772  0.1730 -0.0177
    4BIM     N511987   3.870   1.548   0.610 -0.1805 -0.5946  0.1820
    4BIM     N611988   3.915   1.466   1.036  0.0464 -0.5061  0.1754
    4BIM    C1911989   4.256   1.493   1.040  0.0170 -0.1123  0.0666
    4BIM    C2011990   4.270   1.521   0.908 -0.0553 -0.1085  0.0601
    4BIM    C2111991   4.405   1.543   0.848 -0.1000  0.0428  0.0158
    4BIM    C2211992   4.384   1.570   0.705 -0.1757  0.0054  0.0201
    4BIM    C2311993   4.480   1.597   0.608 -0.2367  0.1079 -0.0123
    4BIM    C2411994   4.435   1.619   0.478 -0.3027  0.0452 -0.0004
    4BIM    C2511995   4.299   1.614   0.448 -0.3070 -0.1151  0.0426
    4BIM    C2611996   4.202   1.587   0.544 -0.2462 -0.2180  0.0751
    4BIM    C2711997   4.245   1.565   0.676 -0.1789 -0.1568  0.0637
    4BIM    C2811998   4.170   1.534   0.799 -0.1049 -0.2331  0.0900
    4BIM    C2911999   4.033   1.521   0.811 -0.0864 -0.3894  0.1337
    4BIM    C3012000   3.944   1.536   0.700 -0.1382 -0.5017  0.1601
    4BIM    C3112001   3.969   1.491   0.935 -0.0135 -0.4527  0.1564
    5BIM     F112002   5.638   2.581   1.445  0.0712 -0.2124 -0.0291
    5BIM     F212003   5.817   2.627   1.645 -0.1893  0.2298  0.1055
    5BIM     O112004   5.306   2.228   1.685  0.2935 -0.4030 -0.0008
    5BIM     N512005   5.838   2.442   2.103 -0.4052  0.7297  0.3192
    5BIM     N612006   5.542   2.156   2.250 -0.1791  0.4916  0.3142
    5BIM    C1912007   5.359   2.146   1.961  0.1236 -0.0483  0.1378
    5BIM    C2012008   5.435   2.233   1.893  0.0777 -0.0176  0.1255
    5BIM    C2112009   5.402   2.270   1.751  0.1714 -0.2083  0.0527
    5BIM    C2212010   5.505   2.366   1.708  0.0895 -0.1177  0.0578
    5BIM    C2312011   5.515   2.429   1.584  0.1320 -0.2315  0.0040
    5BIM    C2412012   5.622   2.516   1.565  0.0359 -0.1103  0.0215
    5BIM    C2512013   5.714   2.540   1.668 -0.0980  0.1175  0.0910
    5BIM    C2612014   5.704   2.478   1.792 -0.1414  0.2320  0.1450
    5BIM    C2712015   5.597   2.389   1.813 -0.0455  0.1122  0.1282
    5BIM    C2812016   5.558   2.308   1.931 -0.0578  0.1828  0.1726
    5BIM    C2912017   5.623   2.304   2.052 -0.1733  0.3936  0.2435
    5BIM    C3012018   5.741   2.379   2.080 -0.3005  0.5777  0.2849
    5BIM    C3112019   5.578   2.223   2.160 -0.1758  0.4463  0.2820
    1BTD     S212020   2.764   5.370   4.175 -0.5546  0.0067 -0.1238
    1BTD     N112021   2.662   5.517   4.191 -0.3642  0.1197  0.0589
    1BTD     N212022   2.916   5.461   4.144 -0.4796 -0.1576 -0.2409
    1BTD     N312023   3.042   5.912   4.111  0.0172 -0.2882 -0.1502
    1BTD     N412024   2.729   5.981   4.169  0.1594  0.0532  0.2192
    1BTD     C512025   2.700   5.759   4.179 -0.0925  0.0808  0.1382
    1BTD     C612026   2.742   5.621   4.174 -0.2599  0.0335  0.0248
    1BTD     C712027   2.884   5.589   4.147 -0.3245 -0.1216 -0.1431
    1BTD     C812028   2.978   5.697   4.127 -0.2186 -0.2217 -0.1889
    1BTD    C1512029   2.932   5.830   4.133 -0.0555 -0.1705 -0.0740
    1BTD    C1612030   2.795   5.861   4.158  0.0068 -0.0211  0.0875
    1BTD    C4312031   2.750   6.102   4.082 -0.3862 -0.6389  0.3985
    1BTD    C4412032   2.713   6.244   4.117  0.4652 -0.0199  0.1577
    1BTD    C4512033   2.684   6.332   3.994 -0.2460  0.4100 -0.1595
    1BTD    C4612034   2.806   6.382   3.921 -0.2023  0.7775  0.1067
    1BTD    C4712035   2.787   6.302   4.237 -0.1406  0.1448  0.2382
    1BTD    C4812036   2.713   6.432   4.278  0.5938 -0.8089 -0.2428
    1BTD    C4912037   2.797   6.522   4.364 -0.3396 -0.1934 -0.1629
    1BTD    C5012038   2.731   6.653   4.406  0.2187 -0.1117 -0.1615
    1BTD    C7512039   3.073   6.050   4.157 -0.3171 -0.4638 -0.6511
    1BTD    C7612040   3.159   6.157   4.080  0.3824 -0.0561  0.1537
    1BTD    C7712041   3.129   6.190   3.932 -0.4201  0.5964 -0.6387
    1BTD    C7812042   3.148   6.081   3.825  0.0080  0.2005 -0.9552
    1BTD    C7912043   3.175   6.280   4.174 -0.3730 -0.0391  0.1301
    1BTD    C8012044   3.252   6.409   4.141  0.0844  0.1658 -0.0267
    1BTD    C8112045   3.390   6.399   4.083 -0.7867  0.0121 -0.3161
    1BTD    C8212046   3.442   6.539   4.066 -0.2692  0.1471  0.8003
    2TTP     S112047   2.422   5.759   4.276  0.0316  0.0724  0.1925
    2TTP     S512048   2.445   6.187   4.315 -0.3276  0.0927  0.1818
    2TTP     C112049   2.290   6.130   4.393 -0.2588 -0.0397  0.2215
    2TTP     C212050   2.274   5.994   4.385 -0.1437 -0.0538  0.2271
    2TTP     C312051   2.383   5.931   4.318 -0.1059  0.0397  0.2003
    2TTP     C412052   2.577   5.817   4.198 -0.0373  0.2050  0.1528
    2TTP    C1712053   2.593   5.952   4.206 -0.1524  0.2192  0.1472
    2TTP    C1812054   2.484   6.016   4.273 -0.1901  0.1258  0.1742
    2TTP    C3212055   2.151   5.904   4.414 -0.2094 -0.0264  0.3486
    2TTP    C3312056   2.083   5.835   4.303 -0.2057 -0.1674 -0.4751
    2TTP    C3412057   1.937   5.801   4.315  0.7305  0.5331 -0.1242
    2TTP    C3512058   1.840   5.920   4.304  0.0085  0.0806  0.2848
    2TTP    C3612059   1.697   5.877   4.335  0.0078 -0.3197 -0.3456
    2TTP    C3712060   1.609   6.001   4.309 -0.3097  0.6029  0.0098
    2TTP    C3812061   1.458   5.978   4.310 -0.4573  0.1265  0.8460
    2TTP    C3912062   1.383   6.076   4.226 -0.3079 -0.0531 -0.1088
    2TTP    C4012063   1.229   6.062   4.236 -0.8237 -0.3630 -0.1631
    2TTP    C4112064   1.145   6.143   4.140  0.1836 -0.4299  0.9572
    2TTP    C4212065   0.996   6.133   4.156 -0.2147  0.0664  0.0343
    3TTP     S112066   3.252   5.584   4.131  0.2779  0.1745  0.0049
    3TTP     S512067   3.416   5.982   4.136 -0.2676  0.4052 -0.2409
    3TTP     C112068   3.551   5.863   4.161 -0.0959  0.6037 -0.2196
    3TTP     C212069   3.509   5.733   4.161  0.0826  0.5443 -0.1427
    3TTP     C312070   3.368   5.723   4.141  0.0903  0.3395 -0.0973
    3TTP     C412071   3.117   5.703   4.106  0.1062 -0.0241 -0.0163
    3TTP    C1712072   3.159   5.833   4.106 -0.0723  0.0354 -0.0934
    3TTP    C1812073   3.301   5.843   4.126 -0.0800  0.2400 -0.1386
    3TTP    C3212074   3.582   5.601   4.182  0.2576 -0.0421 -0.1573
    3TTP    C3312075   3.648   5.522   4.066 -0.0970  0.1286  0.4427
    3TTP    C3412076   3.763   5.426   4.108 -0.1815 -0.9234 -0.7414
    3TTP    C3512077   3.750   5.310   4.206  0.4888  0.0069 -0.0418
    3TTP    C3612078   3.883   5.233   4.230  0.5731 -0.5988  0.5962
    3TTP    C3712079   3.925   5.133   4.120 -0.1431 -0.2318 -0.0135
    3TTP    C3812080   3.841   5.005   4.103  0.1566  0.1569 -0.0306
    3TTP    C3912081   3.815   4.914   4.222  0.6630 -0.4598 -0.7214
    3TTP    C4012082   3.723   4.785   4.207  0.5419 -0.4978 -0.5470
    3TTP    C4112083   3.574   4.804   4.160  0.4669 -0.8582 -0.2178
    3TTP    C4212084   3.505   4.676   4.117  0.2058 -0.5118  0.0291
    4BIM     F112085   2.185   6.935   4.541 -0.0090  0.0362  0.1367
    4BIM     F212086   1.954   6.874   4.671  0.0097 -0.0290  0.1394
    4BIM     O112087   2.355   6.443   4.395 -0.0055  0.1056 -0.0937
    4BIM     N512088   1.743   6.434   4.754  0.0391 -0.0737 -0.0212
    4BIM     N612089   1.922   6.061   4.613  0.0381 -0.0063 -0.2018
    4BIM    C1912090   2.194   6.209   4.468  0.0136  0.0677 -0.1731
    4BIM    C2012091   2.161   6.335   4.499  0.0120  0.0528 -0.1153
    4BIM    C2112092   2.248   6.450   4.459  0.0020  0.0741 -0.0772
    4BIM    C2212093   2.183   6.572   4.509  0.0028  0.0498 -0.0172
    4BIM    C2312094   2.226   6.704   4.495 -0.0046  0.0576  0.0333
    4BIM    C2412095   2.147   6.803   4.551 -0.0021  0.0306  0.0851
    4BIM    C2512096   2.028   6.771   4.618  0.0077 -0.0032  0.0865
    4BIM    C2612097   1.984   6.640   4.632  0.0150 -0.0110  0.0364
    4BIM    C2712098   2.063   6.538   4.576  0.0126  0.0162 -0.0168
    4BIM    C2812099   2.045   6.391   4.573  0.0187  0.0166 -0.0769
    4BIM    C2912100   1.940   6.320   4.627  0.0284 -0.0112 -0.0939
    4BIM    C3012101   1.832   6.383   4.697  0.0343 -0.0454 -0.0539
    4BIM    C3112102   1.931   6.178   4.619  0.0337 -0.0085 -0.1532
    5BIM     F112103   4.029   6.532   4.107  0.0085  0.1221 -0.0068
    5BIM     F212104   4.223   6.396   4.240 -0.0777  0.2344  0.2359
    5BIM     O112105   3.644   6.153   4.070  0.1178  0.0235 -0.1295
    5BIM     N512106   4.229   5.929   4.404 -0.1236  0.3256  0.4976
    5BIM     N612107   3.889   5.660   4.348 -0.0209  0.2259  0.3529
    5BIM    C1912108   3.694   5.887   4.183  0.0743  0.0957  0.0590
    5BIM    C2012109   3.783   5.988   4.188  0.0502  0.1161  0.0803
    5BIM    C2112110   3.750   6.122   4.127  0.0750  0.0763 -0.0212
    5BIM    C2212111   3.868   6.208   4.149  0.0386  0.1123  0.0330
    5BIM    C2312112   3.885   6.340   4.111  0.0448  0.0947 -0.0254
    5BIM    C2412113   4.005   6.401   4.143  0.0051  0.1367  0.0449
    5BIM    C2512114   4.105   6.331   4.211 -0.0394  0.1944  0.1702
    5BIM    C2612115   4.089   6.198   4.250 -0.0458  0.2123  0.2291
    5BIM    C2712116   3.968   6.135   4.218 -0.0058  0.1705  0.1591
    5BIM    C2812117   3.919   5.997   4.245 -0.0006  0.1750  0.1932
    5BIM    C2912118   3.988   5.897   4.309 -0.0359  0.2246  0.3076
    5BIM    C3012119   4.120   5.915   4.361 -0.0840  0.2799  0.4115
    5BIM    C3112120   3.933   5.767   4.330 -0.0274  0.2249  0.3319
    1BTD     S212121   3.317   4.927   1.241 -0.0070  0.1724  0.0649
    1BTD     N112122   3.164   4.835   1.218  0.2611 -0.1184 -0.5833
    1BTD     N212123   3.266   5.066   1.139 -0.1804  0.4826  0.5666
    1BTD     N312124   2.887   5.184   0.889 -0.0494  0.5897  0.4183
    1BTD     N412125   2.761   4.899   0.985  0.4945 -0.1509 -0.9986
    1BTD     C512126   2.956   4.872   1.095  0.3765 -0.1264 -0.7831
    1BTD     C612127   3.087   4.909   1.139  0.2103  0.0235 -0.4019
    1BTD     C712128   3.144   5.038   1.095 -0.0369  0.3598  0.2418
    1BTD     C812129   3.067   5.124   1.010 -0.1055  0.5296  0.4721
    1BTD    C1512130   2.938   5.084   0.969  0.0632  0.3733  0.0822
    1BTD    C1612131   2.883   4.959   1.011  0.3013  0.0492 -0.5380
    1BTD    C4312132   2.633   4.979   0.970  0.1426  0.0405 -0.1098
    1BTD    C4412133   2.510   4.923   0.891 -0.8067 -0.2307  0.1438
    1BTD    C4512134   2.385   5.010   0.907 -0.4771 -0.1712 -0.2721
    1BTD    C4612135   2.339   5.043   1.051 -0.4623 -0.1407 -0.1579
    1BTD    C4712136   2.559   4.879   0.749  0.3851  0.0466  0.1183
    1BTD    C4812137   2.461   4.835   0.639  0.0332 -0.0990  0.2395
    1BTD    C4912138   2.373   4.714   0.670 -0.0831 -0.1394 -0.2044
    1BTD    C5012139   2.305   4.662   0.544  0.0688 -0.4724  0.0924
    1BTD    C7512140   2.797   5.163   0.770 -0.0096 -0.4186 -0.3347
    1BTD    C7612141   2.710   5.265   0.692  0.4473  0.2406 -0.0989
    1BTD    C7712142   2.644   5.207   0.564 -0.3240 -0.6473 -0.4628
    1BTD    C7812143   2.726   5.149   0.450 -0.3015 -0.4633 -0.1787
    1BTD    C7912144   2.611   5.337   0.793  0.1383  0.3941 -0.0427
    1BTD    C8012145   2.523   5.457   0.752 -0.0816  0.2331 -0.1256
    1BTD    C8112146   2.437   5.513   0.865  0.2858  0.4633 -0.3031
    1BTD    C8212147   2.295   5.445   0.884 -0.1748  0.6997 -0.3242
    2TTP     S112148   2.889   4.593   1.195  0.1101 -0.0763  0.2711
    2TTP     S512149   2.506   4.619   1.001  0.0967 -0.2922  0.2677
    2TTP     C112150   2.517   4.459   1.088  0.2344 -0.3394  0.1648
    2TTP     C212151   2.636   4.442   1.153  0.2466 -0.2755  0.1598
    2TTP     C312152   2.723   4.554   1.136  0.1477 -0.1870  0.2370
    2TTP     C412153   2.879   4.753   1.109 -0.0277 -0.0291  0.3740
    2TTP    C1712154   2.760   4.770   1.044 -0.0399 -0.0931  0.3790
    2TTP    C1812155   2.673   4.658   1.060  0.0591 -0.1814  0.3018
    2TTP    C3212156   2.678   4.322   1.240 -0.3284  0.1637 -0.3910
    2TTP    C3312157   2.782   4.231   1.172 -0.3463 -0.2761  0.7883
    2TTP    C3412158   2.745   4.165   1.038 -0.2287 -0.1164  0.3012
    2TTP    C3512159   2.660   4.039   1.048  0.0715  0.2818 -0.0287
    2TTP    C3612160   2.697   3.925   1.146  0.2926  0.1199 -0.4329
    2TTP    C3712161   2.596   3.811   1.153  0.5981 -0.1289 -0.6970
    2TTP    C3812162   2.641   3.687   1.216  0.5345  0.3995 -0.8763
    2TTP    C3912163   2.656   3.694   1.372 -0.3677 -0.5920  0.8437
    2TTP    C4012164   2.553   3.758   1.458  0.3240  0.1757 -0.2321
    2TTP    C4112165   2.425   3.669   1.468 -0.7409  0.1196  0.2521
    2TTP    C4212166   2.317   3.756   1.528  0.2046 -0.9850 -0.1021
    3TTP     S112167   3.214   5.381   0.970 -0.2131 -0.1637 -0.1206
    3TTP     S512168   2.875   5.543   0.761 -0.0679  0.1887 -0.0842
    3TTP     C112169   3.002   5.672   0.774 -0.0587  0.1533  0.1820
    3TTP     C212170   3.114   5.630   0.840 -0.1030  0.0426  0.1865
    3TTP     C312171   3.104   5.494   0.882 -0.1458 -0.0186 -0.0202
    3TTP     C412172   3.086   5.251   0.957 -0.2223 -0.1284 -0.3868
    3TTP    C1712173   2.974   5.294   0.892 -0.1780 -0.0176 -0.3913
    3TTP    C1812174   2.985   5.430   0.850 -0.1352  0.0435 -0.1846
    3TTP    C3212175   3.234   5.710   0.879 -0.0201 -0.7312 -0.5191
    3TTP    C3312176   3.374   5.652   0.850  0.0782 -0.1922  0.1716
    3TTP    C3412177   3.484   5.752   0.843  0.0365 -0.3850 -0.0564
    3TTP    C3512178   3.612   5.681   0.794 -0.7739 -0.0045  0.2908
    3TTP    C3612179   3.749   5.754   0.814  0.4411  0.5167  0.2839
    3TTP    C3712180   3.872   5.676   0.770 -0.4775 -0.3351  0.0948
    3TTP    C3812181   4.004   5.747   0.806 -0.6091 -0.3103  0.4244
    3TTP    C3912182   4.143   5.687   0.777 -0.7679 -0.0284  0.5940
    3TTP    C4012183   4.174   5.542   0.805  0.1692 -0.0439  0.3164
    3TTP    C4112184   4.183   5.498   0.947  0.9372 -0.1145 -0.1397
    3TTP    C4212185   4.310   5.552   1.022 -0.2534  0.5779 -0.0810
    4BIM     F112186   1.759   4.380   0.777 -0.1867  0.1323  0.3005
    4BIM     F212187   1.714   4.180   0.956  0.2313 -0.4489 -0.2357
    4BIM     O112188   2.273   4.506   0.891 -0.3374  0.6632  0.3974
    4BIM     N512189   2.017   3.982   1.295  0.7247 -0.9061 -0.9377
    4BIM     N612190   2.427   4.121   1.347  0.5227 -0.3742 -0.7540
    4BIM    C1912191   2.413   4.360   1.102  0.0084  0.2963 -0.0807
    4BIM    C2012192   2.285   4.336   1.067  0.0299  0.1855 -0.0840
    4BIM    C2112193   2.220   4.415   0.957 -0.1553  0.3884  0.1701
    4BIM    C2212194   2.083   4.364   0.944 -0.0774  0.1965  0.0952
    4BIM    C2312195   1.984   4.407   0.856 -0.1914  0.2838  0.2631
    4BIM    C2412196   1.861   4.343   0.862 -0.0835  0.0618  0.1462
    4BIM    C2512197   1.838   4.240   0.954  0.1318 -0.2373 -0.1301
    4BIM    C2612198   1.936   4.197   1.043  0.2467 -0.3260 -0.2988
    4BIM    C2712199   2.061   4.260   1.038  0.1400 -0.1044 -0.1841
    4BIM    C2812200   2.185   4.239   1.117  0.2146 -0.1231 -0.3053
    4BIM    C2912201   2.203   4.147   1.218  0.4162 -0.3780 -0.5716
    4BIM    C3012202   2.101   4.057   1.260  0.5851 -0.6675 -0.7720
    4BIM    C3112203   2.326   4.133   1.288  0.4736 -0.3743 -0.6704
    5BIM     F112204   2.455   6.110   0.348  0.0406  0.2779  0.0813
    5BIM     F212205   2.652   6.289   0.289  0.2495 -0.0747 -0.3031
    5BIM     O112206   2.727   5.756   0.654 -0.1941  0.2244  0.2282
    5BIM     N512207   3.128   6.293   0.423  0.3825 -0.6195 -0.7510
    5BIM     N612208   3.301   5.980   0.674  0.1570 -0.5902 -0.5587
    5BIM    C1912209   3.011   5.801   0.707 -0.0779 -0.1315 -0.0868
    5BIM    C2012210   2.935   5.883   0.632 -0.0271 -0.1042 -0.1088
    5BIM    C2112211   2.789   5.853   0.609 -0.0924  0.0829  0.0602
    5BIM    C2212212   2.737   5.961   0.524 -0.0121  0.0641 -0.0136
    5BIM    C2312213   2.607   5.977   0.477 -0.0337  0.2004  0.0894
    5BIM    C2412214   2.581   6.088   0.398  0.0559  0.1500 -0.0117
    5BIM    C2512215   2.683   6.180   0.368  0.1636 -0.0320 -0.2097
    5BIM    C2612216   2.813   6.165   0.415  0.1856 -0.1687 -0.3135
    5BIM    C2712217   2.841   6.053   0.495  0.0960 -0.1200 -0.2136
    5BIM    C2812218   2.966   6.008   0.560  0.0910 -0.2306 -0.2799
    5BIM    C2912219   3.089   6.072   0.554  0.1791 -0.4148 -0.4647
    5BIM    C3012220   3.110   6.193   0.482  0.2906 -0.5268 -0.6215
    5BIM    C3112221   3.205   6.021   0.620  0.1665 -0.5102 -0.5153
    1BTD     S212222   5.320   0.024   6.601  0.3149  0.0326  0.0257
    1BTD     N112223   5.195  -0.092   6.542  0.2490  0.1581 -0.0825
    1BTD     N212224   5.432  -0.104   6.659  0.1211 -0.0794  0.1537
    1BTD     N312225   5.435  -0.574   6.673 -0.3928 -0.0813  0.2193
    1BTD     N412226   5.143  -0.558   6.529 -0.2353  0.2110 -0.0715
    1BTD     C512227   5.171  -0.336   6.537 -0.0057  0.1822 -0.0733
    1BTD     C612228   5.241  -0.214   6.568  0.0939  0.1121 -0.0206
    1BTD     C712229   5.373  -0.221   6.633  0.0224 -0.0207  0.1115
    1BTD     C812230   5.430  -0.349   6.665 -0.1453 -0.0770  0.1844
    1BTD    C1512231   5.358  -0.466   6.633 -0.2384 -0.0052  0.1290
    1BTD    C1612232   5.230  -0.459   6.570 -0.1694  0.1231  0.0019
    1BTD    C4312233   5.130  -0.699   6.579 -0.4436 -0.2153  0.3079
    1BTD    C4412234   5.026  -0.723   6.689  0.2076 -0.1562  0.1069
    1BTD    C4512235   5.045  -0.629   6.812  0.2414 -0.0926 -0.3025
    1BTD    C4612236   4.927  -0.629   6.910 -0.1674  0.4502  0.1465
    1BTD    C4712237   4.980  -0.871   6.713  0.0288  0.0236 -0.3769
    1BTD    C4812238   5.086  -0.969   6.763 -0.2770  0.4814 -0.4841
    1BTD    C4912239   5.009  -1.094   6.814  0.4574  0.0313 -0.1452
    1BTD    C5012240   5.097  -1.198   6.889 -0.4824  0.1754 -0.0056
    1BTD    C7512241   5.445  -0.699   6.598  0.4221  0.0774  0.0209
    1BTD    C7612242   5.531  -0.827   6.629 -0.1505  0.1277  0.1181
    1BTD    C7712243   5.595  -0.908   6.516 -0.0369  0.1706 -0.3508
    1BTD    C7812244   5.493  -0.976   6.425  0.0919 -0.1606  0.4234
    1BTD    C7912245   5.465  -0.907   6.745  0.4484  0.2770 -0.1370
    1BTD    C8012246   5.541  -1.025   6.793 -0.4733 -0.1035 -0.0407
    1BTD    C8112247   5.477  -1.091   6.913  0.3287  0.7126 -0.1976
    1BTD    C8212248   5.572  -1.179   6.992 -0.1025  0.6602 -0.0849
    2TTP     S112249   4.912  -0.270   6.401 -0.0140  0.1624 -0.3763
    2TTP     S512250   4.823  -0.689   6.365  0.0360  0.1035  0.1754
    2TTP     C112251   4.687  -0.594   6.289  0.0162 -0.0120  0.0654
    2TTP     C212252   4.707  -0.459   6.296 -0.0002 -0.0007 -0.1113
    2TTP     C312253   4.830  -0.426   6.361  0.0020  0.0994 -0.1665
    2TTP     C412254   5.048  -0.365   6.477  0.0056  0.2780 -0.2664
    2TTP    C1712255   5.028  -0.500   6.470  0.0223  0.2664 -0.0897
    2TTP    C1812256   4.905  -0.533   6.405  0.0199  0.1662 -0.0346
    2TTP    C3212257   4.608  -0.352   6.245  0.2578 -0.0159  0.3275
    2TTP    C3312258   4.657  -0.244   6.144 -0.4896 -0.0107 -0.2135
    2TTP    C3412259   4.723  -0.289   6.014  0.2443 -0.0364 -0.1737
    2TTP    C3512260   4.628  -0.361   5.922 -0.1298  0.2255  0.4242
    2TTP    C3612261   4.708  -0.419   5.801 -0.0592 -0.2965  0.2976
    2TTP    C3712262   4.660  -0.526   5.706  0.0646  0.1149  0.9578
    2TTP    C3812263   4.619  -0.660   5.761  0.1188 -0.1266  0.5046
    2TTP    C3912264   4.563  -0.746   5.646  0.3689 -0.0935 -0.2061
    2TTP    C4012265   4.540  -0.893   5.692  0.1471  0.1773  0.1160
    2TTP    C4112266   4.455  -0.984   5.601  0.2505 -0.3343 -0.4701
    2TTP    C4212267   4.429  -1.129   5.650 -0.3412 -0.0019 -0.3264
    3TTP     S112268   5.662  -0.309   6.850  0.1679  0.0533 -0.2525
    3TTP     S512269   5.673  -0.732   6.924 -0.2406  0.1323  0.2705
    3TTP     C112270   5.787  -0.650   7.040 -0.3397  0.1874  0.3289
    3TTP     C212271   5.790  -0.515   7.024 -0.2193  0.1667  0.1708
    3TTP     C312272   5.703  -0.471   6.919 -0.0446  0.1059 -0.0020
    3TTP     C412273   5.548  -0.391   6.734  0.2669 -0.0019 -0.3110
    3TTP    C1712274   5.545  -0.527   6.750  0.1465  0.0193 -0.1527
    3TTP    C1812275   5.632  -0.571   6.854 -0.0281  0.0796  0.0201
    3TTP    C3212276   5.860  -0.412   7.109 -0.2797 -0.1368  0.0558
    3TTP    C3312277   5.963  -0.331   7.034 -0.4151  0.7160  0.3996
    3TTP    C3412278   6.035  -0.246   7.131  0.1524  0.0996  0.0470
    3TTP    C3512279   6.107  -0.130   7.062 -0.0963 -0.0634 -0.0392
    3TTP    C3612280   6.153  -0.024   7.165 -0.4582 -0.5107 -0.0440
    3TTP    C3712281   6.230   0.097   7.102  0.4777 -0.3661 -0.2862
    3TTP    C3812282   6.144   0.200   7.022 -0.1721  0.1576  0.3892
    3TTP    C3912283   6.223   0.324   6.989  0.1492  0.2479 -0.5785
    3TTP    C4012284   6.140   0.431   6.916 -0.4933 -0.1478 -0.3464
    3TTP    C4112285   6.112   0.387   6.774  0.2865 -0.6484 -0.1358
    3TTP    C4212286   6.018   0.483   6.699  0.0434 -0.3620  0.5194
    4BIM     F112287   4.528  -1.332   5.963  0.1924  0.2167 -0.4141
    4BIM     F212288   4.263  -1.274   5.980  0.1451 -0.1404  0.1564
    4BIM     O112289   4.746  -0.870   6.142 -0.0557  0.3643 -0.4921
    4BIM     N512290   4.037  -0.860   6.130 -0.1000 -0.5491  0.9209
    4BIM     N612291   4.261  -0.511   6.266 -0.2843 -0.3614  0.7449
    4BIM    C1912292   4.570  -0.650   6.221 -0.1891  0.0754  0.0251
    4BIM    C2012293   4.526  -0.769   6.175 -0.1248  0.0525  0.0224
    4BIM    C2112294   4.622  -0.877   6.137 -0.0587  0.2072 -0.2521
    4BIM    C2212295   4.541  -0.992   6.092  0.0015  0.1361 -0.1789
    4BIM    C2312296   4.586  -1.115   6.046  0.0734  0.2294 -0.3631
    4BIM    C2412297   4.490  -1.208   6.009  0.1204  0.1328 -0.2443
    4BIM    C2512298   4.354  -1.178   6.018  0.0961 -0.0512  0.0497
    4BIM    C2612299   4.308  -1.055   6.063  0.0242 -0.1452  0.2346
    4BIM    C2712300   4.404  -0.959   6.101 -0.0242 -0.0498  0.1184
    4BIM    C2812301   4.389  -0.821   6.153 -0.1029 -0.1082  0.2538
    4BIM    C2912302   4.270  -0.754   6.175 -0.1467 -0.2792  0.5392
    4BIM    C3012303   4.142  -0.813   6.150 -0.1208 -0.4270  0.7480
    4BIM    C3112304   4.266  -0.621   6.225 -0.2220 -0.3235  0.6506
    5BIM     F112305   5.967  -1.403   7.334  0.2711 -0.0010 -0.1884
    5BIM     F212306   6.206  -1.304   7.419  0.0936  0.1414  0.1510
    5BIM     O112307   5.743  -0.958   7.122  0.2767 -0.1178 -0.4389
    5BIM     N512308   6.390  -0.845   7.389 -0.1574  0.2635  0.4607
    5BIM     N612309   6.166  -0.518   7.205 -0.1172  0.1433  0.1966
    5BIM    C1912310   5.891  -0.706   7.127  0.1091 -0.0232 -0.2035
    5BIM    C2012311   5.938  -0.822   7.177  0.1148  0.0007 -0.1539
    5BIM    C2112312   5.856  -0.947   7.171  0.2033 -0.0513 -0.2825
    5BIM    C2212313   5.937  -1.054   7.234  0.1855 -0.0079 -0.1861
    5BIM    C2312314   5.902  -1.187   7.251  0.2468 -0.0322 -0.2501
    5BIM    C2412315   5.995  -1.269   7.314  0.2139  0.0192 -0.1337
    5BIM    C2512316   6.118  -1.218   7.357  0.1227  0.0929  0.0411
    5BIM    C2612317   6.153  -1.085   7.340  0.0610  0.1175  0.1061
    5BIM    C2712318   6.060  -1.000   7.277  0.0927  0.0663 -0.0098
    5BIM    C2812319   6.066  -0.856   7.244  0.0457  0.0741  0.0169
    5BIM    C2912320   6.171  -0.770   7.270 -0.0445  0.1380  0.1706
    5BIM    C3012321   6.291  -0.812   7.335 -0.1063  0.2067  0.3296
    5BIM    C3112322   6.168  -0.632   7.234 -0.0839  0.1404  0.1838
    1BTD     S212323   8.958   2.504   0.719 -0.0203 -0.0030 -0.3061
    1BTD     N112324   8.864   2.381   0.627  0.0076 -0.1041 -0.2011
    1BTD     N212325   9.050   2.382   0.815  0.0570  0.0992 -0.2502
    1BTD     N312326   9.066   1.914   0.845  0.2656  0.1251  0.0532
    1BTD     N412327   8.837   1.913   0.613  0.2055 -0.1254  0.1136
    1BTD     C512328   8.853   2.137   0.623  0.1118 -0.1122 -0.0375
    1BTD     C612329   8.903   2.262   0.671  0.0701 -0.0588 -0.1334
    1BTD     C712330   9.007   2.263   0.776  0.0978  0.0551 -0.1608
    1BTD     C812331   9.055   2.138   0.828  0.1652  0.1097 -0.0911
    1BTD    C1512332   9.003   2.017   0.778  0.2040  0.0542  0.0019
    1BTD    C1612333   8.903   2.017   0.677  0.1774 -0.0555  0.0284
    1BTD    C4312334   8.891   1.775   0.588  0.2411 -0.2690 -0.3938
    1BTD    C4412335   8.794   1.652   0.594  0.1615  0.2084 -0.4998
    1BTD    C4512336   8.877   1.526   0.568 -0.1619 -0.0792 -0.0994
    1BTD    C4612337   8.793   1.393   0.569  0.3405 -0.3237 -0.6908
    1BTD    C4712338   8.694   1.650   0.716  0.3429  0.4983 -0.4935
    1BTD    C4812339   8.606   1.764   0.752  0.0150  0.3111 -0.2472
    1BTD    C4912340   8.549   1.761   0.894  0.4476 -0.7948 -0.3106
    1BTD    C5012341   8.464   1.883   0.927 -0.4611 -0.2506  0.6655
    1BTD    C7512342   9.002   1.786   0.886 -0.4904 -0.7200 -0.7154
    1BTD    C7612343   9.083   1.655   0.896 -0.7809  0.0697 -1.1011
    1BTD    C7712344   8.994   1.535   0.942  0.6108  0.2775  0.4644
    1BTD    C7812345   8.914   1.544   1.069  0.0457  0.3347 -0.2878
    1BTD    C7912346   9.168   1.632   0.772 -0.0832  0.7922  0.4247
    1BTD    C8012347   9.256   1.498   0.769  0.3182 -0.3769 -0.2373
    1BTD    C8112348   9.385   1.499   0.847  0.0911  0.2471 -0.5437
    1BTD    C8212349   9.481   1.605   0.801  0.2549  0.2012 -0.3500
    2TTP     S112350   8.633   2.180   0.408  0.0102 -0.1504  0.1581
    2TTP     S512351   8.589   1.754   0.376  0.3688 -0.1723 -0.0583
    2TTP     C112352   8.468   1.833   0.266  0.3335 -0.2190 -0.0527
    2TTP     C212353   8.474   1.970   0.269  0.2203 -0.2150  0.0144
    2TTP     C312354   8.575   2.016   0.359  0.1581 -0.1749  0.0639
    2TTP     C412355   8.754   2.101   0.518  0.0460 -0.1037  0.1524
    2TTP    C1712356   8.748   1.965   0.514  0.1589 -0.1077  0.0853
    2TTP    C1812357   8.647   1.918   0.425  0.2213 -0.1478  0.0358
    2TTP    C3212358   8.388   2.060   0.183 -0.5872 -0.5881 -0.1418
    2TTP    C3312359   8.455   2.172   0.115 -0.0253 -0.4828  0.1046
    2TTP    C3412360   8.358   2.267   0.043 -0.5723 -0.4245 -0.1384
    2TTP    C3512361   8.432   2.400   0.013 -0.1120 -0.0556  0.5620
    2TTP    C3612362   8.345   2.495  -0.069  0.4001 -0.5720 -0.9462
    2TTP    C3712363   8.394   2.634  -0.081 -0.4910 -0.6988  0.2069
    2TTP    C3812364   8.512   2.656  -0.179 -0.0877  0.4764  0.9633
    2TTP    C3912365   8.610   2.771  -0.156  0.1173  0.7353  0.9459
    2TTP    C4012366   8.555   2.913  -0.161  0.1021  0.6062  0.3907
    2TTP    C4112367   8.637   3.037  -0.120 -0.6132 -0.7191  0.1362
    2TTP    C4212368   8.730   3.031  -0.004  0.1928 -0.4401  0.8593
    3TTP     S112369   9.280   2.190   1.024  0.0837  0.0135 -0.2251
    3TTP     S512370   9.319   1.766   1.087 -0.1287  0.0544  0.1871
    3TTP     C112371   9.444   1.852   1.188  0.1055  0.0769 -0.1165
    3TTP     C212372   9.439   1.988   1.175  0.1845  0.0656 -0.2617
    3TTP     C312373   9.337   2.029   1.084  0.0634  0.0387 -0.1384
    3TTP     C412374   9.156   2.105   0.922 -0.1504 -0.0090  0.0786
    3TTP    C1712375   9.160   1.969   0.936 -0.2298  0.0023  0.2238
    3TTP    C1812376   9.263   1.927   1.027 -0.1085  0.0291  0.1004
    3TTP    C3212377   9.534   2.082   1.255  0.3870  0.5507  0.4540
    3TTP    C3312378   9.586   2.204   1.185 -0.2525 -0.1896 -0.4519
    3TTP    C3412379   9.675   2.293   1.268 -0.1503  0.0002 -0.9002
    3TTP    C3512380   9.810   2.240   1.310  0.1315  0.7687  0.0369
    3TTP    C3612381   9.843   2.284   1.456  0.6016  0.4292  0.1414
    3TTP    C3712382   9.974   2.241   1.511 -0.8766  0.0993  0.5625
    3TTP    C3812383  10.002   2.304   1.647  0.2052 -0.5771  0.5320
    3TTP    C3912384  10.144   2.273   1.691 -0.7258  0.7474  0.2131
    3TTP    C4012385  10.208   2.319   1.824  0.5365  0.6508  0.0768
    3TTP    C4112386  10.353   2.288   1.850  0.9294 -0.4801  0.1184
    3TTP    C4212387  10.452   2.351   1.756  0.1011  0.0254  0.0145
    4BIM     F112388   8.233   1.051   0.159  0.2635  0.0221 -0.0329
    4BIM     F212389   8.055   1.136  -0.029 -0.0772  0.0521  0.3016
    4BIM     O112390   8.457   1.520   0.309  0.4857  0.0059 -0.3132
    4BIM     N512391   7.959   1.594  -0.191 -0.4086  0.0835  0.5832
    4BIM     N612392   8.170   1.943  -0.036 -0.1662  0.0648  0.2966
    4BIM    C1912393   8.367   1.768   0.183  0.2390  0.0288 -0.0930
    4BIM    C2012394   8.317   1.647   0.152  0.1965  0.0317 -0.0356
    4BIM    C2112395   8.369   1.524   0.221  0.3307  0.0193 -0.1567
    4BIM    C2212396   8.294   1.410   0.165  0.2413  0.0263 -0.0529
    4BIM    C2312397   8.307   1.275   0.198  0.3121  0.0194 -0.1087
    4BIM    C2412398   8.225   1.185   0.131  0.2020  0.0283  0.0135
    4BIM    C2512399   8.134   1.230   0.034  0.0264  0.0437  0.1858
    4BIM    C2612400   8.120   1.364   0.001 -0.0453  0.0507  0.2424
    4BIM    C2712401   8.202   1.456   0.068  0.0644  0.0419  0.1206
    4BIM    C2812402   8.213   1.604   0.056  0.0300  0.0458  0.1381
    4BIM    C2912403   8.140   1.685  -0.028 -0.1264  0.0598  0.2868
    4BIM    C3012404   8.041   1.634  -0.117 -0.2809  0.0728  0.4492
    4BIM    C3112405   8.157   1.827  -0.032 -0.1476  0.0625  0.2913
    5BIM     F112406   9.603   1.078   1.433  0.4510  0.0795 -0.6591
    5BIM     F212407   9.733   1.180   1.649 -0.3628 -0.0510 -0.1011
    5BIM     O112408   9.460   1.531   1.174  0.7133  0.2539 -0.4992
    5BIM     N512409   9.817   1.651   1.776 -1.3457 -0.1141  0.8151
    5BIM     N612410   9.679   1.985   1.530 -0.9767  0.0485  0.8276
    5BIM    C1912411   9.533   1.790   1.289  0.0291  0.1912  0.0907
    5BIM    C2012412   9.564   1.672   1.346 -0.0051  0.1525  0.0287
    5BIM    C2112413   9.523   1.543   1.281  0.3607  0.1886 -0.2802
    5BIM    C2212414   9.572   1.435   1.368  0.2172  0.1312 -0.2699
    5BIM    C2312415   9.558   1.298   1.349  0.4463  0.1384 -0.5026
    5BIM    C2412416   9.613   1.214   1.445  0.2431  0.0762 -0.4393
    5BIM    C2512417   9.680   1.267   1.556 -0.1762  0.0091 -0.1517
    5BIM    C2612418   9.694   1.404   1.576 -0.4066  0.0015  0.0815
    5BIM    C2712419   9.639   1.490   1.480 -0.2062  0.0638  0.0218
    5BIM    C2812420   9.637   1.638   1.470 -0.3595  0.0742  0.2167
    5BIM    C2912421   9.691   1.727   1.560 -0.7545  0.0215  0.5145
    5BIM    C3012422   9.760   1.685   1.678 -1.0782 -0.0529  0.6787
    5BIM    C3112423   9.684   1.868   1.543 -0.8744  0.0366  0.6850
    1BTD     S212424   2.392   6.664   2.160  0.1614 -0.0141 -0.1108
    1BTD     N112425   2.246   6.559   2.151  0.0418  0.1305  0.1019
    1BTD     N212426   2.499   6.535   2.226  0.1460 -0.1377 -0.3278
    1BTD     N312427   2.454   6.082   2.342 -0.1009 -0.1287 -0.3858
    1BTD     N412428   2.143   6.111   2.250 -0.2294  0.2019  0.1437
    1BTD     C512429   2.196   6.325   2.204 -0.0982  0.1639  0.1173
    1BTD     C612430   2.283   6.439   2.195 -0.0011  0.0817  0.0052
    1BTD     C712431   2.424   6.426   2.237  0.0573 -0.0684 -0.2353
    1BTD     C812432   2.472   6.299   2.285  0.0156 -0.1290 -0.3517
    1BTD    C1512433   2.383   6.190   2.292 -0.0798 -0.0444 -0.2351
    1BTD    C1612434   2.247   6.203   2.252 -0.1360  0.1002 -0.0033
    1BTD    C4312435   2.161   5.977   2.194 -0.2846  0.1664 -0.5983
    1BTD    C4412436   2.067   5.855   2.220 -0.1811 -0.0857  0.1758
    1BTD    C4512437   2.058   5.832   2.375 -0.6542 -0.1424 -0.0727
    1BTD    C4612438   1.960   5.727   2.420 -0.1953  0.2601  0.0430
    1BTD    C4712439   2.114   5.731   2.136  0.1805  0.5667  0.1634
    1BTD    C4812440   2.252   5.676   2.167 -0.1390 -0.1151  0.5259
    1BTD    C4912441   2.286   5.537   2.121  0.1600 -0.1092 -0.6676
    1BTD    C5012442   2.434   5.492   2.160 -0.0951 -0.2051  0.0949
    1BTD    C7512443   2.424   5.954   2.407  0.2251 -0.9318  0.0520
    1BTD    C7612444   2.417   5.929   2.557 -0.4415 -0.6231 -0.4175
    1BTD    C7712445   2.334   6.037   2.637 -0.0255 -0.0994 -0.3885
    1BTD    C7812446   2.340   6.031   2.792  0.1804  0.3803 -0.8570
    1BTD    C7912447   2.409   5.786   2.618 -0.1494  0.3473 -0.1251
    1BTD    C8012448   2.506   5.683   2.564  0.4081  0.0176 -0.3534
    1BTD    C8112449   2.534   5.572   2.661  0.0312 -0.4572  0.6743
    1BTD    C8212450   2.614   5.451   2.616 -0.4970 -0.4985 -0.1312
    2TTP     S112451   1.915   6.415   2.138 -0.1515  0.0305  0.0672
    2TTP     S512452   1.772   6.033   2.273  0.2028 -0.0997  0.0764
    2TTP     C112453   1.628   6.139   2.236  0.1035 -0.2904 -0.0884
    2TTP     C212454   1.664   6.263   2.192 -0.0117 -0.2615 -0.1010
    2TTP     C312455   1.806   6.279   2.186 -0.0258 -0.0876  0.0193
    2TTP     C412456   2.058   6.310   2.175 -0.0523  0.2215  0.2320
    2TTP    C1712457   2.022   6.185   2.219  0.0631  0.1926  0.2446
    2TTP    C1812458   1.880   6.169   2.225  0.0771  0.0185  0.1246
    2TTP    C3212459   1.571   6.371   2.143  0.0614 -0.1179  0.4721
    2TTP    C3312460   1.541   6.378   1.991 -0.4026 -0.1966  0.6255
    2TTP    C3412461   1.441   6.492   1.967 -0.5136  0.4515  0.4381
    2TTP    C3512462   1.380   6.501   1.829  0.5095 -0.3513  0.1627
    2TTP    C3612463   1.254   6.595   1.829 -0.1624 -0.3666  0.5416
    2TTP    C3712464   1.124   6.527   1.884 -0.7795  0.6996  0.4851
    2TTP    C3812465   1.040   6.421   1.806  0.4369  0.4072  0.0102
    2TTP    C3912466   0.940   6.352   1.902  0.7917 -0.1122 -0.1586
    2TTP    C4012467   0.834   6.253   1.847  0.1166  0.0516  0.0982
    2TTP    C4112468   0.899   6.124   1.786 -0.0805 -0.3660 -0.4687
    2TTP    C4212469   0.795   6.023   1.737 -0.6674  0.2990 -0.9131
    3TTP     S112470   2.774   6.312   2.339 -0.0337  0.0236 -0.4333
    3TTP     S512471   2.770   5.898   2.454  0.1381  0.2514  0.4120
    3TTP     C112472   2.941   5.959   2.463  0.1901  0.2123 -0.1935
    3TTP     C212473   2.952   6.090   2.429  0.1400  0.1394 -0.4902
    3TTP     C312474   2.826   6.148   2.393  0.0589  0.1121 -0.2500
    3TTP     C412475   2.603   6.251   2.330 -0.0857  0.0627  0.1723
    3TTP    C1712476   2.592   6.120   2.365 -0.0356  0.1354  0.4690
    3TTP    C1812477   2.717   6.062   2.400  0.0455  0.1628  0.2288
    3TTP    C3212478   3.074   6.183   2.437 -0.5242 -0.5712  0.0408
    3TTP    C3312479   3.105   6.284   2.322 -0.7591 -0.2904  1.0236
    3TTP    C3412480   3.112   6.223   2.176 -0.1757 -0.2033 -0.2534
    3TTP    C3512481   3.178   6.086   2.158 -0.8247  0.1136  0.5092
    3TTP    C3612482   3.333   6.086   2.162  0.5257  0.0775  0.3000
    3TTP    C3712483   3.401   6.154   2.039 -0.7259 -0.4031  0.2030
    3TTP    C3812484   3.470   6.059   1.941 -0.0921  0.3961  0.2158
    3TTP    C3912485   3.537   6.126   1.821  0.9049 -0.1342 -0.2256
    3TTP    C4012486   3.584   6.036   1.703 -0.5259  0.1197  0.0754
    3TTP    C4112487   3.657   6.091   1.580 -0.6634 -0.3457  0.4028
    3TTP    C4212488   3.784   6.173   1.602  0.5323 -0.5205 -0.0584
    4BIM     F112489   1.192   5.480   2.473 -0.0456 -0.0463 -0.1937
    4BIM     F212490   0.968   5.633   2.462 -0.0134  0.0280  0.1582
    4BIM     O112491   1.568   5.838   2.318 -0.0927 -0.0148 -0.2354
    4BIM     N512492   0.912   6.108   2.335 -0.0008  0.1571  0.6346
    4BIM     N612493   1.251   6.357   2.217 -0.0441  0.1669  0.5311
    4BIM    C1912494   1.487   6.111   2.252 -0.0787  0.0674  0.0860
    4BIM    C2012495   1.401   6.015   2.292 -0.0682  0.0565  0.0828
    4BIM    C2112496   1.450   5.877   2.324 -0.0763  0.0138 -0.0876
    4BIM    C2212497   1.332   5.798   2.363 -0.0611  0.0124 -0.0443
    4BIM    C2312498   1.328   5.664   2.402 -0.0620 -0.0209 -0.1593
    4BIM    C2412499   1.204   5.612   2.434 -0.0457 -0.0147 -0.0875
    4BIM    C2512500   1.088   5.691   2.428 -0.0292  0.0236  0.0939
    4BIM    C2612501   1.092   5.824   2.390 -0.0282  0.0569  0.2095
    4BIM    C2712502   1.216   5.880   2.357 -0.0445  0.0513  0.1392
    4BIM    C2812503   1.254   6.016   2.313 -0.0482  0.0799  0.2245
    4BIM    C2912504   1.169   6.123   2.295 -0.0355  0.1203  0.4010
    4BIM    C3012505   1.028   6.114   2.317 -0.0165  0.1404  0.5288
    4BIM    C3112506   1.215   6.251   2.252 -0.0403  0.1456  0.4715
    5BIM     F112507   3.036   5.186   2.752 -0.1634  0.0370  0.2004
    5BIM     F212508   3.304   5.231   2.764 -0.1082 -0.1594 -0.2427
    5BIM     O112509   2.860   5.663   2.567 -0.0854  0.0552  0.1735
    5BIM     N512510   3.564   5.636   2.650  0.0268 -0.4282 -0.8988
    5BIM     N612511   3.373   6.000   2.503  0.0767 -0.3743 -0.8305
    5BIM    C1912512   3.054   5.876   2.513 -0.0049 -0.1256 -0.2593
    5BIM    C2012513   3.088   5.754   2.559 -0.0266 -0.1225 -0.2352
    5BIM    C2112514   2.982   5.650   2.584 -0.0678 -0.0268 -0.0071
    5BIM    C2212515   3.053   5.530   2.633 -0.0830 -0.0498 -0.0412
    5BIM    C2312516   2.997   5.408   2.670 -0.1199  0.0155  0.1212
    5BIM    C2412517   3.084   5.309   2.714 -0.1276 -0.0234  0.0486
    5BIM    C2512518   3.222   5.333   2.720 -0.0990 -0.1247 -0.1799
    5BIM    C2612519   3.278   5.454   2.683 -0.0622 -0.1900 -0.3428
    5BIM    C2712520   3.192   5.556   2.639 -0.0539 -0.1520 -0.2724
    5BIM    C2812521   3.219   5.694   2.593 -0.0181 -0.2007 -0.4007
    5BIM    C2912522   3.342   5.755   2.585  0.0163 -0.2996 -0.6292
    5BIM    C3012523   3.464   5.689   2.621  0.0219 -0.3700 -0.7766
    5BIM    C3112524   3.358   5.890   2.540  0.0494 -0.3401 -0.7386
    1BTD     S212525   9.444   4.244   6.724  0.0484 -0.0011  0.2664
    1BTD     N112526   9.366   4.094   6.663 -0.0410 -0.0110  0.4041
    1BTD     N212527   9.329   4.354   6.642  0.1614 -0.0055  0.1011
    1BTD     N312528   8.953   4.309   6.364  0.2298 -0.0325  0.0130
    1BTD     N412529   8.999   3.988   6.390 -0.0198 -0.0394  0.3864
    1BTD     C512530   9.174   4.042   6.520 -0.0269 -0.0256  0.3904
    1BTD     C612531   9.264   4.132   6.588  0.0145 -0.0168  0.3239
    1BTD     C712532   9.243   4.278   6.577  0.1283 -0.0138  0.1544
    1BTD     C812533   9.133   4.327   6.497  0.1941 -0.0198  0.0596
    1BTD    C1512534   9.048   4.235   6.432  0.1496 -0.0284  0.1297
    1BTD    C1612535   9.068   4.095   6.444  0.0406 -0.0312  0.2932
    1BTD    C4312536   8.852   3.996   6.355  0.4119  0.4280 -0.3316
    1BTD    C4412537   8.780   3.908   6.254 -0.3968  0.1859  0.0510
    1BTD    C4512538   8.627   3.933   6.244 -0.3794  0.1235  0.6625
    1BTD    C4612539   8.525   3.897   6.361  0.0679  0.6066  0.0313
    1BTD    C4712540   8.856   3.905   6.125  0.1250  0.4538  0.0847
    1BTD    C4812541   8.807   3.815   6.014  0.0634 -0.2006  0.4564
    1BTD    C4912542   8.913   3.784   5.913  0.1576 -0.1071 -0.0622
    1BTD    C5012543   8.867   3.681   5.821 -0.0708 -0.4383  0.5661
    1BTD    C7512544   8.910   4.278   6.224 -0.2866  0.2591 -0.4699
    1BTD    C7612545   8.798   4.352   6.147 -0.3988 -0.2503  0.1124
    1BTD    C7712546   8.819   4.350   5.988  0.7548  0.1021 -0.5173
    1BTD    C7812547   8.790   4.222   5.918  0.2368 -0.0345  0.1892
    1BTD    C7912548   8.661   4.296   6.204  0.5980  0.3239 -0.0035
    1BTD    C8012549   8.535   4.367   6.157  0.3705  0.0866  0.9171
    1BTD    C8112550   8.399   4.304   6.201 -0.2983 -0.0832 -0.1222
    1BTD    C8212551   8.297   4.403   6.155  0.7754  0.2026 -0.1694
    2TTP     S112552   9.274   3.757   6.549  0.2142 -0.2008  0.0158
    2TTP     S512553   8.961   3.620   6.288  0.1523 -0.3598  0.1731
    2TTP     C112554   9.067   3.478   6.330  0.2395 -0.3081  0.1285
    2TTP     C212555   9.170   3.512   6.413  0.2637 -0.2560  0.0772
    2TTP     C312556   9.168   3.651   6.446  0.2146 -0.2550  0.0714
    2TTP     C412557   9.168   3.898   6.506  0.1268 -0.2525  0.0604
    2TTP    C1712558   9.065   3.864   6.423  0.1028 -0.3047  0.1116
    2TTP    C1812559   9.066   3.725   6.390  0.1519 -0.3057  0.1174
    2TTP    C3212560   9.282   3.426   6.470  0.3361  0.1290 -0.0501
    2TTP    C3312561   9.425   3.449   6.436  0.0146  0.2004  0.7026
    2TTP    C3412562   9.465   3.452   6.285  0.2669 -0.2578  0.1847
    2TTP    C3512563   9.533   3.319   6.245 -0.1552 -0.7680 -0.1209
    2TTP    C3612564   9.437   3.202   6.224  0.1275 -0.0139 -0.2927
    2TTP    C3712565   9.501   3.073   6.179 -0.3599  0.0951 -0.4153
    2TTP    C3812566   9.389   2.972   6.162 -0.0439  0.3554  0.4646
    2TTP    C3912567   9.368   2.920   6.020  0.5379  0.7810  0.0401
    2TTP    C4012568   9.219   2.884   5.982 -0.5440  0.5108  0.1984
    2TTP    C4112569   9.192   2.836   5.847  0.6702  0.3204  0.8788
    2TTP    C4212570   9.040   2.789   5.837 -0.3298 -0.0132  0.7708
    3TTP     S112571   9.111   4.618   6.539 -0.0529 -0.0172 -0.1811
    3TTP     S512572   8.724   4.617   6.351 -0.0551  0.0131 -0.1767
    3TTP     C112573   8.752   4.781   6.425 -0.0476  0.0061 -0.1639
    3TTP     C212574   8.873   4.791   6.487 -0.0467 -0.0037 -0.1646
    3TTP     C312575   8.948   4.669   6.479 -0.0517 -0.0061 -0.1750
    3TTP     C412576   9.083   4.454   6.465 -0.0603 -0.0103 -0.1938
    3TTP    C1712577   8.962   4.444   6.402 -0.0613 -0.0004 -0.1932
    3TTP    C1812578   8.887   4.565   6.411 -0.0563  0.0019 -0.1827
    3TTP    C3212579   8.933   4.919   6.559  0.1975  0.2369 -0.4863
    3TTP    C3312580   9.064   4.971   6.502  0.0612  0.2581 -0.0692
    3TTP    C3412581   9.128   5.093   6.571 -0.3882  0.3546 -0.1900
    3TTP    C3512582   9.256   5.147   6.499 -0.5624 -0.3543 -0.5592
    3TTP    C3612583   9.307   5.269   6.577 -0.3710 -0.0361 -0.4694
    3TTP    C3712584   9.431   5.317   6.502  0.2833  0.0957  0.7949
    3TTP    C3812585   9.474   5.457   6.553  0.0111 -0.2155 -0.0143
    3TTP    C3912586   9.600   5.517   6.489  1.0157 -0.2660  0.4382
    3TTP    C4012587   9.665   5.625   6.567 -0.0718 -0.4085  0.5046
    3TTP    C4112588   9.785   5.695   6.491  0.1571  0.5770 -0.5175
    3TTP    C4212589   9.828   5.823   6.560  0.1942  0.0199 -0.4436
    4BIM     F112590   8.590   3.167   5.738  0.0403  0.2102  0.2129
    4BIM     F212591   8.653   2.917   5.827  0.1490  0.2006  0.1104
    4BIM     O112592   8.883   3.473   6.075  0.0391  0.1929  0.2301
    4BIM     N512593   8.951   2.777   6.196  0.3045  0.1745 -0.0248
    4BIM     N612594   9.167   3.067   6.442  0.2813  0.1630  0.0093
    4BIM    C1912595   9.047   3.343   6.280  0.1422  0.1776  0.1382
    4BIM    C2012596   8.971   3.276   6.192  0.1383  0.1823  0.1379
    4BIM    C2112597   8.889   3.350   6.089  0.0837  0.1901  0.1867
    4BIM    C2212598   8.819   3.247   6.010  0.0942  0.1937  0.1727
    4BIM    C2312599   8.732   3.267   5.903  0.0563  0.2010  0.2050
    4BIM    C2412600   8.677   3.154   5.844  0.0759  0.2032  0.1832
    4BIM    C2512601   8.710   3.026   5.890  0.1318  0.1982  0.1303
    4BIM    C2612602   8.797   3.005   5.996  0.1702  0.1910  0.0978
    4BIM    C2712603   8.853   3.118   6.058  0.1512  0.1886  0.1192
    4BIM    C2812604   8.947   3.131   6.172  0.1802  0.1815  0.0960
    4BIM    C2912605   9.002   3.028   6.244  0.2358  0.1752  0.0449
    4BIM    C3012606   8.974   2.890   6.217  0.2735  0.1748  0.0068
    4BIM    C3112607   9.093   3.050   6.352  0.2608  0.1685  0.0256
    5BIM     F112608   7.937   4.803   6.411  0.0473 -0.2325  0.0361
    5BIM     F212609   7.955   5.067   6.345 -0.0008 -0.2760 -0.1516
    5BIM     O112610   8.460   4.680   6.478  0.0596 -0.0508  0.2787
    5BIM     N512611   8.353   5.358   6.299 -0.0613 -0.2089 -0.2490
    5BIM     N612612   8.758   5.208   6.365 -0.0422 -0.0579 -0.0216
    5BIM    C1912613   8.663   4.888   6.440  0.0180 -0.0276  0.1853
    5BIM    C2012614   8.530   4.908   6.425  0.0167 -0.0716  0.1316
    5BIM    C2112615   8.432   4.796   6.447  0.0389 -0.0806  0.1850
    5BIM    C2212616   8.298   4.853   6.423  0.0315 -0.1320  0.1048
    5BIM    C2312617   8.176   4.787   6.431  0.0458 -0.1572  0.1171
    5BIM    C2412618   8.062   4.862   6.404  0.0342 -0.2055  0.0295
    5BIM    C2512619   8.071   4.998   6.371  0.0097 -0.2278 -0.0672
    5BIM    C2612620   8.193   5.064   6.362 -0.0050 -0.2029 -0.0801
    5BIM    C2712621   8.309   4.990   6.389  0.0064 -0.1538  0.0076
    5BIM    C2812622   8.452   5.029   6.389 -0.0038 -0.1177  0.0204
    5BIM    C2912623   8.503   5.154   6.361 -0.0272 -0.1255 -0.0564
    5BIM    C3012624   8.420   5.266   6.327 -0.0460 -0.1713 -0.1620
    5BIM    C3112625   8.643   5.183   6.363 -0.0353 -0.0882 -0.0368
    1BTD     S212626   5.920   5.403   8.225 -0.3294 -0.2970  0.0262
    1BTD     N112627   5.754   5.453   8.177 -0.2201 -0.3092 -0.3750
    1BTD     N212628   5.992   5.566   8.197 -0.3196 -0.2307  0.4303
    1BTD     N312629   5.838   5.986   8.055 -0.1028 -0.1179  0.5283
    1BTD     N412630   5.545   5.847   8.031  0.0198 -0.2145 -0.4640
    1BTD     C512631   5.648   5.660   8.101 -0.0963 -0.2587 -0.4096
    1BTD     C612632   5.760   5.581   8.145 -0.1839 -0.2655 -0.1967
    1BTD     C712633   5.893   5.644   8.156 -0.2396 -0.2216  0.2542
    1BTD     C812634   5.908   5.784   8.123 -0.2048 -0.1730  0.4694
    1BTD    C1512635   5.796   5.857   8.080 -0.1188 -0.1680  0.2482
    1BTD    C1612636   5.667   5.796   8.070 -0.0651 -0.2103 -0.1859
    1BTD    C4312637   5.513   5.962   7.945  0.4740 -0.1366  0.2057
    1BTD    C4412638   5.388   6.050   7.951  0.1293 -0.0289 -0.3504
    1BTD    C4512639   5.360   6.099   8.101 -0.1334  0.4301  0.2293
    1BTD    C4612640   5.225   6.167   8.116 -0.1252 -0.5998 -0.5057
    1BTD    C4712641   5.380   6.156   7.844 -0.6114 -0.5299 -0.2071
    1BTD    C4812642   5.359   6.124   7.694 -0.2435 -0.1938  0.1090
    1BTD    C4912643   5.241   6.037   7.662  0.3341 -0.4000  0.2946
    1BTD    C5012644   5.224   6.033   7.512  0.0469  0.5168  0.1061
    1BTD    C7512645   5.756   6.110   8.065 -0.1140  0.4007 -0.1185
    1BTD    C7612646   5.774   6.243   7.994  0.1242  0.8379  0.0377
    1BTD    C7712647   5.681   6.355   8.034  0.7184 -0.3086  0.1062
    1BTD    C7812648   5.669   6.384   8.186 -0.0918 -0.2745  0.3866
    1BTD    C7912649   5.783   6.220   7.835  0.4099 -0.1344 -0.3393
    1BTD    C8012650   5.802   6.340   7.749 -0.0683 -0.2307  0.0416
    1BTD    C8112651   5.926   6.422   7.775 -0.6922  0.1344 -0.9133
    1BTD    C8212652   5.938   6.557   7.698  0.6586  0.4728 -0.1656
    2TTP     S112653   5.400   5.493   8.113 -0.3897 -0.1302 -0.1524
    2TTP     S512654   5.164   5.831   7.991 -0.0923  0.1742  0.1105
    2TTP     C112655   5.052   5.691   8.021 -0.2248  0.2731  0.0842
    2TTP     C212656   5.119   5.578   8.060 -0.3245  0.1851  0.0019
    2TTP     C312657   5.260   5.599   8.068 -0.2997  0.0361 -0.0441
    2TTP     C412658   5.511   5.634   8.083 -0.2571 -0.2291 -0.1261
    2TTP    C1712659   5.445   5.746   8.044 -0.1575 -0.1412 -0.0436
    2TTP    C1812660   5.304   5.726   8.036 -0.1823  0.0077  0.0021
    2TTP    C3212661   5.070   5.437   8.107  0.4465  0.1807  0.0555
    2TTP    C3312662   5.095   5.391   8.255  0.0804 -0.5585  0.6510
    2TTP    C3412663   5.084   5.499   8.364  0.6405  0.3306 -0.1525
    2TTP    C3512664   5.130   5.454   8.503 -0.6028 -0.1490  0.1898
    2TTP    C3612665   5.147   5.576   8.598  0.0024  0.1630  0.1232
    2TTP    C3712666   5.209   5.543   8.729  0.5075  0.4898 -0.2982
    2TTP    C3812667   5.358   5.514   8.731  0.8373  1.0243 -0.0378
    2TTP    C3912668   5.427   5.548   8.862  0.2279 -0.4857 -0.2590
    2TTP    C4012669   5.576   5.557   8.862  0.5310 -0.5812  0.5255
    2TTP    C4112670   5.619   5.680   8.947  0.0600  0.0298 -0.1840
    2TTP    C4212671   5.772   5.686   8.951  0.1479  0.4094  0.3101
    3TTP     S112672   6.195   5.869   8.167  0.0074  0.0712  0.0919
    3TTP     S512673   6.086   6.273   8.067 -0.0530  0.0936  0.2487
    3TTP     C112674   6.262   6.271   8.116 -0.0673  0.1102  0.3007
    3TTP     C212675   6.306   6.146   8.149 -0.0494  0.1042  0.2553
    3TTP     C312676   6.202   6.048   8.138 -0.0238  0.0863  0.1779
    3TTP     C412677   6.020   5.872   8.118  0.0217  0.0546  0.0396
    3TTP    C1712678   5.976   5.996   8.084  0.0038  0.0605  0.0853
    3TTP    C1812679   6.079   6.095   8.096 -0.0216  0.0783  0.1626
    3TTP    C3212680   6.447   6.107   8.193  0.1268  0.5101 -0.1010
    3TTP    C3312681   6.506   5.993   8.110  0.0736 -0.1254 -0.0143
    3TTP    C3412682   6.634   5.936   8.172  0.1072 -0.1401 -0.0591
    3TTP    C3512683   6.697   5.827   8.079 -0.4519 -0.1090 -0.9296
    3TTP    C3612684   6.833   5.771   8.131  0.6405  0.0171 -0.2328
    3TTP    C3712685   6.898   5.659   8.045 -0.1177  0.5895 -0.2728
    3TTP    C3812686   7.030   5.611   8.104 -0.4763 -0.3657  0.0584
    3TTP    C3912687   7.044   5.567   8.248 -0.9942 -0.5911  0.8368
    3TTP    C4012688   6.954   5.458   8.305  0.5924 -0.1329 -0.2360
    3TTP    C4112689   6.929   5.332   8.223 -0.4979  0.9702 -0.1347
    3TTP    C4212690   6.834   5.241   8.296  0.2378  0.3085 -0.3061
    4BIM     F112691   4.478   6.266   7.903  0.1624 -0.0885 -0.2493
    4BIM     F212692   4.302   6.068   7.841 -0.1218 -0.0525  0.4289
    4BIM     O112693   4.921   5.977   8.021  0.1732 -0.2453 -0.6716
    4BIM     N512694   4.365   5.577   7.836 -0.5224 -0.1125  1.1023
    4BIM     N612695   4.746   5.391   7.941 -0.4565 -0.2424  0.6357
    4BIM    C1912696   4.910   5.685   8.004 -0.0941 -0.2668 -0.1738
    4BIM    C2012697   4.805   5.766   7.976 -0.0857 -0.2286 -0.0941
    4BIM    C2112698   4.819   5.915   7.987  0.0557 -0.2199 -0.3641
    4BIM    C2212699   4.688   5.972   7.951  0.0263 -0.1760 -0.1917
    4BIM    C2312700   4.651   6.106   7.946  0.1242 -0.1539 -0.3372
    4BIM    C2412701   4.521   6.135   7.909  0.0715 -0.1123 -0.1223
    4BIM    C2512702   4.430   6.033   7.877 -0.0751 -0.0936  0.2269
    4BIM    C2612703   4.466   5.899   7.882 -0.1733 -0.1158  0.3738
    4BIM    C2712704   4.598   5.867   7.919 -0.1216 -0.1578  0.1605
    4BIM    C2812705   4.666   5.736   7.934 -0.1965 -0.1894  0.2340
    4BIM    C2912706   4.612   5.612   7.911 -0.3408 -0.1835  0.5471
    4BIM    C3012707   4.476   5.593   7.870 -0.4401 -0.1445  0.8513
    4BIM    C3112708   4.686   5.491   7.928 -0.4035 -0.2159  0.5941
    5BIM     F112709   6.212   7.072   7.937  0.1031 -0.1439  0.1378
    5BIM     F212710   6.467   7.101   8.027  0.1609 -0.0795 -0.0465
    5BIM     O112711   6.137   6.541   8.010  0.3074 -0.1719  0.1469
    5BIM     N512712   6.781   6.763   8.208  0.3898 -0.0064 -0.3052
    5BIM     N612713   6.670   6.342   8.247  0.5379 -0.0412 -0.2611
    5BIM    C1912714   6.354   6.380   8.122  0.4352 -0.1201 -0.0261
    5BIM    C2012715   6.363   6.512   8.100  0.3816 -0.1155 -0.0212
    5BIM    C2112716   6.247   6.588   8.042  0.3176 -0.1434  0.0703
    5BIM    C2212717   6.290   6.729   8.032  0.2699 -0.1302  0.0510
    5BIM    C2312718   6.217   6.837   7.984  0.2041 -0.1467  0.1141
    5BIM    C2412719   6.279   6.961   7.983  0.1687 -0.1292  0.0793
    5BIM    C2512720   6.410   6.975   8.030  0.1984 -0.0957 -0.0158
    5BIM    C2612721   6.484   6.868   8.078  0.2642 -0.0792 -0.0792
    5BIM    C2712722   6.423   6.742   8.079  0.3010 -0.0967 -0.0451
    5BIM    C2812723   6.473   6.609   8.123  0.3709 -0.0863 -0.0932
    5BIM    C2912724   6.597   6.581   8.174  0.4166 -0.0556 -0.1867
    5BIM    C3012725   6.698   6.681   8.193  0.4017 -0.0286 -0.2515
    5BIM    C3112726   6.637   6.450   8.214  0.4830 -0.0478 -0.2267
    1BTD     S212727   4.162   7.619   2.625 -0.1615 -0.7048  0.0220
    1BTD     N112728   4.031   7.498   2.600 -0.2729 -0.5181 -0.3032
    1BTD     N212729   4.072   7.754   2.547  0.0561 -0.4703  0.1760
    1BTD     N312730   3.654   7.812   2.343  0.2984  0.3449 -0.0975
    1BTD     N412731   3.602   7.497   2.408 -0.1068  0.2860 -0.6880
    1BTD     C512732   3.808   7.501   2.499 -0.1812 -0.0974 -0.4970
    1BTD     C612733   3.932   7.562   2.538 -0.1485 -0.3016 -0.2815
    1BTD     C712734   3.955   7.705   2.509  0.0357 -0.2749 -0.0132
    1BTD     C812735   3.853   7.781   2.441  0.1777 -0.0453  0.0260
    1BTD    C1512736   3.733   7.717   2.405  0.1394  0.1494 -0.1908
    1BTD    C1612737   3.710   7.579   2.433 -0.0380  0.1238 -0.4493
    1BTD    C4312738   3.465   7.540   2.381 -0.0388  0.4849  0.0570
    1BTD    C4412739   3.359   7.543   2.496  0.0953  0.5489  0.2190
    1BTD    C4512740   3.212   7.566   2.453 -0.5004  0.3762  0.8702
    1BTD    C4612741   3.152   7.454   2.360 -0.0089 -0.8003  0.0060
    1BTD    C4712742   3.397   7.641   2.610 -0.2437 -0.3151 -0.0317
    1BTD    C4812743   3.305   7.639   2.737  0.2978  0.8637 -0.0798
    1BTD    C4912744   3.346   7.718   2.855  0.6551  0.2491  0.4434
    1BTD    C5012745   3.339   7.861   2.845  0.3413  0.3001  0.1761
    1BTD    C7512746   3.549   7.795   2.235 -0.0652  0.5885 -0.2091
    1BTD    C7612747   3.430   7.891   2.216  0.3113  0.2021  0.5613
    1BTD    C7712748   3.349   7.919   2.351 -0.3134  0.2009  0.0806
    1BTD    C7812749   3.221   7.997   2.354 -0.4502 -0.2236  0.1742
    1BTD    C7912750   3.352   7.838   2.093  0.1518  0.5673 -0.2812
    1BTD    C8012751   3.245   7.922   2.020  0.0518  0.2292  0.4641
    1BTD    C8112752   3.293   8.066   2.002 -0.9882 -0.5050  0.2732
    1BTD    C8212753   3.201   8.160   1.937 -0.4433 -0.1515  0.0913
    2TTP     S112754   3.788   7.204   2.593  0.1182 -0.4263  0.0194
    2TTP     S512755   3.390   7.192   2.430 -0.0483 -0.0070  0.3941
    2TTP     C112756   3.423   7.034   2.513 -0.0775 -0.1036  0.2208
    2TTP     C212757   3.548   7.028   2.568 -0.0278 -0.2387  0.0948
    2TTP     C312758   3.622   7.149   2.547  0.0351 -0.2708  0.1307
    2TTP     C412759   3.754   7.363   2.510  0.1475 -0.3297  0.1928
    2TTP    C1712760   3.629   7.368   2.455  0.0977 -0.1945  0.3186
    2TTP    C1812761   3.556   7.248   2.476  0.0348 -0.1625  0.2828
    2TTP    C3212762   3.627   6.913   2.644  0.1846 -0.4212  0.2345
    2TTP    C3312763   3.654   6.920   2.796  0.0792 -0.3241 -0.3116
    2TTP    C3412764   3.517   6.902   2.875 -0.3575  0.1921 -0.0468
    2TTP    C3512765   3.529   6.899   3.028  0.0200 -0.1971  0.9949
    2TTP    C3612766   3.568   7.030   3.095  0.5862  0.0165 -0.4598
    2TTP    C3712767   3.488   7.164   3.066 -0.0416 -0.1006 -0.9398
    2TTP    C3812768   3.341   7.144   3.091 -0.2811  0.5939  0.1585
    2TTP    C3912769   3.247   7.259   3.079 -0.0091  0.5593  0.2295
    2TTP    C4012770   3.207   7.295   2.935  0.5453  0.5463 -0.0510
    2TTP    C4112771   3.144   7.190   2.837 -0.2305  0.2237  0.2835
    2TTP    C4212772   3.159   7.244   2.692 -0.6134  0.3111 -0.5909
    3TTP     S112773   3.937   8.070   2.437  0.0470 -0.0304  0.1045
    3TTP     S512774   3.556   8.177   2.270 -0.0182 -0.0219  0.2579
    3TTP     C112775   3.652   8.329   2.296 -0.0057 -0.0238  0.2223
    3TTP     C212776   3.776   8.305   2.349  0.0153 -0.0267  0.1728
    3TTP     C312777   3.799   8.166   2.371  0.0221 -0.0272  0.1613
    3TTP     C412778   3.841   7.918   2.411  0.0343 -0.0284  0.1401
    3TTP    C1712779   3.718   7.942   2.358  0.0135 -0.0257  0.1897
    3TTP    C1812780   3.695   8.082   2.336  0.0067 -0.0250  0.2012
    3TTP    C3212781   3.895   8.396   2.374  0.1294  0.1515 -0.4630
    3TTP    C3312782   3.948   8.417   2.519 -0.3239  0.3733 -0.1625
    3TTP    C3412783   4.062   8.505   2.548 -0.4963 -0.0803 -0.0729
    3TTP    C3512784   4.113   8.494   2.692  0.2735  0.5668 -0.1375
    3TTP    C3612785   4.226   8.596   2.720  0.5782  0.1383  0.0486
    3TTP    C3712786   4.370   8.550   2.706  0.1317  0.1021 -0.1142
    3TTP    C3812787   4.409   8.499   2.569 -1.0930 -0.0675 -0.2171
    3TTP    C3912788   4.392   8.589   2.449 -0.1036 -0.1145 -0.0331
    3TTP    C4012789   4.476   8.546   2.327  0.1612  0.1487  0.0560
    3TTP    C4112790   4.462   8.633   2.207 -0.1029 -0.8805  0.0107
    3TTP    C4212791   4.570   8.583   2.115 -0.3652  0.3253 -0.1326
    4BIM     F112792   2.648   6.886   2.280 -0.2685  0.1817  0.5310
    4BIM     F212793   2.659   6.649   2.414  0.0136 -0.1826 -0.1261
    4BIM     O112794   3.144   7.081   2.376 -0.2440  0.1599  0.4494
    4BIM     N512795   3.029   6.448   2.675  0.4366 -0.7218 -1.1289
    4BIM     N612796   3.414   6.649   2.723  0.3989 -0.6657 -1.0604
    4BIM    C1912797   3.331   6.925   2.538  0.0342 -0.1960 -0.2074
    4BIM    C2012798   3.206   6.885   2.509  0.0170 -0.1762 -0.1612
    4BIM    C2112799   3.116   6.971   2.425 -0.1295  0.0113  0.1842
    4BIM    C2212800   2.988   6.898   2.412 -0.1096 -0.0168  0.1445
    4BIM    C2312801   2.874   6.938   2.343 -0.2148  0.1167  0.3948
    4BIM    C2412802   2.765   6.853   2.346 -0.1702  0.0571  0.2964
    4BIM    C2512803   2.771   6.731   2.415 -0.0247 -0.1309 -0.0423
    4BIM    C2612804   2.884   6.690   2.484  0.0806 -0.2648 -0.2933
    4BIM    C2712805   2.996   6.776   2.482  0.0375 -0.2068 -0.1985
    4BIM    C2812806   3.130   6.762   2.544  0.1213 -0.3124 -0.3999
    4BIM    C2912807   3.175   6.657   2.620  0.2674 -0.5001 -0.7421
    4BIM    C3012808   3.094   6.543   2.650  0.3599 -0.6214 -0.9536
    4BIM    C3112809   3.306   6.653   2.676  0.3389 -0.5902 -0.9151
    5BIM     F112810   2.913   8.681   2.185 -0.0155  0.0834 -0.0665
    5BIM     F212811   3.035   8.924   2.191 -0.0984  0.1180  0.2400
    5BIM     O112812   3.337   8.351   2.252  0.0641  0.1545 -0.2205
    5BIM     N512813   3.513   9.039   2.247 -0.1608  0.2184  0.5710
    5BIM     N612814   3.820   8.732   2.298 -0.0821  0.2673  0.3888
    5BIM    C1912815   3.605   8.467   2.281  0.0131  0.2128  0.0177
    5BIM    C2012816   3.493   8.540   2.264 -0.0037  0.1936  0.0444
    5BIM    C2112817   3.359   8.473   2.250  0.0246  0.1640 -0.0840
    5BIM    C2212818   3.260   8.581   2.233 -0.0037  0.1488 -0.0156
    5BIM    C2312819   3.123   8.569   2.216  0.0079  0.1206 -0.0896
    5BIM    C2412820   3.049   8.686   2.202 -0.0246  0.1109 -0.0007
    5BIM    C2512821   3.112   8.811   2.205 -0.0674  0.1287  0.1572
    5BIM    C2612822   3.249   8.824   2.222 -0.0792  0.1566  0.2317
    5BIM    C2712823   3.325   8.707   2.236 -0.0467  0.1671  0.1437
    5BIM    C2812824   3.471   8.687   2.256 -0.0484  0.1955  0.1869
    5BIM    C2912825   3.567   8.785   2.264 -0.0844  0.2186  0.3313
    5BIM    C3012826   3.537   8.924   2.255 -0.1264  0.2184  0.4625
    5BIM    C3112827   3.706   8.755   2.283 -0.0828  0.2456  0.3621
    1BTD     S212828   9.310   8.184   3.488  0.0263 -0.2265 -0.0089
    1BTD     N112829   9.133   8.157   3.484  0.0281 -0.2174 -0.1699
    1BTD     N212830   9.347   8.022   3.558 -0.0603 -0.1497  0.2162
    1BTD     N312831   9.101   7.646   3.693 -0.2339  0.0236  0.3840
    1BTD     N412832   8.837   7.813   3.602 -0.1249 -0.0596 -0.0916
    1BTD     C512833   8.981   7.975   3.547 -0.0532 -0.1340 -0.1233
    1BTD     C612834   9.111   8.036   3.532 -0.0329 -0.1602 -0.0536
    1BTD     C712835   9.231   7.960   3.574 -0.0825 -0.1224  0.1625
    1BTD     C812836   9.216   7.828   3.627 -0.1497 -0.0600  0.2981
    1BTD    C1512837   9.087   7.772   3.639 -0.1673 -0.0362  0.2232
    1BTD    C1612838   8.971   7.845   3.600 -0.1191 -0.0727  0.0149
    1BTD    C4312839   8.773   7.745   3.720  0.5421  0.3305  0.2446
    1BTD    C4412840   8.625   7.688   3.714  0.3912  0.0490  0.2241
    1BTD    C4512841   8.535   7.691   3.844 -0.0352  0.0983  0.1558
    1BTD    C4612842   8.588   7.609   3.961  0.3976 -0.3544 -0.6158
    1BTD    C4712843   8.640   7.554   3.632  0.1098  0.3200  0.3455
    1BTD    C4812844   8.512   7.473   3.596 -0.5114 -0.2815  0.2571
    1BTD    C4912845   8.519   7.340   3.519 -0.3761 -0.0395 -0.1447
    1BTD    C5012846   8.374   7.304   3.479 -0.8652  0.0128  0.1005
    1BTD    C7512847   9.005   7.529   3.662 -0.2631 -0.5343 -0.6410
    1BTD    C7612848   9.004   7.395   3.734 -0.0184  0.2578  0.0060
    1BTD    C7712849   8.950   7.292   3.642  0.5744  0.0039  0.0201
    1BTD    C7812850   8.942   7.146   3.686  0.0555 -0.0617 -0.5319
    1BTD    C7912851   8.936   7.430   3.874  0.6042 -0.9067  0.5676
    1BTD    C8012852   8.899   7.321   3.975  0.4688 -0.3659 -0.0659
    1BTD    C8112853   8.911   7.371   4.126 -0.1749 -0.4114 -0.0592
    1BTD    C8212854   9.048   7.350   4.179  0.0631  0.3499 -0.1660
    2TTP     S112855   8.775   8.150   3.419  0.3001 -0.0823  0.0830
    2TTP     S512856   8.495   7.825   3.449  0.2191 -0.0333 -0.1386
    2TTP     C112857   8.420   7.956   3.348  0.3765 -0.0775 -0.3141
    2TTP     C212858   8.502   8.065   3.333  0.4110 -0.0954 -0.2560
    2TTP     C312859   8.627   8.048   3.400  0.3140 -0.0746 -0.0709
    2TTP     C412860   8.850   8.019   3.520  0.1428 -0.0377  0.2585
    2TTP    C1712861   8.768   7.910   3.535  0.1083 -0.0200  0.2004
    2TTP    C1812862   8.643   7.927   3.468  0.2050 -0.0409  0.0151
    2TTP    C3212863   8.465   8.191   3.247 -0.3329  0.5156 -0.4106
    2TTP    C3312864   8.505   8.330   3.303  0.8089 -0.3951 -0.0994
    2TTP    C3412865   8.491   8.434   3.198  0.2018 -0.1372  0.0892
    2TTP    C3512866   8.501   8.572   3.256 -0.8937 -0.1385 -0.9193
    2TTP    C3612867   8.472   8.671   3.144  0.3689  0.1564  0.2020
    2TTP    C3712868   8.494   8.822   3.178  0.4636 -0.3895  0.4181
    2TTP    C3812869   8.517   8.914   3.058  0.1575 -0.7392  0.0610
    2TTP    C3912870   8.602   8.876   2.942 -0.3969  0.4226  0.0188
    2TTP    C4012871   8.753   8.870   2.986  0.0147  0.3464 -0.4452
    2TTP    C4112872   8.866   8.873   2.878  0.5094  0.1267 -0.2415
    2TTP    C4212873   9.010   8.851   2.931 -0.0976 -0.6510  0.0968
    3TTP     S112874   9.497   7.705   3.678  0.2566 -0.0042  0.2228
    3TTP     S512875   9.298   7.346   3.806  0.1886 -0.0733 -0.0739
    3TTP     C112876   9.478   7.320   3.818  0.1811 -0.0377  0.1214
    3TTP     C212877   9.550   7.430   3.779  0.2015 -0.0142  0.2245
    3TTP     C312878   9.465   7.538   3.738  0.2239 -0.0236  0.1530
    3TTP     C412879   9.317   7.731   3.666  0.2637 -0.0398  0.0276
    3TTP    C1712880   9.245   7.622   3.704  0.2436 -0.0633 -0.0756
    3TTP    C1812881   9.329   7.514   3.745  0.2210 -0.0539 -0.0041
    3TTP    C3212882   9.700   7.437   3.764  0.4859  0.1260  0.5652
    3TTP    C3312883   9.766   7.515   3.882 -0.7206  0.5037 -0.6171
    3TTP    C3412884   9.920   7.501   3.887 -0.3941  0.1523  0.4084
    3TTP    C3512885  10.000   7.563   3.773 -0.3315 -0.5955  0.1982
    3TTP    C3612886  10.154   7.562   3.785  0.3049 -0.4808  0.4845
    3TTP    C3712887  10.227   7.582   3.651  0.3362  0.0448 -0.2881
    3TTP    C3812888  10.225   7.720   3.597 -0.2642 -0.2638  0.6037
    3TTP    C3912889  10.350   7.753   3.504  0.0734 -0.0449  0.3058
    3TTP    C4012890  10.368   7.898   3.455  0.0105  0.1770  0.1708
    3TTP    C4112891  10.511   7.910   3.397  0.9165  0.3281 -0.0023
    3TTP    C4212892  10.547   8.047   3.353  0.3991  0.3853 -0.6070
    4BIM     F112893   7.817   7.399   3.272 -0.1506 -0.1849 -0.2997
    4BIM     F212894   7.643   7.602   3.223 -0.2037 -0.1873 -0.1214
    4BIM     O112895   8.282   7.671   3.325 -0.2043 -0.1194 -0.1605
    4BIM     N512896   7.725   8.089   3.190 -0.3185 -0.1435  0.2342
    4BIM     N612897   8.124   8.261   3.241 -0.3500 -0.0918  0.3070
    4BIM    C1912898   8.282   7.962   3.297 -0.2743 -0.0980  0.0592
    4BIM    C2012899   8.171   7.885   3.285 -0.2589 -0.1146  0.0172
    4BIM    C2112900   8.180   7.736   3.301 -0.2229 -0.1246 -0.0964
    4BIM    C2212901   8.043   7.685   3.283 -0.2136 -0.1419 -0.1160
    4BIM    C2312902   8.000   7.552   3.289 -0.1829 -0.1557 -0.2100
    4BIM    C2412903   7.865   7.527   3.268 -0.1803 -0.1709 -0.2095
    4BIM    C2512904   7.776   7.633   3.243 -0.2076 -0.1719 -0.1174
    4BIM    C2612905   7.818   7.765   3.237 -0.2385 -0.1580 -0.0235
    4BIM    C2712906   7.954   7.792   3.258 -0.2416 -0.1427 -0.0224
    4BIM    C2812907   8.029   7.920   3.258 -0.2706 -0.1261  0.0631
    4BIM    C2912908   7.978   8.045   3.237 -0.3020 -0.1218  0.1653
    4BIM    C3012909   7.839   8.069   3.212 -0.3110 -0.1338  0.2028
    4BIM    C3112910   8.058   8.163   3.240 -0.3281 -0.1051  0.2427
    5BIM     F112911   9.212   6.560   3.953 -0.0315  0.1010 -0.0374
    5BIM     F212912   9.444   6.506   4.084 -0.1462  0.0862  0.1624
    5BIM     O112913   9.297   7.072   3.801  0.1605  0.0728 -0.0243
    5BIM     N512914   9.839   6.793   4.164 -0.1748  0.0449  0.4588
    5BIM     N612915   9.859   7.204   4.018 -0.0017  0.0262  0.4288
    5BIM    C1912916   9.550   7.203   3.872  0.1185  0.0490  0.1712
    5BIM    C2012917   9.519   7.076   3.905  0.0751  0.0565  0.1601
    5BIM    C2112918   9.387   7.016   3.865  0.1004  0.0688  0.0571
    5BIM    C2212919   9.387   6.878   3.917  0.0396  0.0747  0.0722
    5BIM    C2312920   9.286   6.783   3.904  0.0379  0.0862 -0.0013
    5BIM    C2412921   9.308   6.659   3.962 -0.0252  0.0899  0.0313
    5BIM    C2512922   9.427   6.631   4.029 -0.0846  0.0821  0.1343
    5BIM    C2612923   9.529   6.725   4.042 -0.0830  0.0707  0.2079
    5BIM    C2712924   9.508   6.852   3.984 -0.0191  0.0670  0.1765
    5BIM    C2812925   9.594   6.972   3.980  0.0000  0.0556  0.2346
    5BIM    C2912926   9.720   6.985   4.035 -0.0434  0.0458  0.3377
    5BIM    C3012927   9.785   6.880   4.106 -0.1156  0.0453  0.4040
    5BIM    C3112928   9.796   7.106   4.025 -0.0203  0.0348  0.3873
    1BTD     S212929   2.820   1.997   9.057  0.1945 -0.0945 -0.1732
    1BTD     N112930   2.883   1.933   9.213  0.1169  0.3496  0.0427
    1BTD     N212931   2.979   2.060   9.003  0.2621 -0.4269 -0.3664
    1BTD     N312932   3.417   2.074   9.173  0.2599 -0.3025 -0.3703
    1BTD     N412933   3.298   1.917   9.433  0.0810  0.6544  0.1338
    1BTD     C512934   3.101   1.926   9.325  0.1003  0.4972  0.0839
    1BTD     C612935   3.012   1.961   9.216  0.1440  0.2332 -0.0362
    1BTD     C712936   3.067   2.032   9.098  0.2252 -0.2015 -0.2651
    1BTD     C812937   3.206   2.065   9.095  0.2587 -0.3504 -0.3624
    1BTD    C1512938   3.289   2.030   9.203  0.2138 -0.0809 -0.2382
    1BTD    C1612939   3.237   1.961   9.317  0.1355  0.3379 -0.0177
    1BTD    C4312940   3.402   1.992   9.504  0.2216  0.2034 -0.1477
    1BTD    C4412941   3.499   1.929   9.605  0.6402  0.1183  0.0017
    1BTD    C4512942   3.546   2.034   9.708 -0.3127 -0.0075  0.4469
    1BTD    C4612943   3.665   2.129   9.680  0.4698 -0.3406 -0.0062
    1BTD    C4712944   3.589   1.832   9.531  0.5528 -0.0500 -0.1629
    1BTD    C4812945   3.696   1.752   9.611  0.0550 -0.2370 -0.1933
    1BTD    C4912946   3.648   1.660   9.715  0.2280 -0.3244  0.1913
    1BTD    C5012947   3.749   1.583   9.801 -0.2283  0.4744  0.0659
    1BTD    C7512948   3.544   2.010   9.217  0.1805 -0.0121 -0.6154
    1BTD    C7612949   3.677   2.094   9.250  0.1162  0.0387 -0.3195
    1BTD    C7712950   3.656   2.223   9.327  0.0889  0.1764  0.3000
    1BTD    C7812951   3.752   2.338   9.330 -0.0351  0.2476  0.3524
    1BTD    C7912952   3.790   1.991   9.262 -0.0347  0.0634 -0.1138
    1BTD    C8012953   3.934   2.032   9.278 -0.5378  0.3323  0.0875
    1BTD    C8112954   3.979   2.031   9.427  0.0588  0.1689  0.7421
    1BTD    C8212955   4.121   2.081   9.446 -0.3833  0.3631 -0.3047
    2TTP     S112956   2.950   1.766   9.533  0.1103  0.2373  0.0382
    2TTP     S512957   3.318   1.713   9.749  0.1372 -0.0964 -0.0883
    2TTP     C112958   3.185   1.624   9.836  0.1235 -0.1299 -0.1427
    2TTP     C212959   3.064   1.635   9.775  0.1144 -0.0289 -0.1069
    2TTP     C312960   3.071   1.715   9.656  0.1179  0.0787 -0.0351
    2TTP     C412961   3.082   1.855   9.445  0.1240  0.2708  0.0927
    2TTP    C1712962   3.203   1.844   9.506  0.1331  0.1698  0.0568
    2TTP    C1812963   3.196   1.765   9.625  0.1296  0.0622 -0.0150
    2TTP    C3212964   2.934   1.572   9.823 -0.3142  0.3591  0.5409
    2TTP    C3312965   2.819   1.675   9.824  0.2816  0.5764  0.2498
    2TTP    C3412966   2.693   1.614   9.893  0.2792 -0.2414 -0.2781
    2TTP    C3512967   2.699   1.614  10.046  0.4805  0.0536  0.2096
    2TTP    C3612968   2.570   1.572  10.116 -0.5680 -0.6347  0.0984
    2TTP    C3712969   2.592   1.537  10.259  0.1116 -0.0806 -0.2635
    2TTP    C3812970   2.459   1.480  10.317 -0.4371 -0.0980 -0.7947
    2TTP    C3912971   2.347   1.580  10.334  0.3719 -0.0015 -0.2800
    2TTP    C4012972   2.214   1.534  10.402 -0.6272  0.0676  0.0704
    2TTP    C4112973   2.225   1.458  10.533 -0.2647  0.5593 -0.5882
    2TTP    C4212974   2.298   1.537  10.644  0.0261 -0.0278 -0.1094
    3TTP     S112975   3.264   2.198   8.833 -0.0599  0.1001  0.0549
    3TTP     S512976   3.680   2.212   8.938  0.0457  0.4556 -0.4017
    3TTP     C112977   3.659   2.289   8.775 -0.1521  0.1363 -0.5287
    3TTP     C212978   3.529   2.289   8.732 -0.1964  0.0077 -0.3953
    3TTP     C312979   3.442   2.229   8.828 -0.0757  0.1567 -0.1874
    3TTP     C412980   3.285   2.121   8.996  0.1379  0.4194  0.1822
    3TTP    C1712981   3.414   2.121   9.038  0.1822  0.5480  0.0486
    3TTP    C1812982   3.502   2.181   8.943  0.0615  0.3991 -0.1590
    3TTP    C3212983   3.471   2.347   8.603 -0.4281  0.5297 -0.6654
    3TTP    C3312984   3.362   2.454   8.628 -0.1950 -0.2449 -0.3025
    3TTP    C3412985   3.284   2.507   8.502  0.2924  0.3823 -0.5103
    3TTP    C3512986   3.202   2.397   8.431  0.6073  0.3411  0.1333
    3TTP    C3612987   3.157   2.408   8.286 -0.3199  0.0582  0.1399
    3TTP    C3712988   3.284   2.406   8.196  0.1134  0.9943  0.5913
    3TTP    C3812989   3.261   2.399   8.048  1.0345 -0.2177 -0.0469
    3TTP    C3912990   3.373   2.401   7.953 -0.1943 -0.2434 -0.4402
    3TTP    C4012991   3.344   2.412   7.802  0.2857  0.0398 -0.3068
    3TTP    C4112992   3.236   2.516   7.757 -0.3671 -0.4545 -0.1381
    3TTP    C4212993   3.207   2.510   7.610  0.1471 -0.2282  0.1317
    4BIM     F112994   3.804   1.199  10.175  0.0694 -0.0641 -0.1283
    4BIM     F212995   3.660   1.184  10.405  0.2384  0.3498  0.0061
    4BIM     O112996   3.457   1.464   9.855  0.0131 -0.2381 -0.2121
    4BIM     N512997   3.206   1.351  10.509  0.4413  0.8211  0.1397
    4BIM     N612998   2.964   1.562  10.212  0.3633  0.6017  0.0472
    4BIM    C1912999   3.196   1.544   9.962  0.1547  0.0956 -0.1134
    4BIM    C2013000   3.289   1.478  10.033  0.1622  0.1232 -0.0976
    4BIM    C2113001   3.421   1.440   9.971  0.0865 -0.0560 -0.1511
    4BIM    C2213002   3.498   1.370  10.076  0.1168  0.0275 -0.1169
    4BIM    C2313003   3.626   1.316  10.065  0.0696 -0.0800 -0.1458
    4BIM    C2413004   3.678   1.254  10.178  0.1121  0.0325 -0.1031
    4BIM    C2513005   3.604   1.246  10.297  0.1992  0.2457 -0.0339
    4BIM    C2613006   3.476   1.300  10.308  0.2467  0.3540 -0.0048
    4BIM    C2713007   3.421   1.363  10.195  0.2047  0.2428 -0.0471
    4BIM    C2813008   3.290   1.429  10.173  0.2361  0.3101 -0.0325
    4BIM    C2913009   3.189   1.443  10.266  0.3180  0.5078  0.0296
    4BIM    C3013010   3.199   1.392  10.399  0.3856  0.6794  0.0899
    4BIM    C3113011   3.066   1.508  10.236  0.3424  0.5583  0.0389
    5BIM     F113012   4.471   2.178   8.752 -0.1961 -0.3806 -0.0553
    5BIM     F213013   4.489   2.387   8.577  0.0520 -0.1345  0.2613
    5BIM     O113014   3.936   2.156   8.830 -0.2565 -0.1084 -0.3843
    5BIM     N513015   4.133   2.670   8.383  0.3654  0.4133  0.4823
    5BIM     N613016   3.711   2.611   8.480  0.2682  0.5763  0.1612
    5BIM    C1913017   3.762   2.347   8.692 -0.0411  0.2234 -0.1986
    5BIM    C2013018   3.896   2.345   8.679 -0.0355  0.1453 -0.1285
    5BIM    C2113019   3.979   2.243   8.753 -0.1504 -0.0253 -0.2322
    5BIM    C2213020   4.119   2.268   8.717 -0.1118 -0.0731 -0.1173
    5BIM    C2313021   4.232   2.200   8.761 -0.1858 -0.2205 -0.1562
    5BIM    C2413022   4.355   2.242   8.712 -0.1282 -0.2379 -0.0262
    5BIM    C2513023   4.364   2.349   8.622 -0.0004 -0.1108  0.1371
    5BIM    C2613024   4.252   2.418   8.578  0.0741  0.0366  0.1764
    5BIM    C2713025   4.126   2.377   8.626  0.0175  0.0563  0.0467
    5BIM    C2813026   3.990   2.428   8.599  0.0693  0.1956  0.0465
    5BIM    C2913027   3.956   2.533   8.517  0.1913  0.3429  0.1822
    5BIM    C3013028   4.053   2.608   8.443  0.2865  0.3811  0.3464
    5BIM    C3113029   3.822   2.575   8.497  0.2329  0.4704  0.1695
    1BTD     S213030   6.881   4.683   3.770 -0.1871  0.0480 -0.1161
    1BTD     N113031   6.980   4.829   3.733 -0.2266  0.2060  0.3913
    1BTD     N213032   7.021   4.580   3.813 -0.1506 -0.0991 -0.5783
    1BTD     N313033   7.487   4.632   3.835 -0.1479 -0.1128 -0.6041
    1BTD     N413034   7.436   4.938   3.737 -0.2414  0.2630  0.5908
    1BTD     C513035   7.219   4.882   3.736 -0.2332  0.2313  0.4811
    1BTD     C613036   7.106   4.795   3.754 -0.2115  0.1445  0.1999
    1BTD     C713037   7.129   4.655   3.799 -0.1689 -0.0263 -0.3428
    1BTD     C813038   7.264   4.611   3.823 -0.1503 -0.1017 -0.5773
    1BTD    C1513039   7.371   4.700   3.804 -0.1729 -0.0119 -0.2873
    1BTD    C1613040   7.349   4.834   3.762 -0.2140  0.1524  0.2357
    1BTD    C4313041   7.557   4.972   3.820 -0.3614  0.3987  0.5905
    1BTD    C4413042   7.676   5.060   3.770 -0.2266 -0.5741  0.0283
    1BTD    C4513043   7.749   5.137   3.884 -0.1091  0.2178 -0.0394
    1BTD    C4613044   7.840   5.061   3.987  0.1917 -0.2227  0.2143
    1BTD    C4713045   7.760   4.996   3.653  0.3765 -0.0915 -0.0781
    1BTD    C4813046   7.866   5.075   3.573 -0.4880 -0.8422  0.4078
    1BTD    C4913047   7.968   4.980   3.507 -0.0916 -0.2667  0.1214
    1BTD    C5013048   8.078   4.944   3.602 -0.9495 -0.1925 -0.2584
    1BTD    C7513049   7.612   4.640   3.756 -0.0217 -0.8351 -0.0169
    1BTD    C7613050   7.754   4.595   3.788  0.8847  0.3652 -0.1515
    1BTD    C7713051   7.850   4.597   3.670 -0.4689 -0.7687  0.4977
    1BTD    C7813052   7.834   4.537   3.531 -0.7196  0.2371  0.2896
    1BTD    C7913053   7.795   4.667   3.916 -0.1031 -0.0003 -0.3843
    1BTD    C8013054   7.940   4.674   3.978 -0.1324 -0.6396 -0.6016
    1BTD    C8113055   8.021   4.552   3.974 -0.0075  0.3722 -0.0511
    1BTD    C8213056   8.149   4.570   4.056  0.2631  0.1907  0.1306
    2TTP     S113057   7.125   5.140   3.611  0.1078  0.3961 -0.4159
    2TTP     S513058   7.535   5.268   3.587  0.2859 -0.0519  0.1689
    2TTP     C113059   7.430   5.393   3.505  0.5303  0.1009  0.0861
    2TTP     C213060   7.298   5.361   3.508  0.4897  0.2482 -0.0995
    2TTP     C313061   7.274   5.236   3.574  0.2640  0.2458 -0.1827
    2TTP     C413062   7.230   5.016   3.693 -0.1366  0.2433 -0.3330
    2TTP    C1713063   7.363   5.048   3.690 -0.0961  0.0960 -0.1475
    2TTP    C1813064   7.386   5.172   3.623  0.1295  0.0985 -0.0641
    2TTP    C3213065   7.169   5.422   3.441  0.3568  0.3197  0.1063
    2TTP    C3313066   7.070   5.488   3.533  0.4025  0.2957  0.1920
    2TTP    C3413067   6.942   5.553   3.483  0.1090 -0.1908  0.1633
    2TTP    C3513068   6.950   5.680   3.401 -0.2331  0.2126  0.4057
    2TTP    C3613069   6.826   5.733   3.334 -0.0421 -0.8265 -0.1855
    2TTP    C3713070   6.724   5.792   3.429 -0.2725  0.3368  0.3901
    2TTP    C3813071   6.609   5.839   3.344 -0.0333 -0.3068 -0.5827
    2TTP    C3913072   6.492   5.875   3.431 -0.1469 -0.5105  0.2611
    2TTP    C4013073   6.380   5.908   3.340  0.3076  0.6380 -0.9574
    2TTP    C4113074   6.253   5.880   3.423 -0.1696  0.0829 -0.0947
    2TTP    C4213075   6.186   5.739   3.418  0.3708 -0.1635 -0.2613
    3TTP     S113076   7.266   4.328   3.924 -0.0881  0.1135 -0.0295
    3TTP     S513077   7.693   4.342   3.974 -0.0583  0.0352 -0.2608
    3TTP     C113078   7.634   4.178   4.025 -0.0784  0.0936 -0.0943
    3TTP     C213079   7.499   4.164   4.012 -0.0887  0.1212 -0.0130
    3TTP     C313080   7.437   4.282   3.962 -0.0812  0.0973 -0.0794
    3TTP     C413081   7.324   4.492   3.873 -0.0678  0.0551 -0.1961
    3TTP    C1713082   7.460   4.506   3.885 -0.0574  0.0274 -0.2774
    3TTP    C1813083   7.522   4.388   3.936 -0.0652  0.0514 -0.2110
    3TTP    C3213084   7.423   4.036   4.049  0.6023  0.0644 -0.2641
    3TTP    C3313085   7.400   3.949   3.921  0.4030  0.2116 -0.7998
    3TTP    C3413086   7.307   3.827   3.955 -0.1335  0.3648  0.2506
    3TTP    C3513087   7.160   3.862   3.955 -0.1348 -0.1193 -0.3351
    3TTP    C3613088   7.081   3.738   3.980  0.4086  0.0873 -0.3919
    3TTP    C3713089   6.933   3.754   3.978  0.0635 -0.5896 -0.0857
    3TTP    C3813090   6.851   3.624   3.973 -0.4584 -0.2870 -0.3291
    3TTP    C3913091   6.702   3.665   3.975  0.1784  0.4748 -0.5282
    3TTP    C4013092   6.645   3.694   3.836  0.1559 -0.1621 -0.0102
    3TTP    C4113093   6.502   3.749   3.826  0.3493  0.3698 -0.0913
    3TTP    C4213094   6.447   3.742   3.683  0.0797 -0.4577 -0.3006
    4BIM     F113095   8.160   5.747   3.454  0.0024 -0.2865 -0.2007
    4BIM     F213096   8.037   5.989   3.446  0.1183 -0.2220 -0.0287
    4BIM     O113097   7.733   5.414   3.466 -0.1571 -0.0886 -0.3560
    4BIM     N513098   7.554   6.100   3.445  0.1717  0.0120  0.1076
    4BIM     N613099   7.246   5.791   3.456  0.0240  0.1538 -0.0484
    4BIM    C1913100   7.463   5.527   3.463 -0.1027  0.0436 -0.2470
    4BIM    C2013101   7.576   5.602   3.461 -0.0671 -0.0087 -0.2146
    4BIM    C2113102   7.711   5.536   3.462 -0.0985 -0.0752 -0.2749
    4BIM    C2213103   7.810   5.645   3.458 -0.0465 -0.1206 -0.2186
    4BIM    C2313104   7.949   5.633   3.458 -0.0519 -0.1875 -0.2447
    4BIM    C2413105   8.023   5.751   3.454  0.0043 -0.2204 -0.1794
    4BIM    C2513106   7.959   5.876   3.450  0.0641 -0.1870 -0.0909
    4BIM    C2613107   7.820   5.888   3.451  0.0699 -0.1202 -0.0644
    4BIM    C2713108   7.744   5.770   3.455  0.0136 -0.0862 -0.1296
    4BIM    C2813109   7.597   5.748   3.456  0.0032 -0.0162 -0.1236
    4BIM    C2913110   7.500   5.846   3.453  0.0498  0.0325 -0.0480
    4BIM    C3013111   7.530   5.985   3.448  0.1167  0.0211  0.0373
    4BIM    C3113112   7.361   5.815   3.454  0.0352  0.0989 -0.0487
    5BIM     F113113   8.404   4.178   4.312 -0.0494 -0.0247 -0.1106
    5BIM     F213114   8.409   3.907   4.279 -0.0741 -0.0344 -0.0350
    5BIM     O113115   7.898   4.290   4.153 -0.0993 -0.0451  0.0350
    5BIM     N513116   8.057   3.599   4.120 -0.1457 -0.0626  0.1773
    5BIM     N613117   7.661   3.741   4.002 -0.1800 -0.0765  0.2757
    5BIM    C1913118   7.724   4.072   4.066 -0.1411 -0.0614  0.1589
    5BIM    C2013119   7.851   4.054   4.107 -0.1274 -0.0559  0.1192
    5BIM    C2113120   7.934   4.171   4.151 -0.1061 -0.0476  0.0563
    5BIM    C2213121   8.066   4.117   4.189 -0.0956 -0.0433  0.0255
    5BIM    C2313122   8.177   4.187   4.235 -0.0758 -0.0354 -0.0335
    5BIM    C2413123   8.291   4.114   4.265 -0.0690 -0.0326 -0.0526
    5BIM    C2513124   8.293   3.975   4.248 -0.0816 -0.0376 -0.0138
    5BIM    C2613125   8.183   3.904   4.202 -0.1016 -0.0453  0.0453
    5BIM    C2713126   8.067   3.976   4.171 -0.1087 -0.0484  0.0654
    5BIM    C2813127   7.935   3.932   4.120 -0.1289 -0.0564  0.1246
    5BIM    C2913128   7.897   3.803   4.091 -0.1456 -0.0628  0.1746
    5BIM    C3013129   7.985   3.691   4.107 -0.1456 -0.0626  0.1760
    5BIM    C3113130   7.767   3.770   4.043 -0.1644 -0.0703  0.2300
    1BTD     S213131   9.321   1.774   1.589 -0.0497  0.0044  0.1924
    1BTD     N113132   9.412   1.851   1.724  0.2904 -0.0488 -0.0035
    1BTD     N213133   9.330   1.608   1.659 -0.3557  0.0632  0.3741
    1BTD     N313134   9.512   1.411   2.044 -0.3655  0.0869  0.3910
    1BTD     N413135   9.613   1.710   2.124  0.4301 -0.0511 -0.0744
    1BTD     C513136   9.516   1.774   1.932  0.3541 -0.0484 -0.0349
    1BTD     C613137   9.443   1.755   1.810  0.1645 -0.0215  0.0727
    1BTD     C713138   9.397   1.619   1.773 -0.1967  0.0412  0.2841
    1BTD     C813139   9.426   1.509   1.861 -0.3510  0.0739  0.3774
    1BTD    C1513140   9.498   1.532   1.980 -0.1560  0.0457  0.2661
    1BTD    C1613141   9.542   1.663   2.015  0.1922 -0.0147  0.0624
    1BTD    C4313142   9.666   1.645   2.245 -0.0702  0.0797 -1.0504
    1BTD    C4413143   9.583   1.640   2.378 -0.2784 -0.0734 -0.4306
    1BTD    C4513144   9.436   1.588   2.351  0.1271  0.3835 -0.2284
    1BTD    C4613145   9.336   1.583   2.468  0.2606  0.0232 -0.0922
    1BTD    C4713146   9.657   1.581   2.501 -0.3348  0.1346 -0.4093
    1BTD    C4813147   9.665   1.427   2.505 -0.7591 -0.6152 -0.6728
    1BTD    C4913148   9.698   1.363   2.641  0.2785 -0.3285 -0.1224
    1BTD    C5013149   9.673   1.211   2.640  0.0215 -0.3214 -0.7939
    1BTD    C7513150   9.614   1.359   2.139  0.2969 -0.0857  0.4043
    1BTD    C7613151   9.741   1.296   2.081  0.2276  0.2918  0.0133
    1BTD    C7713152   9.832   1.243   2.196  0.2496  0.3769  0.3071
    1BTD    C7813153   9.782   1.111   2.266 -0.2588 -0.2820  0.7722
    1BTD    C7913154   9.817   1.403   1.996  0.2548 -0.1147  0.1820
    1BTD    C8013155   9.955   1.367   1.925 -0.1799  0.2584  0.0851
    1BTD    C8113156   9.959   1.236   1.837  0.1024  0.0174  0.0238
    1BTD    C8213157  10.087   1.202   1.768 -0.1385  0.3282  0.1443
    2TTP     S113158   9.593   2.071   1.965 -0.0154  0.3950  0.2971
    2TTP     S513159   9.813   1.964   2.319  0.3709 -0.1296 -0.0986
    2TTP     C113160   9.829   2.143   2.293  0.3087 -0.0841  0.1719
    2TTP     C213161   9.762   2.187   2.182  0.1857  0.0806  0.3100
    2TTP     C313162   9.695   2.080   2.114  0.1362  0.1767  0.2072
    2TTP     C413163   9.577   1.892   1.991  0.0468  0.3494  0.0266
    2TTP    C1713164   9.644   1.848   2.102  0.1697  0.1847 -0.1115
    2TTP    C1813165   9.710   1.955   2.170  0.2193  0.0886 -0.0087
    2TTP    C3213166   9.762   2.330   2.116 -0.1885  0.0481  0.2132
    2TTP    C3313167   9.839   2.345   1.985 -0.3971  1.1323 -0.5548
    2TTP    C3413168   9.850   2.488   1.948 -0.1321 -0.1857 -0.1333
    2TTP    C3513169   9.723   2.576   1.934  0.1239 -0.1874  0.5033
    2TTP    C3613170   9.618   2.531   1.828  0.0238  0.6837  0.5028
    2TTP    C3713171   9.653   2.536   1.682 -0.4440  0.0253 -0.0151
    2TTP    C3813172   9.552   2.469   1.592 -0.1705 -0.0497  0.2096
    2TTP    C3913173   9.510   2.326   1.613  0.2094  0.4178 -0.0275
    2TTP    C4013174   9.368   2.301   1.550 -0.4125  0.3169 -0.0925
    2TTP    C4113175   9.312   2.172   1.607  0.1656 -0.1199 -0.1603
    2TTP    C4213176   9.179   2.134   1.538 -0.6312  0.4528 -0.1753
    3TTP     S113177   9.290   1.253   1.762  0.2824 -0.0629 -0.0864
    3TTP     S513178   9.436   1.048   2.111 -0.0563 -0.0517  0.0622
    3TTP     C113179   9.326   0.936   2.019  0.0001 -0.0407 -0.0189
    3TTP     C213180   9.275   0.992   1.906  0.1082 -0.0435 -0.0696
    3TTP     C313181   9.320   1.127   1.888  0.1502 -0.0544 -0.0462
    3TTP     C413182   9.400   1.366   1.854  0.2258 -0.0739 -0.0052
    3TTP    C1713183   9.451   1.309   1.968  0.1176 -0.0710  0.0454
    3TTP    C1813184   9.406   1.175   1.986  0.0758 -0.0601  0.0220
    3TTP    C3213185   9.161   0.947   1.816 -0.0783 -0.4636  0.2130
    3TTP    C3313186   9.028   1.025   1.834 -0.2025  0.3352  0.3768
    3TTP    C3413187   8.943   1.022   1.967 -0.8046  0.1914  0.4061
    3TTP    C3513188   8.886   0.900   2.036  0.2034  0.5683  0.0011
    3TTP    C3613189   8.772   0.827   1.966  0.3261 -0.2339 -0.0477
    3TTP    C3713190   8.636   0.896   1.946 -0.1743  0.0276 -0.2267
    3TTP    C3813191   8.540   0.813   1.868  0.0827 -0.0322 -0.2842
    3TTP    C3913192   8.396   0.857   1.880  0.7430 -0.2058 -0.3508
    3TTP    C4013193   8.302   0.747   1.828  0.5073 -0.2009 -0.1858
    3TTP    C4113194   8.154   0.780   1.837  0.4951 -0.3968  0.4901
    3TTP    C4213195   8.062   0.679   1.766 -0.1934 -0.6181 -0.0451
    4BIM     F113196  10.030   2.128   3.088 -0.0180  0.3622  0.1633
    4BIM     F213197  10.196   2.339   3.042  0.5508 -0.1734 -0.2749
    4BIM     O113198   9.811   2.062   2.597 -0.6722  0.3349  0.4573
    4BIM     N513199  10.278   2.595   2.626  0.9023 -0.9631 -0.6952
    4BIM     N613200  10.073   2.500   2.252  0.2764 -0.8765 -0.3772
    4BIM    C1913201   9.891   2.239   2.379 -0.3612 -0.1866  0.1432
    4BIM    C2013202   9.940   2.248   2.505 -0.2188 -0.1588  0.0863
    4BIM    C2113203   9.894   2.153   2.611 -0.3943  0.1162  0.2573
    4BIM    C2213204   9.966   2.190   2.734 -0.1718  0.0736  0.1403
    4BIM    C2313205   9.956   2.130   2.860 -0.2271  0.2689  0.2297
    4BIM    C2413206  10.035   2.182   2.961  0.0204  0.1799  0.0861
    4BIM    C2513207  10.120   2.291   2.938  0.3132 -0.0962 -0.1397
    4BIM    C2613208  10.130   2.351   2.813  0.3700 -0.2921 -0.2299
    4BIM    C2713209  10.052   2.299   2.709  0.1224 -0.2060 -0.0871
    4BIM    C2813210  10.039   2.339   2.566  0.1051 -0.3598 -0.1293
    4BIM    C2913211  10.106   2.442   2.504  0.3438 -0.6356 -0.3298
    4BIM    C3013212  10.201   2.525   2.571  0.6500 -0.8147 -0.5301
    4BIM    C3113213  10.088   2.473   2.366  0.3053 -0.7665 -0.3547
    5BIM     F113214   9.785   0.395   2.429  0.2825  0.2130 -0.1572
    5BIM     F213215   9.593   0.206   2.386  0.1831  0.2402  0.1536
    5BIM     O113216   9.568   0.822   2.177  0.2375  0.0679 -0.3638
    5BIM     N513217   9.164   0.240   2.142  0.0079  0.1760  0.4534
    5BIM     N613218   9.033   0.611   1.954 -0.0072  0.0572  0.2293
    5BIM    C1913219   9.308   0.793   2.045  0.1262  0.0424 -0.1402
    5BIM    C2013220   9.370   0.693   2.110  0.1416  0.0778 -0.1003
    5BIM    C2113221   9.504   0.716   2.175  0.1996  0.0888 -0.2220
    5BIM    C2213222   9.542   0.587   2.237  0.2017  0.1290 -0.1395
    5BIM    C2313223   9.658   0.559   2.309  0.2472  0.1517 -0.2034
    5BIM    C2413224   9.673   0.430   2.358  0.2397  0.1890 -0.1019
    5BIM    C2513225   9.574   0.333   2.335  0.1885  0.2030  0.0582
    5BIM    C2613226   9.458   0.361   2.263  0.1431  0.1805  0.1226
    5BIM    C2713227   9.441   0.491   2.213  0.1502  0.1427  0.0218
    5BIM    C2813228   9.332   0.552   2.134  0.1109  0.1118  0.0522
    5BIM    C2913229   9.217   0.489   2.092  0.0563  0.1142  0.1947
    5BIM    C3013230   9.188   0.352   2.120  0.0300  0.1482  0.3364
    5BIM    C3113231   9.116   0.557   2.016  0.0217  0.0828  0.2129
    1BTD     S213232   6.379   7.421   0.783 -0.0155  0.0411 -0.1400
    1BTD     N113233   6.350   7.244   0.796 -0.1067  0.0691  0.0297
    1BTD     N213234   6.555   7.410   0.817 -0.0141 -0.0212 -0.1690
    1BTD     N313235   6.861   7.067   0.912 -0.1755 -0.0976  0.0781
    1BTD     N413236   6.608   6.863   0.887 -0.2899  0.0138  0.3229
    1BTD     C513237   6.488   7.048   0.844 -0.2010  0.0390  0.1798
    1BTD     C613238   6.467   7.189   0.825 -0.1301  0.0324  0.0546
    1BTD     C713239   6.582   7.281   0.836 -0.0782 -0.0181 -0.0566
    1BTD     C813240   6.712   7.228   0.866 -0.0995 -0.0597 -0.0371
    1BTD    C1513241   6.728   7.090   0.884 -0.1696 -0.0517  0.0872
    1BTD    C1613242   6.617   7.000   0.873 -0.2196 -0.0031  0.1944
    1BTD    C4313243   6.716   6.764   0.858 -0.3625  0.3985  0.2594
    1BTD    C4413244   6.717   6.623   0.917 -0.4177  0.6562  0.6869
    1BTD    C4513245   6.820   6.532   0.852 -0.0525 -0.0564  0.5520
    1BTD    C4613246   6.973   6.573   0.861  0.3674  0.4450  0.1758
    1BTD    C4713247   6.716   6.625   1.074 -0.4114 -0.3753 -0.4064
    1BTD    C4813248   6.690   6.493   1.146 -0.4504 -0.5752 -0.1798
    1BTD    C4913249   6.688   6.504   1.297 -0.3500 -0.3833  0.7028
    1BTD    C5013250   6.664   6.362   1.356  0.4488 -0.5277  0.5961
    1BTD    C7513251   6.929   6.953   0.979  0.4996 -0.0632 -0.5379
    1BTD    C7613252   6.957   6.959   1.131 -0.4657 -0.1225 -0.4331
    1BTD    C7713253   7.026   6.831   1.184 -0.3749  0.1775  0.3534
    1BTD    C7813254   7.158   6.786   1.124 -0.3401 -0.2562 -0.0924
    1BTD    C7913255   6.850   7.011   1.233  0.8410 -1.0780  0.2507
    1BTD    C8013256   6.891   7.051   1.377 -0.7650 -0.2238  0.2243
    1BTD    C8113257   6.986   7.173   1.378  0.4553  0.1386 -0.0066
    1BTD    C8213258   7.017   7.231   1.512 -0.1746 -0.7331  0.2361
    2TTP     S113259   6.222   6.907   0.827 -0.0617  0.1063 -0.1907
    2TTP     S513260   6.414   6.539   0.940 -0.0957  0.2129  0.2198
    2TTP     C113261   6.235   6.509   0.923 -0.0909  0.1971  0.1977
    2TTP     C213262   6.166   6.620   0.887 -0.0801  0.1631  0.0696
    2TTP     C313263   6.251   6.734   0.872 -0.0753  0.1485 -0.0157
    2TTP     C413264   6.401   6.938   0.845 -0.0668  0.1222 -0.1687
    2TTP    C1713265   6.471   6.826   0.881 -0.0776  0.1561 -0.0406
    2TTP    C1813266   6.386   6.712   0.896 -0.0821  0.1708  0.0447
    2TTP    C3213267   6.021   6.631   0.861 -0.2598  0.6364 -0.5213
    2TTP    C3313268   5.949   6.687   0.981  0.4104 -0.9920  0.3006
    2TTP    C3413269   5.807   6.718   0.942  0.2310  0.0812 -0.0018
    2TTP    C3513270   5.789   6.838   0.846  0.4866 -0.1520 -0.8242
    2TTP    C3613271   5.800   6.981   0.908 -0.3580 -0.1417  0.2500
    2TTP    C3713272   5.736   7.096   0.832  0.1909 -0.5171 -0.0380
    2TTP    C3813273   5.764   7.241   0.864 -0.2213  0.6246  0.1930
    2TTP    C3913274   5.708   7.357   0.797  0.2194 -0.5928  0.0013
    2TTP    C4013275   5.551   7.356   0.773  0.1786  0.2157  0.0743
    2TTP    C4113276   5.499   7.470   0.681 -0.0111  0.4556 -0.0065
    2TTP    C4213277   5.348   7.496   0.683 -0.5367  0.2149  0.4874
    3TTP     S113278   6.906   7.455   0.905 -0.2528 -0.0537  0.2982
    3TTP     S513279   7.204   7.178   1.046  0.1696 -0.1273 -0.7196
    3TTP     C113280   7.264   7.348   1.075  0.1420 -0.1409 -0.5792
    3TTP     C213281   7.176   7.443   1.033  0.0100 -0.1187 -0.2566
    3TTP     C313282   7.057   7.386   0.977 -0.0741 -0.0906 -0.1087
    3TTP     C413283   6.846   7.286   0.877 -0.2252 -0.0401  0.1578
    3TTP    C1713284   6.934   7.191   0.919 -0.0929 -0.0622 -0.1648
    3TTP    C1813285   7.053   7.248   0.975 -0.0088 -0.0905 -0.3127
    3TTP    C3213286   7.205   7.594   1.030  0.7387 -0.5297 -0.5056
    3TTP    C3313287   7.104   7.690   1.101  0.2292 -0.3307 -0.2349
    3TTP    C3413288   7.134   7.842   1.074 -0.1005  0.1800 -0.0781
    3TTP    C3513289   7.035   7.934   1.144  0.4351 -0.3240 -0.1882
    3TTP    C3613290   7.073   8.081   1.129  0.4927 -0.4993 -0.4710
    3TTP    C3713291   7.210   8.133   1.179  0.3579 -0.4874 -0.0799
    3TTP    C3813292   7.248   8.279   1.143 -0.8291 -0.2273  0.3245
    3TTP    C3913293   7.382   8.319   1.196 -0.2133 -0.2379  0.0491
    3TTP    C4013294   7.408   8.462   1.176  0.2985 -0.2014  0.1180
    3TTP    C4113295   7.554   8.504   1.181  0.0224  0.3595 -0.5214
    3TTP    C4213296   7.573   8.652   1.156 -0.2851 -0.0390  0.4332
    4BIM     F113297   6.443   5.822   1.337  0.2558 -0.1844 -0.3323
    4BIM     F213298   6.210   5.708   1.255  0.1403 -0.1298 -0.0833
    4BIM     O113299   6.405   6.311   1.109  0.0530 -0.1208 -0.1619
    4BIM     N513300   5.848   5.894   0.973 -0.1705 -0.0061  0.3960
    4BIM     N613301   5.865   6.299   0.812 -0.3058  0.0327  0.4790
    4BIM    C1913302   6.169   6.377   0.949 -0.1296 -0.0461  0.1365
    4BIM    C2013303   6.187   6.258   1.010 -0.0739 -0.0644  0.0839
    4BIM    C2113304   6.312   6.232   1.090  0.0191 -0.1026 -0.0708
    4BIM    C2213305   6.300   6.094   1.142  0.0609 -0.1141 -0.0919
    4BIM    C2313306   6.391   6.025   1.222  0.1469 -0.1475 -0.2178
    4BIM    C2413307   6.358   5.896   1.258  0.1717 -0.1520 -0.2117
    4BIM    C2513308   6.238   5.837   1.216  0.1121 -0.1239 -0.0833
    4BIM    C2613309   6.147   5.905   1.136  0.0261 -0.0905  0.0426
    4BIM    C2713310   6.178   6.037   1.098 -0.0002 -0.0854  0.0386
    4BIM    C2813311   6.104   6.135   1.015 -0.0855 -0.0536  0.1518
    4BIM    C2913312   5.982   6.116   0.955 -0.1608 -0.0209  0.2925
    4BIM    C3013313   5.909   5.994   0.965 -0.1659 -0.0128  0.3489
    4BIM    C3113314   5.918   6.217   0.877 -0.2401  0.0085  0.3943
    5BIM     F113315   7.792   7.005   1.605 -0.3479  0.2396  0.3605
    5BIM     F213316   7.954   7.221   1.574  0.0000 -0.0842 -0.1031
    5BIM     O113317   7.378   7.140   1.283 -0.2714  0.3544  0.3104
    5BIM     N513318   7.893   7.628   1.300  0.5547 -0.4678 -0.8051
    5BIM     N613319   7.537   7.691   1.055  0.5445 -0.3128 -0.7508
    5BIM    C1913320   7.386   7.395   1.140  0.0884  0.0860 -0.1502
    5BIM    C2013321   7.484   7.352   1.222  0.0553  0.0697 -0.1195
    5BIM    C2113322   7.472   7.220   1.292 -0.1332  0.2135  0.1229
    5BIM    C2213323   7.595   7.205   1.373 -0.1208  0.1537  0.0930
    5BIM    C2313324   7.630   7.099   1.455 -0.2608  0.2425  0.2678
    5BIM    C2413325   7.751   7.107   1.522 -0.2161  0.1592  0.1967
    5BIM    C2513326   7.835   7.218   1.506 -0.0368 -0.0074 -0.0422
    5BIM    C2613327   7.801   7.325   1.424  0.1035 -0.0969 -0.2176
    5BIM    C2713328   7.678   7.318   1.355  0.0610 -0.0147 -0.1490
    5BIM    C2813329   7.613   7.413   1.262  0.1764 -0.0728 -0.2891
    5BIM    C2913330   7.663   7.535   1.221  0.3601 -0.2292 -0.5299
    5BIM    C3013331   7.789   7.586   1.265  0.4665 -0.3600 -0.6803
    5BIM    C3113332   7.593   7.620   1.130  0.4605 -0.2743 -0.6500
    1BTD     S213333   7.574   1.285   5.819 -0.0345  0.1592 -0.1054
    1BTD     N113334   7.668   1.429   5.875 -0.0683  0.1992 -0.1509
    1BTD     N213335   7.440   1.382   5.750 -0.0746  0.1041 -0.1045
    1BTD     N313336   7.334   1.838   5.709 -0.2177  0.0640 -0.1853
    1BTD     N413337   7.616   1.895   5.863 -0.2099  0.1811 -0.2421
    1BTD     C513338   7.638   1.671   5.867 -0.1425  0.1883 -0.1978
    1BTD     C613339   7.598   1.536   5.841 -0.1060  0.1708 -0.1625
    1BTD     C713340   7.470   1.510   5.771 -0.1093  0.1177 -0.1366
    1BTD     C813341   7.388   1.621   5.731 -0.1491  0.0846 -0.1473
    1BTD    C1513342   7.431   1.752   5.758 -0.1840  0.1033 -0.1822
    1BTD    C1613343   7.554   1.777   5.825 -0.1807  0.1546 -0.2070
    1BTD    C4313344   7.618   2.008   5.774 -0.2651 -0.1679  0.0529
    1BTD    C4413345   7.668   2.144   5.804  0.2094 -0.2868  0.0213
    1BTD    C4513346   7.711   2.229   5.681 -0.1913  0.1256  0.0696
    1BTD    C4613347   7.608   2.300   5.594 -0.6925 -0.8056  0.0850
    1BTD    C4713348   7.574   2.215   5.911  0.1671 -0.4792  0.0441
    1BTD    C4813349   7.613   2.358   5.963  0.9210 -0.0832 -0.0912
    1BTD    C4913350   7.534   2.413   6.087 -0.4205 -0.6626 -0.2453
    1BTD    C5013351   7.569   2.363   6.223  0.1446  0.5895 -0.3038
    1BTD    C7513352   7.288   1.957   5.781  0.6643 -0.2989 -0.4340
    1BTD    C7613353   7.195   2.067   5.722  0.7320  0.5952 -0.2230
    1BTD    C7713354   7.119   2.142   5.835 -0.5145 -0.0729 -0.0933
    1BTD    C7813355   7.199   2.223   5.931 -0.1153 -0.6509 -0.3099
    1BTD    C7913356   7.279   2.157   5.633 -0.2728 -0.0467  0.7619
    1BTD    C8013357   7.207   2.239   5.523  0.2822  0.2222  0.3788
    1BTD    C8113358   7.148   2.367   5.573  0.7246 -0.5012 -0.4528
    1BTD    C8213359   7.066   2.446   5.467 -0.7185  0.2323 -0.1808
    2TTP     S113360   7.876   1.668   6.053 -0.0601 -0.0086 -0.0136
    2TTP     S513361   7.835   2.094   6.095 -0.5705 -0.0439 -0.1416
    2TTP     C113362   7.954   2.035   6.220 -0.6982  0.1000  0.0499
    2TTP     C213363   7.974   1.900   6.214 -0.5480  0.1194  0.1009
    2TTP     C313364   7.896   1.838   6.111 -0.3269  0.0213 -0.0098
    2TTP     C413365   7.757   1.727   5.929  0.0675 -0.1526 -0.2052
    2TTP    C1713366   7.738   1.862   5.935 -0.0825 -0.1719 -0.2560
    2TTP    C1813367   7.816   1.924   6.037 -0.3037 -0.0739 -0.1454
    2TTP    C3213368   8.084   1.825   6.291 -0.1838 -0.2043 -0.2388
    2TTP    C3313369   8.159   1.707   6.233  0.4311  0.2161  0.6401
    2TTP    C3413370   8.251   1.633   6.334 -0.1408 -0.0325  0.0283
    2TTP    C3513371   8.367   1.555   6.274  0.5344  0.6679 -0.1001
    2TTP    C3613372   8.327   1.423   6.197  0.1878  0.1599 -0.3832
    2TTP    C3713373   8.444   1.350   6.134  0.4594 -0.0520 -0.0288
    2TTP    C3813374   8.402   1.235   6.045  0.1712 -0.8029  0.5153
    2TTP    C3913375   8.522   1.151   6.005  0.2510  0.1107  0.4271
    2TTP    C4013376   8.476   1.014   5.953 -0.3291  0.1119 -0.0180
    2TTP    C4113377   8.595   0.926   5.941 -0.6320  0.5346  0.3678
    2TTP    C4213378   8.550   0.785   5.930  0.1914 -0.0016  0.1226
    3TTP     S113379   7.144   1.522   5.594 -0.2213 -0.0006 -0.0982
    3TTP     S513380   7.049   1.920   5.463  0.0539 -0.0859 -0.5629
    3TTP     C113381   6.931   1.804   5.387 -0.0910 -0.0816 -0.3449
    3TTP     C213382   6.953   1.674   5.423 -0.1844 -0.0550 -0.1884
    3TTP     C313383   7.065   1.662   5.512 -0.1451 -0.0371 -0.2352
    3TTP     C413384   7.263   1.637   5.669 -0.0764 -0.0049 -0.3161
    3TTP    C1713385   7.240   1.767   5.633  0.0171 -0.0315 -0.4728
    3TTP    C1813386   7.129   1.780   5.545 -0.0223 -0.0494 -0.4259
    3TTP    C3213387   6.865   1.555   5.397  0.2352  0.5874  0.3156
    3TTP    C3313388   6.763   1.537   5.511 -0.7543  0.6448 -0.3072
    3TTP    C3413389   6.685   1.403   5.502 -0.5622 -0.2978 -0.1205
    3TTP    C3513390   6.779   1.282   5.516 -0.4574 -0.0548 -0.1103
    3TTP    C3613391   6.710   1.146   5.530  0.3804  0.5003 -0.1666
    3TTP    C3713392   6.816   1.041   5.566  0.3006 -0.3157 -0.4762
    3TTP    C3813393   6.779   0.892   5.531  0.0521  0.0230  0.2970
    3TTP    C3913394   6.871   0.788   5.581 -0.7027  0.3130  0.2124
    3TTP    C4013395   6.892   0.753   5.729 -0.5061 -0.2381  0.4020
    3TTP    C4113396   6.986   0.646   5.772 -0.5629  0.0697  0.8873
    3TTP    C4213397   6.987   0.654   5.921 -0.9074 -0.3784  0.2914
    4BIM     F113398   8.129   2.834   6.253  0.6897 -0.1420  0.0494
    4BIM     F213399   8.232   2.794   6.502 -0.0315 -0.1775  0.3475
    4BIM     O113400   7.989   2.329   6.118  0.6700 -0.0580 -0.2452
    4BIM     N513401   8.280   2.377   6.763 -1.0822 -0.1686  0.5659
    4BIM     N613402   8.150   1.990   6.607 -0.9522 -0.0958  0.2757
    4BIM    C1913403   8.038   2.111   6.308 -0.0262 -0.0621 -0.0649
    4BIM    C2013404   8.069   2.240   6.332  0.0072 -0.0818 -0.0026
    4BIM    C2113405   8.041   2.346   6.229  0.3743 -0.0782 -0.1028
    4BIM    C2213406   8.086   2.474   6.288  0.3128 -0.1034  0.0013
    4BIM    C2313407   8.081   2.600   6.230  0.5717 -0.1096 -0.0384
    4BIM    C2413408   8.131   2.706   6.304  0.4479 -0.1346  0.0804
    4BIM    C2513409   8.184   2.685   6.433  0.0769 -0.1529  0.2338
    4BIM    C2613410   8.189   2.559   6.491 -0.1836 -0.1469  0.2744
    4BIM    C2713411   8.140   2.451   6.417 -0.0637 -0.1215  0.1556
    4BIM    C2813412   8.131   2.306   6.449 -0.2663 -0.1090  0.1591
    4BIM    C2913413   8.172   2.246   6.566 -0.6361 -0.1205  0.2882
    4BIM    C3013414   8.231   2.318   6.674 -0.8802 -0.1469  0.4405
    4BIM    C3113415   8.160   2.105   6.588 -0.8080 -0.1069  0.2805
    5BIM     F113416   6.653   2.498   5.040 -0.4392 -0.0541  0.0068
    5BIM     F213417   6.457   2.352   4.921  0.1291 -0.3392 -0.5866
    5BIM     O113418   6.917   2.112   5.313 -0.3254  0.2303  0.3004
    5BIM     N513419   6.364   1.867   4.943  1.0275 -0.5465 -1.2304
    5BIM     N613420   6.610   1.594   5.180  1.0018 -0.2667 -0.8813
    5BIM    C1913421   6.824   1.835   5.296  0.2580  0.0589 -0.1622
    5BIM    C2013422   6.765   1.938   5.232  0.2071 -0.0015 -0.2130
    5BIM    C2113423   6.819   2.078   5.246 -0.0989  0.0939  0.0364
    5BIM    C2213424   6.732   2.165   5.164 -0.0759 -0.0063 -0.0948
    5BIM    C2313425   6.742   2.302   5.145 -0.3018  0.0311  0.0495
    5BIM    C2413426   6.649   2.363   5.063 -0.2265 -0.0832 -0.1216
    5BIM    C2513427   6.548   2.287   5.001  0.0666 -0.2300 -0.4272
    5BIM    C2613428   6.537   2.150   5.019  0.2933 -0.2682 -0.5726
    5BIM    C2713429   6.631   2.087   5.102  0.2211 -0.1540 -0.4032
    5BIM    C2813430   6.647   1.945   5.142  0.4066 -0.1568 -0.4879
    5BIM    C2913431   6.568   1.839   5.102  0.7062 -0.2799 -0.7677
    5BIM    C3013432   6.456   1.855   5.015  0.8818 -0.4261 -1.0211
    5BIM    C3113433   6.592   1.705   5.145  0.8670 -0.2720 -0.8285
    1BTD     S213434   4.952   5.087   5.153  0.1661  0.0339  0.3117
    1BTD     N113435   5.040   5.227   5.082  0.1397  0.0024  0.2167
    1BTD     N213436   4.792   5.135   5.086  0.1513 -0.0242  0.3061
    1BTD     N313437   4.624   5.484   4.822  0.0731 -0.1992  0.1236
    1BTD     N413438   4.929   5.599   4.816  0.0587 -0.1665  0.0136
    1BTD     C513439   4.978   5.420   4.943  0.0975 -0.0863  0.1121
    1BTD     C613440   4.950   5.299   5.015  0.1220 -0.0472  0.1875
    1BTD     C713441   4.811   5.247   5.018  0.1285 -0.0621  0.2373
    1BTD     C813442   4.708   5.319   4.948  0.1103 -0.1153  0.2095
    1BTD    C1513443   4.740   5.437   4.879  0.0864 -0.1521  0.1352
    1BTD    C1613444   4.874   5.487   4.876  0.0803 -0.1377  0.0872
    1BTD    C4313445   4.868   5.661   4.695  0.2910  0.2228 -0.4635
    1BTD    C4413446   4.890   5.805   4.649 -0.2154  0.8894  0.6174
    1BTD    C4513447   4.810   5.842   4.521 -0.6037 -0.1304 -0.0126
    1BTD    C4613448   4.827   5.747   4.401 -0.7332  0.5968  0.1910
    1BTD    C4713449   4.866   5.905   4.764  0.6785 -0.7639  0.5757
    1BTD    C4813450   4.893   6.051   4.741  0.0898  0.1138  0.9416
    1BTD    C4913451   4.842   6.149   4.841 -0.0409 -0.4627 -0.1782
    1BTD    C5013452   4.874   6.289   4.794 -0.0087  0.3082 -0.3103
    1BTD    C7513453   4.585   5.626   4.810  0.2299  0.5404 -0.2334
    1BTD    C7613454   4.488   5.674   4.698 -0.3003  0.6429 -0.0196
    1BTD    C7713455   4.530   5.630   4.561  0.6428  0.3192  0.7271
    1BTD    C7813456   4.426   5.653   4.441 -0.2849 -0.0475 -0.3227
    1BTD    C7913457   4.460   5.827   4.700 -0.5454 -0.0025  0.0729
    1BTD    C8013458   4.386   5.891   4.819  0.2342  0.4081 -0.5625
    1BTD    C8113459   4.251   5.818   4.854  0.0399 -0.0658 -0.5707
    1BTD    C8213460   4.165   5.902   4.956 -0.3669 -0.0657  0.4838
    2TTP     S113461   5.275   5.487   4.969 -0.1081 -0.2984 -0.0847
    2TTP     S513462   5.204   5.857   4.762  0.3442 -0.2233 -0.1070
    2TTP     C113463   5.379   5.850   4.810  0.3106 -0.3838 -0.0071
    2TTP     C213464   5.411   5.735   4.877  0.1692 -0.4165  0.0056
    2TTP     C313465   5.299   5.649   4.892  0.0818 -0.3158 -0.0631
    2TTP     C413466   5.099   5.493   4.920 -0.0749 -0.1379 -0.1845
    2TTP    C1713467   5.067   5.608   4.854  0.0668 -0.1051 -0.1974
    2TTP    C1813468   5.180   5.695   4.838  0.1540 -0.2056 -0.1286
    2TTP    C3213469   5.557   5.694   4.917  0.3641 -0.1589  0.3872
    2TTP    C3313470   5.599   5.563   4.997  0.3178 -0.4700  0.0440
    2TTP    C3413471   5.750   5.528   5.010 -0.4327  0.0636 -0.0068
    2TTP    C3513472   5.826   5.648   5.061  0.7202 -0.3801  0.1535
    2TTP    C3613473   5.955   5.605   5.113 -0.4328 -0.0337 -0.1623
    2TTP    C3713474   6.050   5.719   5.157 -0.3781  0.1017 -0.6204
    2TTP    C3813475   6.080   5.818   5.050  0.4068 -0.4005 -0.2498
    2TTP    C3913476   6.194   5.925   5.074  0.7942 -0.0171 -0.5816
    2TTP    C4013477   6.158   6.028   5.190 -0.1745  0.6145  0.4909
    2TTP    C4113478   6.276   6.119   5.223 -0.1926 -0.3423 -0.0862
    2TTP    C4213479   6.227   6.220   5.325  0.5980 -0.2717  0.0140
    3TTP     S113480   4.458   5.149   4.946  0.0678  0.2675  0.1516
    3TTP     S513481   4.255   5.455   4.722  0.0354 -0.0271 -0.2241
    3TTP     C113482   4.141   5.315   4.746  0.0258  0.0194  0.0118
    3TTP     C213483   4.197   5.212   4.816  0.0350  0.1130  0.1416
    3TTP     C313484   4.332   5.240   4.854  0.0504  0.1516  0.0595
    3TTP     C413485   4.572   5.289   4.923  0.0774  0.2211 -0.0843
    3TTP    C1713486   4.516   5.392   4.852  0.0680  0.1274 -0.2143
    3TTP    C1813487   4.381   5.363   4.814  0.0529  0.0888 -0.1322
    3TTP    C3213488   4.119   5.090   4.868  0.4149  1.0203  0.6098
    3TTP    C3313489   4.110   5.051   5.017  0.0367  0.4824  0.2694
    3TTP    C3413490   3.980   4.990   5.060  0.6785 -0.4784 -0.5666
    3TTP    C3513491   3.850   5.048   5.000  0.2550 -0.0758 -0.3003
    3TTP    C3613492   3.727   4.959   5.006  0.1938  0.2168 -0.7238
    3TTP    C3713493   3.598   5.026   4.970  0.5542  0.4895 -0.0820
    3TTP    C3813494   3.513   4.956   4.865  0.1710  0.1402  0.0726
    3TTP    C3913495   3.385   5.023   4.829  0.1615 -0.0549 -0.2696
    3TTP    C4013496   3.304   4.936   4.726 -0.2059 -0.4151 -0.3862
    3TTP    C4113497   3.163   4.996   4.730 -0.1660  0.8556  0.0269
    3TTP    C4213498   3.053   4.891   4.708  0.5245 -0.3288 -0.2219
    4BIM     F113499   5.366   6.590   4.448 -0.3022 -0.0548  0.0060
    4BIM     F213500   5.633   6.610   4.492 -0.2329 -0.0283 -0.4197
    4BIM     O113501   5.263   6.103   4.661  0.0453  0.0253  0.3583
    4BIM     N513502   5.946   6.292   4.708  0.1143  0.0670 -0.7806
    4BIM     N613503   5.812   5.907   4.865  0.3721  0.1242 -0.4194
    4BIM    C1913504   5.483   5.949   4.779  0.2350  0.0790  0.0769
    4BIM    C2013505   5.498   6.071   4.724  0.1448  0.0578  0.0048
    4BIM    C2113506   5.380   6.144   4.665  0.0507  0.0310  0.1595
    4BIM    C2213507   5.432   6.272   4.614 -0.0331  0.0125  0.0286
    4BIM    C2313508   5.360   6.373   4.551 -0.1351 -0.0145  0.1005
    4BIM    C2413509   5.430   6.486   4.511 -0.2005 -0.0279 -0.0541
    4BIM    C2513510   5.568   6.496   4.534 -0.1647 -0.0143 -0.2734
    4BIM    C2613511   5.641   6.395   4.597 -0.0631  0.0129 -0.3462
    4BIM    C2713512   5.571   6.281   4.638  0.0043  0.0266 -0.1922
    4BIM    C2813513   5.617   6.157   4.706  0.1150  0.0552 -0.2154
    4BIM    C2913514   5.746   6.129   4.746  0.1781  0.0750 -0.4050
    4BIM    C3013515   5.855   6.219   4.724  0.1428  0.0705 -0.6109
    4BIM    C3113516   5.781   6.007   4.811  0.2844  0.1019 -0.4119
    5BIM     F113517   3.556   5.858   4.557 -0.1819  0.1043  0.2929
    5BIM     F213518   3.388   5.650   4.503 -0.0560  0.1060 -0.1104
    5BIM     O113519   4.005   5.593   4.703 -0.2100  0.0967  0.3655
    5BIM     N513520   3.468   5.163   4.529  0.1052  0.1029 -0.6384
    5BIM     N613521   3.852   4.997   4.654  0.0578  0.0966 -0.5002
    5BIM    C1913522   4.004   5.300   4.703 -0.0995  0.0955  0.0061
    5BIM    C2013523   3.898   5.375   4.668 -0.0976  0.0975  0.0035
    5BIM    C2113524   3.906   5.525   4.671 -0.1563  0.0979  0.1947
    5BIM    C2213525   3.774   5.575   4.628 -0.1373  0.1000  0.1385
    5BIM    C2313526   3.733   5.707   4.615 -0.1756  0.1011  0.2646
    5BIM    C2413527   3.603   5.730   4.573 -0.1469  0.1033  0.1768
    5BIM    C2513528   3.517   5.622   4.545 -0.0820  0.1038 -0.0309
    5BIM    C2613529   3.557   5.490   4.558 -0.0436  0.1029 -0.1578
    5BIM    C2713530   3.688   5.465   4.600 -0.0717  0.1009 -0.0716
    5BIM    C2813531   3.761   5.338   4.624 -0.0447  0.0993 -0.1628
    5BIM    C2913532   3.711   5.211   4.608  0.0174  0.0997 -0.3630
    5BIM    C3013533   3.577   5.185   4.565  0.0654  0.1013 -0.5137
    5BIM    C3113534   3.789   5.094   4.633  0.0393  0.0979 -0.4374
    1BTD     S213535   4.178   6.802   1.663  0.0278  0.2177 -0.1144
    1BTD     N113536   4.079   6.928   1.581  0.0718  0.1987 -0.1975
    1BTD     N213537   4.320   6.909   1.688 -0.0144  0.2456  0.0069
    1BTD     N313538   4.431   7.355   1.592 -0.0209  0.2681  0.1040
    1BTD     N413539   4.134   7.379   1.461  0.0851  0.2105 -0.1479
    1BTD     C513540   4.111   7.163   1.520  0.0774  0.2055 -0.1686
    1BTD     C613541   4.153   7.038   1.577  0.0535  0.2135 -0.1338
    1BTD     C713542   4.288   7.027   1.637  0.0055  0.2396 -0.0195
    1BTD     C813543   4.375   7.142   1.636 -0.0166  0.2568  0.0545
    1BTD    C1513544   4.329   7.263   1.579  0.0082  0.2481  0.0170
    1BTD    C1613545   4.199   7.273   1.521  0.0545  0.2229 -0.0933
    1BTD    C4313546   4.162   7.517   1.501 -0.3394 -0.0069 -0.6776
    1BTD    C4413547   4.127   7.645   1.430  0.1426 -0.0585  0.8659
    1BTD    C4513548   4.195   7.649   1.292  0.1537  0.3265  0.0481
    1BTD    C4613549   4.169   7.762   1.191 -0.1026  0.2050  0.2114
    1BTD    C4713550   4.141   7.778   1.519  0.6566  0.7095 -0.2121
    1BTD    C4813551   4.040   7.786   1.633 -0.2111  0.1286  0.7336
    1BTD    C4913552   3.900   7.818   1.591 -0.0402  0.6698 -0.1963
    1BTD    C5013553   3.871   7.949   1.517 -0.2805  0.0912 -0.3642
    1BTD    C7513554   4.481   7.442   1.482 -0.8861  0.0845 -0.4011
    1BTD    C7613555   4.563   7.572   1.495  0.7279 -0.1869  0.4093
    1BTD    C7713556   4.646   7.598   1.367  0.5602  0.0468 -0.5013
    1BTD    C7813557   4.577   7.665   1.247  0.3840  0.3004  0.1578
    1BTD    C7913558   4.481   7.678   1.571  0.4918 -0.1829  0.7029
    1BTD    C8013559   4.536   7.817   1.588  0.0237 -0.3517  0.8042
    1BTD    C8113560   4.674   7.809   1.649  0.3305 -0.4288 -0.6925
    1BTD    C8213561   4.750   7.938   1.625 -0.0606 -0.5481 -0.7388
    2TTP     S113562   3.823   7.138   1.429 -0.1599  0.0158  0.2827
    2TTP     S513563   3.835   7.542   1.281 -0.1583 -0.0914 -0.0107
    2TTP     C113564   3.668   7.476   1.256 -0.1865 -0.0744  0.1304
    2TTP     C213565   3.654   7.347   1.300 -0.1886 -0.0404  0.2293
    2TTP     C313566   3.776   7.296   1.356 -0.1681 -0.0263  0.1973
    2TTP     C413567   3.991   7.204   1.455 -0.1317 -0.0010  0.1417
    2TTP    C1713568   4.005   7.333   1.410 -0.1296 -0.0352  0.0427
    2TTP    C1813569   3.883   7.384   1.355 -0.1501 -0.0491  0.0748
    2TTP    C3213570   3.525   7.255   1.301 -0.2548  0.1050 -0.4424
    2TTP    C3313571   3.530   7.116   1.240  0.9002  0.1571 -0.3521
    2TTP    C3413572   3.407   7.029   1.276  0.0916 -0.1252  0.1372
    2TTP    C3513573   3.427   6.883   1.251  0.1971  0.4270 -0.0808
    2TTP    C3613574   3.316   6.791   1.291  0.2076  0.3678 -0.1078
    2TTP    C3713575   3.175   6.810   1.231 -0.8969 -0.2493  0.1785
    2TTP    C3813576   3.075   6.703   1.261 -0.7290  0.1115 -0.4897
    2TTP    C3913577   2.949   6.702   1.182  0.5872 -0.9524  0.9878
    2TTP    C4013578   2.844   6.605   1.230 -0.2058  0.2021  0.2927
    2TTP    C4113579   2.889   6.457   1.249 -0.4403 -0.0167 -0.6550
    2TTP    C4213580   2.785   6.357   1.269  0.3803 -0.0512  0.5964
    3TTP     S113581   4.637   7.080   1.780 -0.2022  0.1787  0.1264
    3TTP     S513582   4.740   7.497   1.756  0.2065  0.0867  0.2597
    3TTP     C113583   4.865   7.412   1.857  0.1468 -0.0762  0.1973
    3TTP     C213584   4.841   7.278   1.870  0.0170 -0.0575  0.1524
    3TTP     C313585   4.722   7.238   1.801 -0.0396  0.0864  0.1658
    3TTP     C413586   4.512   7.165   1.679 -0.1425  0.3417  0.1888
    3TTP    C1713587   4.536   7.299   1.666 -0.0126  0.3228  0.2337
    3TTP    C1813588   4.655   7.339   1.735  0.0443  0.1791  0.2204
    3TTP    C3213589   4.920   7.159   1.929  0.4394 -0.5048  0.3073
    3TTP    C3313590   5.008   7.081   1.830  0.0156 -0.5959 -0.0248
    3TTP    C3413591   5.073   6.952   1.876 -0.0469 -0.2406  0.2112
    3TTP    C3513592   5.184   6.974   1.975 -0.4596  0.0935 -0.7189
    3TTP    C3613593   5.242   6.838   2.029 -0.1758  0.2495  0.0951
    3TTP    C3713594   5.332   6.829   2.160  0.2852  0.3553  0.4029
    3TTP    C3813595   5.303   6.915   2.278  0.0895 -0.3828  0.7352
    3TTP    C3913596   5.417   6.925   2.384  0.8774 -1.0137 -0.7482
    3TTP    C4013597   5.502   6.803   2.422  0.6354  0.5479 -0.1083
    3TTP    C4113598   5.429   6.683   2.482 -0.5271  0.1644  0.1839
    3TTP    C4213599   5.351   6.712   2.611  0.3559  0.3714  0.1185
    4BIM     F113600   3.498   8.247   1.031 -0.0200  0.0644 -0.2687
    4BIM     F213601   3.242   8.170   0.977 -0.0100 -0.0007 -0.2227
    4BIM     O113602   3.712   7.780   1.201  0.0954  0.1481 -0.1848
    4BIM     N513603   3.028   7.726   1.020  0.0868 -0.0352 -0.0967
    4BIM     N613604   3.247   7.377   1.164  0.1750  0.0432 -0.0404
    4BIM    C1913605   3.544   7.540   1.209  0.1461  0.1151 -0.1110
    4BIM    C2013606   3.500   7.661   1.169  0.1166  0.0966 -0.1340
    4BIM    C2113607   3.593   7.779   1.167  0.0919  0.1155 -0.1715
    4BIM    C2213608   3.513   7.894   1.118  0.0629  0.0877 -0.1890
    4BIM    C2313609   3.556   8.025   1.099  0.0336  0.0923 -0.2239
    4BIM    C2413610   3.462   8.116   1.052  0.0096  0.0620 -0.2346
    4BIM    C2513611   3.331   8.076   1.024  0.0148  0.0282 -0.2108
    4BIM    C2613612   3.288   7.945   1.042  0.0439  0.0236 -0.1759
    4BIM    C2713613   3.381   7.851   1.090  0.0685  0.0540 -0.1647
    4BIM    C2813614   3.368   7.707   1.121  0.1019  0.0583 -0.1298
    4BIM    C2913615   3.254   7.630   1.106  0.1161  0.0315 -0.0997
    4BIM    C3013616   3.130   7.683   1.059  0.1000 -0.0051 -0.0982
    4BIM    C3113617   3.251   7.491   1.138  0.1485  0.0380 -0.0672
    5BIM     F113618   5.056   8.185   2.051 -0.1224 -0.2890  0.2235
    5BIM     F213619   5.295   8.096   2.147  0.0948 -0.2048 -0.2374
    5BIM     O113620   4.830   7.719   1.894 -0.2130 -0.3536  0.5435
    5BIM     N513621   5.477   7.637   2.172  0.3426 -0.1308 -0.6722
    5BIM     N613622   5.252   7.291   2.029  0.2280 -0.1982 -0.3293
    5BIM    C1913623   4.978   7.469   1.929 -0.0377 -0.2967  0.2167
    5BIM    C2013624   5.025   7.590   1.965 -0.0234 -0.2837  0.1542
    5BIM    C2113625   4.943   7.714   1.944 -0.1177 -0.3147  0.3323
    5BIM    C2213626   5.024   7.826   1.993 -0.0739 -0.2900  0.2065
    5BIM    C2313627   4.990   7.961   1.995 -0.1304 -0.3052  0.2981
    5BIM    C2413628   5.083   8.050   2.047 -0.0716 -0.2760  0.1447
    5BIM    C2513629   5.206   8.004   2.096  0.0401 -0.2330 -0.0928
    5BIM    C2613630   5.241   7.870   2.095  0.0973 -0.2173 -0.1854
    5BIM    C2713631   5.148   7.778   2.043  0.0391 -0.2465 -0.0327
    5BIM    C2813632   5.154   7.631   2.027  0.0746 -0.2409 -0.0743
    5BIM    C2913633   5.258   7.549   2.063  0.1783 -0.2033 -0.2844
    5BIM    C3013634   5.378   7.598   2.123  0.2683 -0.1634 -0.4969
    5BIM    C3113635   5.254   7.407   2.044  0.2052 -0.2006 -0.3079
    1BTD     S213636   5.148   4.196   3.181  0.0668 -0.0623  0.0191
    1BTD     N113637   5.225   4.078   3.292  0.1241  0.0745  0.1256
    1BTD     N213638   5.296   4.296   3.161  0.0268 -0.0262 -0.0957
    1BTD     N313639   5.737   4.287   3.320  0.0491  0.2944 -0.1369
    1BTD     N413640   5.650   4.018   3.482  0.1688  0.4184  0.1358
    1BTD     C513641   5.448   4.050   3.389  0.1460  0.2526  0.1276
    1BTD     C613642   5.351   4.117   3.308  0.1112  0.1369  0.0730
    1BTD     C713643   5.390   4.239   3.234  0.0567  0.0805 -0.0509
    1BTD     C813644   5.525   4.288   3.246  0.0399  0.1427 -0.1138
    1BTD    C1513645   5.617   4.219   3.327  0.0754  0.2558 -0.0568
    1BTD    C1613646   5.579   4.101   3.398  0.1278  0.3101  0.0626
    1BTD    C4313647   5.796   3.982   3.492  0.7222 -0.1913  0.3400
    1BTD    C4413648   5.846   3.838   3.473  0.0266  0.3594  0.8647
    1BTD    C4513649   5.991   3.793   3.513 -0.1401 -0.4820  0.1461
    1BTD    C4613650   6.042   3.839   3.647 -0.1846  0.2726 -0.2386
    1BTD    C4713651   5.817   3.783   3.335  0.0775  0.0401 -0.3775
    1BTD    C4813652   5.904   3.830   3.215  0.2972  0.0957  0.9253
    1BTD    C4913653   5.860   3.742   3.093 -0.7754 -0.1355 -0.3914
    1BTD    C5013654   5.924   3.801   2.967 -0.1118  0.7457 -0.6907
    1BTD    C7513655   5.828   4.291   3.437  0.4314 -0.0582 -0.2183
    1BTD    C7613656   5.968   4.348   3.442  0.1711  0.0135 -0.3839
    1BTD    C7713657   6.018   4.380   3.588  0.0097  0.1990  0.3737
    1BTD    C7813658   6.134   4.478   3.589 -0.1303  0.9989  0.6575
    1BTD    C7913659   6.060   4.282   3.342  0.0545  0.2466 -0.4535
    1BTD    C8013660   6.130   4.152   3.393  0.2328  0.1999  0.5954
    1BTD    C8113661   6.202   4.070   3.284 -0.9305 -0.0733 -0.1246
    1BTD    C8213662   6.288   3.966   3.363 -0.5549  0.3883 -0.8243
    2TTP     S113663   5.314   3.818   3.543  0.0785 -0.3042 -0.0397
    2TTP     S513664   5.679   3.765   3.765 -0.0769  0.2169  0.3437
    2TTP     C113665   5.551   3.657   3.836 -0.0710  0.2349  0.3817
    2TTP     C213666   5.431   3.667   3.772 -0.0226  0.0750  0.2654
    2TTP     C313667   5.435   3.760   3.664  0.0116 -0.0674  0.1423
    2TTP     C413668   5.441   3.927   3.472  0.0726 -0.3222 -0.0777
    2TTP    C1713669   5.561   3.917   3.536  0.0243 -0.1623  0.0385
    2TTP    C1813670   5.557   3.823   3.644 -0.0098 -0.0198  0.1616
    2TTP    C3213671   5.306   3.592   3.810  0.5566  0.1323 -0.2508
    2TTP    C3313672   5.216   3.522   3.708  0.1789 -0.3149  0.3239
    2TTP    C3413673   5.088   3.476   3.769 -0.0555  0.2668 -0.3490
    2TTP    C3513674   5.032   3.356   3.695  0.6160 -0.5435 -0.0399
    2TTP    C3613675   4.911   3.275   3.731 -0.2736  0.0242  0.2108
    2TTP    C3713676   4.910   3.207   3.869  0.2056 -0.4557  1.0360
    2TTP    C3813677   4.800   3.100   3.884  0.1777  0.2212  0.9573
    2TTP    C3913678   4.814   3.015   4.009 -0.7533 -0.5622  0.0747
    2TTP    C4013679   4.710   2.899   4.017  0.0560 -1.0946 -0.1489
    2TTP    C4113680   4.561   2.943   4.032 -0.7478  0.5678  0.1228
    2TTP    C4213681   4.466   2.832   4.074  1.1653 -0.2081  0.2653
    3TTP     S113682   5.558   4.524   3.066  0.1315  0.0604  0.1465
    3TTP     S513683   5.979   4.527   3.150  0.1203  0.0764  0.2024
    3TTP     C113684   5.944   4.653   3.023  0.1130  0.1660  0.2928
    3TTP     C213685   5.812   4.659   2.990  0.1158  0.1665  0.2810
    3TTP     C313686   5.734   4.565   3.063  0.1242  0.0958  0.2000
    3TTP     C413687   5.592   4.398   3.193  0.1389 -0.0291  0.0560
    3TTP    C1713688   5.725   4.392   3.226  0.1360 -0.0297  0.0679
    3TTP    C1813689   5.803   4.486   3.153  0.1277  0.0410  0.1490
    3TTP    C3213690   5.743   4.739   2.880 -0.0889 -0.3439 -0.0932
    3TTP    C3313691   5.637   4.847   2.919  0.7110 -0.3184 -0.3337
    3TTP    C3413692   5.642   4.928   3.050 -0.7071 -0.3414  0.1554
    3TTP    C3513693   5.514   5.003   3.060 -0.2683 -0.0314 -0.7923
    3TTP    C3613694   5.519   5.087   3.189  0.1612  0.0108  0.4515
    3TTP    C3713695   5.390   5.185   3.218 -0.4802 -0.1447 -0.3763
    3TTP    C3813696   5.258   5.116   3.251 -0.3724 -0.8474 -0.2226
    3TTP    C3913697   5.252   4.996   3.342  0.2174 -0.1540  0.1719
    3TTP    C4013698   5.107   4.964   3.377  0.6880  0.0757 -0.1070
    3TTP    C4113699   5.112   4.868   3.496  0.5557  0.7386  1.0453
    3TTP    C4213700   4.970   4.811   3.526 -0.1917 -0.1314  0.1559
    4BIM     F113701   6.140   3.566   4.396  0.2791  0.1721 -0.4144
    4BIM     F213702   6.041   3.318   4.451  0.0111  0.3768  0.0323
    4BIM     O113703   5.790   3.736   4.020  0.2513  0.0156 -0.4594
    4BIM     N513704   5.648   3.084   4.262 -0.3936  0.5594  0.6424
    4BIM     N613705   5.394   3.267   3.957 -0.3616  0.3958  0.5171
    4BIM    C1913706   5.570   3.560   3.939 -0.0146  0.1555 -0.0487
    4BIM    C2013707   5.662   3.527   4.031  0.0029  0.1869 -0.0547
    4BIM    C2113708   5.772   3.623   4.068  0.1426  0.1103 -0.2725
    4BIM    C2213709   5.854   3.556   4.170  0.1252  0.1699 -0.2195
    4BIM    C2313710   5.967   3.605   4.235  0.2259  0.1324 -0.3672
    4BIM    C2413711   6.028   3.523   4.328  0.1846  0.2039 -0.2778
    4BIM    C2513712   5.976   3.396   4.357  0.0466  0.3092 -0.0477
    4BIM    C2613713   5.864   3.346   4.293 -0.0545  0.3471  0.1007
    4BIM    C2713714   5.801   3.427   4.197 -0.0147  0.2761  0.0135
    4BIM    C2813715   5.681   3.405   4.113 -0.0954  0.2907  0.1237
    4BIM    C2913716   5.602   3.292   4.111 -0.2345  0.3828  0.3483
    4BIM    C3013717   5.627   3.178   4.194 -0.3215  0.4796  0.5093
    4BIM    C3113718   5.488   3.279   4.026 -0.3036  0.3894  0.4400
    5BIM     F113719   6.760   4.675   3.055 -0.0180 -0.1005 -0.2164
    5BIM     F213720   6.750   4.937   2.983  0.0437 -0.1035 -0.2360
    5BIM     O113721   6.234   4.546   3.041 -0.0685  0.0795  0.0034
    5BIM     N513722   6.362   5.222   2.869  0.0967  0.0205 -0.1077
    5BIM     N613723   5.953   5.068   2.873  0.0447  0.1619  0.0680
    5BIM    C1913724   6.039   4.750   2.967 -0.0276  0.1406  0.0627
    5BIM    C2013725   6.171   4.773   2.973 -0.0172  0.0955  0.0082
    5BIM    C2113726   6.266   4.662   3.012 -0.0397  0.0663 -0.0194
    5BIM    C2213727   6.401   4.720   3.009 -0.0210  0.0193 -0.0783
    5BIM    C2313728   6.521   4.656   3.038 -0.0314 -0.0198 -0.1202
    5BIM    C2413729   6.637   4.732   3.028 -0.0092 -0.0605 -0.1730
    5BIM    C2513730   6.632   4.867   2.991  0.0228 -0.0621 -0.1829
    5BIM    C2613731   6.512   4.931   2.962  0.0333 -0.0234 -0.1413
    5BIM    C2713732   6.394   4.857   2.971  0.0112  0.0184 -0.0877
    5BIM    C2813733   6.252   4.894   2.948  0.0148  0.0651 -0.0350
    5BIM    C2913734   6.206   5.018   2.910  0.0423  0.0780 -0.0276
    5BIM    C3013735   6.292   5.130   2.888  0.0720  0.0465 -0.0716
    5BIM    C3113736   6.067   5.045   2.890  0.0435  0.1240  0.0250
    1BTD     S213737   3.609   4.305   9.432  0.0504  0.1594 -0.0062
    1BTD     N113738   3.640   4.477   9.391  0.1634  0.1221 -0.0794
    1BTD     N213739   3.446   4.300   9.355 -0.0083  0.2705  0.1116
    1BTD     N313740   3.170   4.602   9.125  0.0758  0.4295  0.2189
    1BTD     N413741   3.408   4.820   9.169  0.2873  0.2469 -0.0167
    1BTD     C513742   3.516   4.654   9.274  0.2255  0.1894 -0.0436
    1BTD     C613743   3.532   4.520   9.325  0.1521  0.1907 -0.0157
    1BTD     C713744   3.424   4.421   9.306  0.0559  0.2738  0.0913
    1BTD     C813745   3.305   4.461   9.236  0.0382  0.3512  0.1645
    1BTD    C1513746   3.293   4.592   9.187  0.1123  0.3467  0.1339
    1BTD    C1613747   3.397   4.688   9.206  0.2049  0.2667  0.0309
    1BTD    C4313748   3.298   4.919   9.161  0.4024 -0.0392  0.0990
    1BTD    C4413749   3.298   5.054   9.086  0.3431 -0.2518  0.3486
    1BTD    C4513750   3.318   5.024   8.936 -0.1535 -0.5750  0.4297
    1BTD    C4613751   3.327   5.138   8.833 -0.4395 -0.0127  1.4198
    1BTD    C4713752   3.170   5.136   9.127  0.4374 -0.2069 -0.2592
    1BTD    C4813753   3.154   5.282   9.075 -0.2609  0.1847 -0.3883
    1BTD    C4913754   3.246   5.375   9.156  0.8402  0.1340  0.6041
    1BTD    C5013755   3.243   5.517   9.111 -0.3263  0.5066  0.0385
    1BTD    C7513756   3.148   4.686   9.000  0.0583  0.0818 -0.4083
    1BTD    C7613757   3.017   4.730   8.940 -0.2948  0.0821  0.0183
    1BTD    C7713758   3.023   4.786   8.793  0.1518 -0.3123 -0.8037
    1BTD    C7813759   3.078   4.697   8.684  0.0644  0.0977  0.1471
    1BTD    C7913760   2.941   4.813   9.047  0.2894 -0.4858 -0.0721
    1BTD    C8013761   2.810   4.872   9.010  0.8502 -0.4640  0.5007
    1BTD    C8113762   2.731   4.932   9.123  0.0085  0.2032 -0.0948
    1BTD    C8213763   2.584   4.916   9.098 -0.2729 -0.1436  0.5833
    2TTP     S113764   3.768   4.809   9.329 -0.0720 -0.2876 -0.0250
    2TTP     S513765   3.575   5.160   9.171  0.5569 -0.1287 -0.4482
    2TTP     C113766   3.741   5.206   9.231  0.4902 -0.2768 -0.1437
    2TTP     C213767   3.810   5.101   9.283  0.2921 -0.3346  0.0045
    2TTP     C313768   3.735   4.979   9.278  0.1857 -0.2638 -0.1161
    2TTP     C413769   3.602   4.762   9.269 -0.0055 -0.1394 -0.3290
    2TTP    C1713770   3.533   4.868   9.217  0.1927 -0.0816 -0.4774
    2TTP    C1813771   3.608   4.989   9.222  0.2990 -0.1521 -0.3564
    2TTP    C3213772   3.951   5.111   9.333 -0.2551  0.0870 -0.5699
    2TTP    C3313773   4.002   5.034   9.452 -0.0235  0.0362 -0.1968
    2TTP    C3413774   4.139   5.083   9.491 -0.5513 -0.2826  1.0303
    2TTP    C3513775   4.181   5.019   9.622  0.1629 -0.3281 -0.0457
    2TTP    C3613776   4.317   5.069   9.654  0.4320 -0.5019  0.1961
    2TTP    C3713777   4.365   5.043   9.801  0.0258 -0.0043  0.5416
    2TTP    C3813778   4.452   4.924   9.838  0.4237  0.1003 -0.6747
    2TTP    C3913779   4.412   4.786   9.788  0.0699  0.3181  0.0250
    2TTP    C4013780   4.449   4.667   9.882 -0.2415  0.0568 -0.2816
    2TTP    C4113781   4.412   4.535   9.815 -0.2586 -0.3076 -0.5473
    2TTP    C4213782   4.484   4.417   9.882 -0.2179  0.2691  1.1432
    3TTP     S113783   3.105   4.234   9.233 -0.0456  0.0309 -0.1113
    3TTP     S513784   2.823   4.486   9.029 -0.1982  0.0635  0.1390
    3TTP     C113785   2.742   4.328   9.067 -0.1128 -0.0118  0.0118
    3TTP     C213786   2.824   4.241   9.133 -0.0607 -0.0262 -0.0734
    3TTP     C313787   2.954   4.296   9.155 -0.0862  0.0215 -0.0408
    3TTP     C413788   3.186   4.392   9.194 -0.1310  0.1062  0.0160
    3TTP    C1713789   3.104   4.479   9.129 -0.1831  0.1205  0.1008
    3TTP    C1813790   2.974   4.424   9.107 -0.1575  0.0728  0.0687
    3TTP    C3213791   2.802   4.096   9.180  0.0604  0.0166  0.5595
    3TTP    C3313792   2.769   4.080   9.333 -0.3963  0.2510  0.1935
    3TTP    C3413793   2.765   3.935   9.387 -0.0612 -0.1957  0.0129
    3TTP    C3513794   2.899   3.861   9.368 -0.4045 -0.2171  0.0238
    3TTP    C3613795   3.024   3.938   9.403 -1.0256  0.5167 -0.3004
    3TTP    C3713796   3.156   3.860   9.392 -0.1694 -0.5121 -0.1391
    3TTP    C3813797   3.277   3.959   9.399  0.2701 -0.1415 -0.4078
    3TTP    C3913798   3.403   3.883   9.369 -0.6748  0.1924  0.0606
    3TTP    C4013799   3.535   3.952   9.395 -0.3533  0.1203  0.3787
    3TTP    C4113800   3.654   3.858   9.354  0.9927 -0.2902 -0.1758
    3TTP    C4213801   3.772   3.934   9.406 -0.1576 -0.4050  0.0605
    4BIM     F113802   3.500   5.930   8.927  0.1776  0.0682  0.0372
    4BIM     F213803   3.709   6.047   9.055  0.1716  0.0054  0.1049
    4BIM     O113804   3.571   5.411   9.066  0.0285  0.0346 -0.0117
    4BIM     N513805   4.062   5.845   9.338  0.0565 -0.1090  0.1671
    4BIM     N613806   4.076   5.417   9.420 -0.0590 -0.1229  0.1156
    4BIM    C1913807   3.797   5.339   9.237 -0.0304 -0.0375  0.0358
    4BIM    C2013808   3.771   5.465   9.198  0.0074 -0.0266  0.0453
    4BIM    C2113809   3.653   5.494   9.109  0.0359  0.0108  0.0198
    4BIM    C2213810   3.654   5.640   9.085  0.0741  0.0138  0.0384
    4BIM    C2313811   3.564   5.714   9.009  0.1096  0.0435  0.0255
    4BIM    C2413812   3.585   5.851   9.001  0.1417  0.0400  0.0486
    4BIM    C2513813   3.693   5.911   9.067  0.1386  0.0076  0.0833
    4BIM    C2613814   3.783   5.837   9.143  0.1034 -0.0222  0.0963
    4BIM    C2713815   3.764   5.699   9.152  0.0704 -0.0191  0.0734
    4BIM    C2813816   3.840   5.594   9.224  0.0292 -0.0451  0.0792
    4BIM    C2913817   3.953   5.612   9.300  0.0142 -0.0801  0.1099
    4BIM    C3013818   4.013   5.740   9.321  0.0376 -0.0960  0.1414
    4BIM    C3113819   4.020   5.505   9.366 -0.0259 -0.1034  0.1128
    5BIM     F113820   2.064   4.785   9.008  0.1898  0.0499 -0.3595
    5BIM     F213821   1.920   4.558   8.966  0.1351  0.0132  0.0198
    5BIM     O113822   2.563   4.583   9.065  0.2179  0.0721 -0.5252
    5BIM     N513823   2.070   4.086   8.947  0.0763 -0.0240  0.4473
    5BIM     N613824   2.489   3.974   9.000  0.1094  0.0006  0.2418
    5BIM    C1913825   2.603   4.294   9.046  0.1756  0.0448 -0.2213
    5BIM    C2013826   2.483   4.354   9.033  0.1706  0.0407 -0.1948
    5BIM    C2113827   2.470   4.503   9.044  0.1935  0.0554 -0.3579
    5BIM    C2213828   2.327   4.534   9.026  0.1811  0.0464 -0.2797
    5BIM    C2313829   2.267   4.660   9.027  0.1942  0.0544 -0.3772
    5BIM    C2413830   2.130   4.664   9.007  0.1781  0.0428 -0.2727
    5BIM    C2513831   2.056   4.547   8.986  0.1500  0.0241 -0.0768
    5BIM    C2613832   2.116   4.422   8.984  0.1368  0.0159  0.0210
    5BIM    C2713833   2.255   4.415   9.004  0.1527  0.0272 -0.0825
    5BIM    C2813834   2.347   4.299   9.008  0.1451  0.0229 -0.0224
    5BIM    C2913835   2.314   4.167   8.991  0.1194  0.0058  0.1585
    5BIM    C3013836   2.180   4.123   8.967  0.0958 -0.0106  0.3166
    5BIM    C3113837   2.410   4.062   8.996  0.1141  0.0031  0.2029
    1BTD     S213838   0.132   6.516   4.277 -0.2252  0.0686 -0.0672
    1BTD     N113839   0.297   6.462   4.323 -0.1170  0.0982 -0.4144
    1BTD     N213840   0.063   6.349   4.274 -0.2474  0.0718  0.2538
    1BTD     N313841   0.222   5.915   4.353 -0.0973  0.1314  0.2820
    1BTD     N413842   0.510   6.054   4.413  0.0634  0.1642 -0.5414
    1BTD     C513843   0.405   6.247   4.369 -0.0247  0.1322 -0.4706
    1BTD     C613844   0.293   6.330   4.334 -0.1037  0.1085 -0.2799
    1BTD     C713845   0.162   6.267   4.306 -0.1767  0.0936  0.0942
    1BTD     C813846   0.150   6.124   4.316 -0.1671  0.1034  0.2586
    1BTD    C1513847   0.262   6.047   4.351 -0.0886  0.1269  0.0613
    1BTD    C1613848   0.388   6.108   4.377 -0.0183  0.1410 -0.2989
    1BTD    C4313849   0.564   5.918   4.396  0.0075 -0.2078 -0.8833
    1BTD    C4413850   0.643   5.880   4.274 -0.3147 -0.1466 -0.1269
    1BTD    C4513851   0.576   5.934   4.147 -0.3044 -0.7255  0.7624
    1BTD    C4613852   0.654   5.936   4.007  0.3808  0.0277 -0.6330
    1BTD    C4713853   0.708   5.738   4.272  0.5352 -0.4137 -1.3775
    1BTD    C4813854   0.776   5.699   4.399 -0.0132  0.0986 -0.2549
    1BTD    C4913855   0.834   5.552   4.398  0.3715 -0.2759 -0.0876
    1BTD    C5013856   0.906   5.510   4.527 -0.5998  0.2592  0.4810
    1BTD    C7513857   0.274   5.814   4.449 -0.3830 -0.4455 -0.4923
    1BTD    C7613858   0.258   5.659   4.444 -0.2445  0.0413 -0.7667
    1BTD    C7713859   0.348   5.587   4.348  0.1774  0.0388 -0.6299
    1BTD    C7813860   0.331   5.613   4.200 -0.8656 -0.2425 -0.2037
    1BTD    C7913861   0.272   5.595   4.589 -0.4336  0.1785 -0.3281
    1BTD    C8013862   0.233   5.441   4.611  0.0011  0.0074 -0.1810
    1BTD    C8113863   0.086   5.404   4.585  0.1857 -0.5833 -0.5434
    1BTD    C8213864   0.058   5.260   4.631 -0.3197 -0.0401  0.1726
    2TTP     S113865   0.654   6.415   4.423  0.0047 -0.0830  0.1577
    2TTP     S513866   0.842   6.064   4.585 -0.0215 -0.0144  0.3371
    2TTP     C113867   0.958   6.204   4.599 -0.0250 -0.0077  0.2995
    2TTP     C213868   0.907   6.320   4.549 -0.0171 -0.0286  0.2420
    2TTP     C313869   0.774   6.304   4.499 -0.0080 -0.0505  0.2253
    2TTP     C413870   0.538   6.275   4.409  0.0082 -0.0898  0.1953
    2TTP    C1713871   0.589   6.159   4.458  0.0003 -0.0689  0.2528
    2TTP    C1813872   0.722   6.176   4.509 -0.0088 -0.0470  0.2695
    2TTP    C3213873   0.975   6.457   4.533 -0.1156  0.0424 -0.5164
    2TTP    C3313874   0.923   6.570   4.619  0.0733 -0.2858 -0.0792
    2TTP    C3413875   0.977   6.572   4.761 -0.5109 -0.4917 -0.6643
    2TTP    C3513876   0.956   6.695   4.856  0.3982  0.5604  0.1165
    2TTP    C3613877   0.949   6.838   4.806 -0.2955 -0.1587  0.2258
    2TTP    C3713878   1.079   6.911   4.788 -0.0172  0.6143  1.0591
    2TTP    C3813879   1.065   7.052   4.759 -0.3719 -0.5538  0.3216
    2TTP    C3913880   1.184   7.146   4.771  0.1175  0.8326  0.5020
    2TTP    C4013881   1.139   7.289   4.759  0.4794  0.5069  0.3012
    2TTP    C4113882   1.234   7.408   4.778  0.4579  0.6085  0.2832
    2TTP    C4213883   1.279   7.417   4.927 -0.2118 -0.2371 -0.3830
    3TTP     S113884  -0.128   6.049   4.245  0.2147  0.1788 -0.0077
    3TTP     S513885  -0.035   5.634   4.309 -0.0582  0.1004 -0.1187
    3TTP     C113886  -0.209   5.647   4.258 -0.0226  0.2197 -0.2110
    3TTP     C213887  -0.248   5.776   4.236  0.0637  0.2511 -0.1822
    3TTP     C313888  -0.142   5.869   4.258  0.1049  0.1819 -0.0861
    3TTP     C413889   0.047   6.036   4.296  0.1791  0.0595  0.0848
    3TTP    C1713890   0.086   5.907   4.318  0.0928  0.0281  0.0558
    3TTP    C1813891  -0.021   5.814   4.297  0.0517  0.0973 -0.0403
    3TTP    C3213892  -0.394   5.825   4.198 -0.2874 -0.0552  0.5874
    3TTP    C3313893  -0.414   5.930   4.083  0.5811 -0.1312  0.5149
    3TTP    C3413894  -0.563   5.952   4.046 -0.4724 -0.4631 -1.0987
    3TTP    C3513895  -0.639   5.832   3.996 -0.7005  0.4854  0.2847
    3TTP    C3613896  -0.592   5.772   3.862  0.0107 -0.3521 -0.4544
    3TTP    C3713897  -0.651   5.633   3.823 -0.1195 -0.5244  0.8589
    3TTP    C3813898  -0.606   5.589   3.687 -0.1280 -0.6456 -0.2754
    3TTP    C3913899  -0.684   5.472   3.629 -0.1697 -0.0940  0.5707
    3TTP    C4013900  -0.836   5.479   3.610 -0.6609 -0.1601  0.4630
    3TTP    C4113901  -0.886   5.577   3.501 -0.4464  0.4266  1.3102
    3TTP    C4213902  -1.002   5.519   3.412 -0.4681 -0.4984 -0.0181
    4BIM     F113903   1.248   5.721   5.185  0.0401  0.3005  0.1163
    4BIM     F213904   1.500   5.787   5.109  0.0328  0.3068  0.0976
    4BIM     O113905   0.956   6.026   4.847  0.0061  0.1330 -0.0058
    4BIM     N513906   1.656   6.100   4.759 -0.0021  0.1969 -0.0161
    4BIM     N613907   1.377   6.325   4.509 -0.0272  0.0646 -0.1076
    4BIM    C1913908   1.093   6.198   4.654 -0.0131  0.0797 -0.0668
    4BIM    C2013909   1.157   6.119   4.742 -0.0042  0.1217 -0.0355
    4BIM    C2113910   1.079   6.033   4.838  0.0053  0.1470 -0.0054
    4BIM    C2213911   1.178   5.960   4.919  0.0135  0.1910  0.0247
    4BIM    C2313912   1.154   5.869   5.021  0.0236  0.2260  0.0584
    4BIM    C2413913   1.264   5.812   5.083  0.0300  0.2647  0.0824
    4BIM    C2513914   1.394   5.846   5.044  0.0262  0.2679  0.0726
    4BIM    C2613915   1.419   5.937   4.942  0.0160  0.2332  0.0391
    4BIM    C2713916   1.309   5.996   4.878  0.0095  0.1937  0.0145
    4BIM    C2813917   1.301   6.095   4.768 -0.0015  0.1512 -0.0229
    4BIM    C2913918   1.407   6.153   4.702 -0.0080  0.1410 -0.0421
    4BIM    C3013919   1.543   6.123   4.733 -0.0047  0.1719 -0.0278
    4BIM    C3113920   1.390   6.247   4.596 -0.0186  0.0992 -0.0781
    5BIM     F113921  -0.135   4.844   4.080  0.1025  0.1371  0.1990
    5BIM     F213922  -0.406   4.824   4.094  0.0632  0.2620 -0.3340
    5BIM     O113923  -0.065   5.372   4.178  0.1774  0.0443  0.6497
    5BIM     N513924  -0.746   5.173   4.184  0.0598  0.3756 -0.7795
    5BIM     N613925  -0.637   5.589   4.258  0.1261  0.2780 -0.3198
    5BIM    C1913926  -0.299   5.541   4.226  0.1660  0.1309  0.3004
    5BIM    C2013927  -0.306   5.409   4.201  0.1488  0.1493  0.2079
    5BIM    C2113928  -0.181   5.328   4.177  0.1562  0.1019  0.4001
    5BIM    C2213929  -0.225   5.190   4.153  0.1330  0.1377  0.2337
    5BIM    C2313930  -0.145   5.079   4.127  0.1302  0.1141  0.3216
    5BIM    C2413931  -0.208   4.957   4.107  0.1064  0.1571  0.1260
    5BIM    C2513932  -0.348   4.948   4.114  0.0865  0.2214 -0.1485
    5BIM    C2613933  -0.429   5.058   4.141  0.0887  0.2453 -0.2377
    5BIM    C2713934  -0.366   5.181   4.161  0.1128  0.2025 -0.0427
    5BIM    C2813935  -0.421   5.316   4.191  0.1218  0.2122 -0.0696
    5BIM    C2913936  -0.554   5.348   4.206  0.1075  0.2687 -0.3062
    5BIM    C3013937  -0.659   5.251   4.194  0.0815  0.3272 -0.5655
    5BIM    C3113938  -0.599   5.480   4.234  0.1180  0.2735 -0.3123
    1BTD     S213939   1.680   5.128   6.563 -0.0527  0.0341  0.0556
    1BTD     N113940   1.752   5.287   6.518 -0.0391 -0.0901 -0.3648
    1BTD     N213941   1.837   5.052   6.605 -0.0727  0.1732  0.3905
    1BTD     N313942   2.288   5.181   6.609 -0.0888  0.2320  0.3136
    1BTD     N413943   2.184   5.471   6.501 -0.0474 -0.0925 -0.6170
    1BTD     C513944   1.979   5.379   6.510 -0.0440 -0.0874 -0.4852
    1BTD     C613945   1.883   5.275   6.535 -0.0496 -0.0252 -0.2404
    1BTD     C713946   1.930   5.143   6.584 -0.0684  0.1223  0.1824
    1BTD     C813947   2.071   5.123   6.606 -0.0806  0.1999  0.3392
    1BTD    C1513948   2.161   5.228   6.580 -0.0746  0.1345  0.0884
    1BTD    C1613949   2.116   5.355   6.533 -0.0564 -0.0075 -0.3189
    1BTD    C4313950   2.320   5.504   6.551 -0.6783  0.3346  0.0241
    1BTD    C4413951   2.423   5.584   6.467  0.4854  0.3705  0.1287
    1BTD    C4513952   2.453   5.511   6.335 -0.1153 -0.2138 -0.7524
    1BTD    C4613953   2.540   5.571   6.227 -0.2845 -0.1385 -0.5058
    1BTD    C4713954   2.539   5.643   6.540 -0.2587  0.1839 -0.4718
    1BTD    C4813955   2.513   5.726   6.665  0.6902 -0.0173 -0.2873
    1BTD    C4913956   2.442   5.856   6.641 -0.7965  0.0210  0.1251
    1BTD    C5013957   2.532   5.963   6.578  0.3347  0.5347  0.4460
    1BTD    C7513958   2.413   5.207   6.528 -0.0302  0.4125 -0.2455
    1BTD    C7613959   2.549   5.214   6.588 -0.6634  0.1771 -0.7535
    1BTD    C7713960   2.557   5.288   6.726  0.1217 -0.0989  0.0906
    1BTD    C7813961   2.684   5.291   6.811 -0.4770 -0.0549  0.0421
    1BTD    C7913962   2.653   5.238   6.476 -0.5058  0.3730 -0.6769
    1BTD    C8013963   2.806   5.223   6.509  0.2163 -0.1905 -0.0494
    1BTD    C8113964   2.841   5.087   6.564 -0.3954  0.0960 -0.6564
    1BTD    C8213965   2.998   5.082   6.581  0.0087 -0.4616  0.2632
    2TTP     S113966   1.843   5.604   6.367 -0.2007 -0.0531  0.1029
    2TTP     S513967   2.224   5.796   6.319 -0.2078 -0.0868 -0.0900
    2TTP     C113968   2.100   5.891   6.226 -0.2114 -0.1844 -0.1854
    2TTP     C213969   1.974   5.837   6.236 -0.2093 -0.1800 -0.1315
    2TTP     C313970   1.972   5.719   6.316 -0.2050 -0.0991 -0.0129
    2TTP     C413971   1.967   5.509   6.460 -0.1972  0.0445  0.1984
    2TTP    C1713972   2.092   5.563   6.450 -0.1992  0.0400  0.1445
    2TTP    C1813973   2.094   5.681   6.370 -0.2035 -0.0409  0.0259
    2TTP    C3213974   1.843   5.901   6.193  0.2844 -0.6717  0.8898
    2TTP    C3313975   1.744   5.963   6.296  0.2896  0.6918  0.2769
    2TTP    C3413976   1.596   5.964   6.244 -0.1074 -0.3038 -0.2164
    2TTP    C3513977   1.507   6.035   6.351  0.3224 -0.2214 -0.1936
    2TTP    C3613978   1.359   6.050   6.317  0.0064  0.2099  0.0419
    2TTP    C3713979   1.282   6.126   6.421 -0.0489  0.0999 -0.3778
    2TTP    C3813980   1.136   6.111   6.380  0.0281  0.1305 -0.0535
    2TTP    C3913981   1.030   6.152   6.473  1.0741  0.2422 -0.4308
    2TTP    C4013982   0.891   6.102   6.436 -0.4254  0.6578 -0.1982
    2TTP    C4113983   0.776   6.125   6.534 -0.0241 -0.6392 -0.1733
    2TTP    C4213984   0.719   6.265   6.529 -0.0627  0.3043 -0.0144
    3TTP     S113985   2.123   4.831   6.682 -0.1745 -0.0135 -0.0236
    3TTP     S513986   2.543   4.916   6.713 -0.2016  0.2294 -0.3147
    3TTP     C113987   2.517   4.740   6.751 -0.0958  0.2557 -0.1165
    3TTP     C213988   2.385   4.703   6.743 -0.0812  0.1822 -0.0149
    3TTP     C313989   2.301   4.813   6.708 -0.1530  0.1024 -0.0898
    3TTP     C413990   2.149   5.007   6.644 -0.2803 -0.0399 -0.2218
    3TTP    C1713991   2.280   5.043   6.651 -0.2949  0.0335 -0.3232
    3TTP    C1813992   2.365   4.934   6.687 -0.2230  0.1132 -0.2483
    3TTP    C3213993   2.331   4.557   6.781  0.5063 -0.3655  0.4664
    3TTP    C3313994   2.214   4.499   6.692 -0.4493 -0.2462  0.5055
    3TTP    C3413995   2.206   4.348   6.703  0.4857  0.1301  0.0037
    3TTP    C3513996   2.085   4.281   6.634 -0.4100  0.2921 -0.1538
    3TTP    C3613997   2.038   4.141   6.676  0.8651 -0.4200  0.1946
    3TTP    C3713998   2.133   4.026   6.646 -0.2812  0.1954  0.0212
    3TTP    C3813999   2.081   3.898   6.714 -0.4467 -0.5406  0.2566
    3TTP    C3914000   2.189   3.785   6.720 -0.6032  0.3348  0.4229
    3TTP    C4014001   2.341   3.815   6.751  0.3834  0.1040  0.2807
    3TTP    C4114002   2.432   3.696   6.735  0.1555 -0.2473 -0.3703
    3TTP    C4214003   2.566   3.711   6.794  0.1556  0.2014 -0.2382
    4BIM     F114004   2.689   6.452   6.179  0.4110 -0.3421 -0.2358
    4BIM     F214005   2.604   6.513   5.928  0.1600 -0.0384 -0.0778
    4BIM     O114006   2.327   6.076   6.322  0.3289 -0.2449 -0.1885
    4BIM     N514007   2.223   6.332   5.669 -0.2591  0.4674  0.1831
    4BIM     N614008   1.957   6.026   5.832 -0.2727  0.4821  0.1882
    4BIM    C1914009   2.117   6.001   6.133  0.0600  0.0797 -0.0206
    4BIM    C2014010   2.211   6.093   6.107  0.0905  0.0434 -0.0389
    4BIM    C2114011   2.316   6.126   6.209  0.2311 -0.1262 -0.1265
    4BIM    C2214012   2.402   6.229   6.149  0.2292 -0.1234 -0.1241
    4BIM    C2314013   2.513   6.292   6.206  0.3361 -0.2524 -0.1906
    4BIM    C2414014   2.579   6.387   6.129  0.3099 -0.2202 -0.1731
    4BIM    C2514015   2.535   6.418   6.000  0.1805 -0.0637 -0.0918
    4BIM    C2614016   2.424   6.356   5.942  0.0734  0.0654 -0.0252
    4BIM    C2714017   2.356   6.260   6.018  0.0979  0.0353 -0.0416
    4BIM    C2814018   2.237   6.177   5.988  0.0076  0.1441  0.0142
    4BIM    C2914019   2.165   6.178   5.871 -0.1271  0.3070  0.0985
    4BIM    C3014020   2.197   6.263   5.760 -0.1993  0.3946  0.1448
    4BIM    C3114021   2.051   6.095   5.850 -0.2064  0.4025  0.1475
    5BIM     F114022   3.316   4.712   6.985  0.2060 -0.1287 -0.3444
    5BIM     F214023   3.292   4.442   7.005  0.0669 -0.1016 -0.1419
    5BIM     O114024   2.814   4.848   6.832  0.2325  0.0306 -0.2905
    5BIM     N514025   2.900   4.150   6.926 -0.1141  0.0504  0.1878
    5BIM     N614026   2.513   4.310   6.803 -0.0653  0.1694  0.1889
    5BIM    C1914027   2.613   4.638   6.798  0.1091  0.1128 -0.0778
    5BIM    C2014028   2.740   4.614   6.835  0.1079  0.0716 -0.0994
    5BIM    C2114029   2.838   4.728   6.851  0.1735  0.0310 -0.2106
    5BIM    C2214030   2.966   4.667   6.892  0.1537 -0.0077 -0.2060
    5BIM    C2314031   3.086   4.733   6.919  0.1969 -0.0527 -0.2894
    5BIM    C2414032   3.194   4.654   6.957  0.1663 -0.0836 -0.2656
    5BIM    C2514033   3.181   4.515   6.967  0.0947 -0.0696 -0.1613
    5BIM    C2614034   3.062   4.449   6.941  0.0513 -0.0248 -0.0774
    5BIM    C2714035   2.951   4.527   6.902  0.0813  0.0067 -0.1000
    5BIM    C2814036   2.812   4.489   6.868  0.0503  0.0563 -0.0304
    5BIM    C2914037   2.760   4.361   6.866 -0.0187  0.0827  0.0775
    5BIM    C3014038   2.837   4.246   6.899 -0.0709  0.0648  0.1377
    5BIM    C3114039   2.625   4.334   6.831 -0.0439  0.1303  0.1383
    1BTD     S214040   0.558   8.654   0.825  0.0487 -0.3096 -0.1130
    1BTD     N114041   0.651   8.801   0.870 -0.0544 -0.1812 -0.3152
    1BTD     N214042   0.703   8.550   0.805  0.1151 -0.2704  0.1577
    1BTD     N314043   1.168   8.603   0.845  0.0640  0.0417  0.3440
    1BTD     N414044   1.104   8.912   0.925 -0.1447  0.1512 -0.2387
    1BTD     C514045   0.889   8.855   0.898 -0.0990 -0.0088 -0.2683
    1BTD     C614046   0.779   8.767   0.867 -0.0350 -0.1192 -0.1777
    1BTD     C714047   0.808   8.626   0.831  0.0598 -0.1688  0.0870
    1BTD     C814048   0.945   8.581   0.827  0.0859 -0.1061  0.2479
    1BTD    C1514049   1.049   8.672   0.857  0.0210  0.0010  0.1511
    1BTD    C1614050   1.021   8.807   0.892 -0.0704  0.0494 -0.1039
    1BTD    C4314051   1.238   8.902   0.997 -0.5979  0.4186  0.6354
    1BTD    C4414052   1.297   9.010   1.094  0.0906  0.2826 -0.3058
    1BTD    C4514053   1.445   8.972   1.136  0.1903 -0.4895  0.3696
    1BTD    C4614054   1.531   9.062   1.217  0.0107  0.2110 -0.1644
    1BTD    C4714055   1.205   9.046   1.217  0.6445  0.3494 -0.0481
    1BTD    C4814056   1.217   9.158   1.320  0.6885 -0.0483  0.1380
    1BTD    C4914057   1.220   9.292   1.263 -0.6886  1.2792 -0.2076
    1BTD    C5014058   1.244   9.389   1.375 -0.0326  0.6111  0.1066
    1BTD    C7514059   1.294   8.666   0.808 -0.7351 -0.0834  0.5591
    1BTD    C7614060   1.428   8.603   0.822 -0.6713  0.4876  0.1374
    1BTD    C7714061   1.467   8.582   0.967 -0.2098 -0.2758 -0.2432
    1BTD    C7814062   1.606   8.530   1.001 -0.4361  0.2407 -0.6146
    1BTD    C7914063   1.544   8.659   0.726  0.3518  0.4823 -0.4754
    1BTD    C8014064   1.591   8.804   0.706  0.1290 -0.0463  0.4314
    1BTD    C8114065   1.619   8.885   0.830  0.1824 -0.4359 -0.0025
    1BTD    C8214066   1.663   9.029   0.800 -0.2935  0.6466  0.2809
    2TTP     S114067   0.785   9.145   0.909 -0.1431  0.2011 -0.1259
    2TTP     S514068   1.196   9.272   0.900 -0.0668 -0.0350  0.0271
    2TTP     C114069   1.090   9.419   0.888  0.0216  0.0437  0.1962
    2TTP     C214070   0.957   9.388   0.890  0.0032  0.1211  0.1590
    2TTP     C314071   0.934   9.248   0.901 -0.0813  0.1216 -0.0045
    2TTP     C414072   0.892   8.998   0.921 -0.2314  0.1225 -0.2950
    2TTP    C1714073   1.025   9.028   0.919 -0.2130  0.0451 -0.2578
    2TTP    C1814074   1.048   9.169   0.908 -0.1285  0.0451 -0.0943
    2TTP    C3214075   0.836   9.480   0.882 -0.2314  0.6034  0.3803
    2TTP    C3314076   0.764   9.511   1.013  0.2931 -0.3179 -0.1174
    2TTP    C3414077   0.836   9.579   1.128  0.2470 -0.5224 -0.2747
    2TTP    C3514078   0.751   9.585   1.253 -0.4569  0.3873 -0.2452
    2TTP    C3614079   0.812   9.689   1.348 -0.3444 -0.1240  0.2409
    2TTP    C3714080   0.731   9.686   1.478 -0.2201  0.4282  0.0954
    2TTP    C3814081   0.753   9.798   1.579 -0.4558  0.3238 -0.5505
    2TTP    C3914082   0.806   9.931   1.531  0.1254 -0.6097  0.4368
    2TTP    C4014083   0.863  10.011   1.644  0.1040 -0.0691 -0.1272
    2TTP    C4114084   0.914  10.152   1.601 -0.5466  0.1182 -0.6635
    2TTP    C4214085   0.964  10.234   1.721  0.5635  0.1963 -0.4899
    3TTP     S114086   0.955   8.283   0.758  0.1074  0.0645 -0.2790
    3TTP     S514087   1.385   8.308   0.753  0.1367 -0.2553  0.3735
    3TTP     C114088   1.336   8.139   0.707  0.0816 -0.2257  0.3240
    3TTP     C214089   1.200   8.121   0.706  0.0693 -0.1254  0.1196
    3TTP     C314090   1.130   8.241   0.741  0.1030 -0.0677 -0.0053
    3TTP     C414091   1.004   8.452   0.805  0.1625  0.0350 -0.2295
    3TTP    C1714092   1.140   8.470   0.806  0.1748 -0.0652 -0.0251
    3TTP    C1814093   1.210   8.350   0.770  0.1411 -0.1228  0.0998
    3TTP    C3214094   1.135   7.986   0.680  0.2122 -0.3257  0.0282
    3TTP    C3314095   1.016   7.972   0.592 -0.2452  0.3120  0.3953
    3TTP    C3414096   0.977   7.826   0.571  0.1185 -0.8054 -0.2710
    3TTP    C3514097   0.874   7.821   0.456  0.3308 -0.3447 -0.1225
    3TTP    C3614098   0.832   7.674   0.430 -0.4161  0.3730  0.7858
    3TTP    C3714099   0.725   7.668   0.328  0.1314  0.5609  1.3469
    3TTP    C3814100   0.654   7.537   0.317  0.5871  0.4209 -0.9551
    3TTP    C3914101   0.541   7.509   0.219 -0.4200 -0.7760  0.0323
    3TTP    C4014102   0.479   7.373   0.228  0.1757 -0.1604  0.3470
    3TTP    C4114103   0.359   7.361   0.128 -0.6337 -0.3517  0.2710
    3TTP    C4214104   0.284   7.229   0.140  0.2731 -0.6764 -0.4056
    4BIM     F114105   1.784   9.801   1.097 -0.4080 -0.1684  0.5407
    4BIM     F214106   1.678  10.032   1.000 -0.1493 -0.2665  0.0203
    4BIM     O114107   1.375   9.456   1.014 -0.3899 -0.1340  0.3090
    4BIM     N514108   1.233  10.118   0.799  0.2354 -0.3829 -0.8931
    4BIM     N614109   0.935   9.801   0.754  0.1974 -0.3361 -0.9692
    4BIM    C1914110   1.128   9.554   0.890 -0.1363 -0.2153 -0.2706
    4BIM    C2014111   1.235   9.632   0.915 -0.1510 -0.2201 -0.1919
    4BIM    C2114112   1.359   9.574   0.979 -0.2846 -0.1765  0.1102
    4BIM    C2214113   1.455   9.685   0.992 -0.2653 -0.1946  0.1221
    4BIM    C2314114   1.584   9.681   1.045 -0.3607 -0.1677  0.3575
    4BIM    C2414115   1.656   9.799   1.046 -0.3189 -0.1928  0.3170
    4BIM    C2514116   1.601   9.918   0.996 -0.1856 -0.2434  0.0487
    4BIM    C2614117   1.473   9.923   0.943 -0.0899 -0.2705 -0.1871
    4BIM    C2714118   1.398   9.804   0.940 -0.1303 -0.2456 -0.1503
    4BIM    C2814119   1.261   9.776   0.891 -0.0548 -0.2633 -0.3539
    4BIM    C2914120   1.174   9.867   0.835  0.0788 -0.3107 -0.6382
    4BIM    C3014121   1.207  10.004   0.816  0.1644 -0.3502 -0.7773
    4BIM    C3114122   1.043   9.830   0.790  0.1433 -0.3244 -0.8187
    5BIM     F114123   2.139   8.032   0.818 -0.1692  0.0324  0.0165
    5BIM     F214124   2.134   7.852   0.615 -0.0748  0.1305 -0.0732
    5BIM     O114125   1.615   8.164   0.850 -0.1901 -0.0138 -0.1355
    5BIM     N514126   1.754   7.686   0.345  0.0460  0.2387 -0.3105
    5BIM     N614127   1.345   7.826   0.410  0.0107  0.1827 -0.4111
    5BIM    C1914128   1.424   8.039   0.666 -0.1073  0.0634 -0.2751
    5BIM    C2014129   1.556   8.013   0.666 -0.1057  0.0710 -0.2334
    5BIM    C2114130   1.648   8.081   0.764 -0.1498  0.0296 -0.1622
    5BIM    C2214131   1.783   8.030   0.737 -0.1357  0.0508 -0.1311
    5BIM    C2314132   1.902   8.065   0.802 -0.1644  0.0265 -0.0656
    5BIM    C2414133   2.018   8.003   0.758 -0.1429  0.0540 -0.0475
    5BIM    C2514134   2.016   7.910   0.654 -0.0943  0.1046 -0.0938
    5BIM    C2614135   1.898   7.875   0.588 -0.0654  0.1291 -0.1592
    5BIM    C2714136   1.779   7.936   0.631 -0.0865  0.1018 -0.1785
    5BIM    C2814137   1.639   7.922   0.583 -0.0662  0.1162 -0.2432
    5BIM    C2914138   1.595   7.840   0.482 -0.0196  0.1627 -0.3011
    5BIM    C3014139   1.683   7.756   0.407  0.0163  0.2042 -0.3060
    5BIM    C3114140   1.458   7.833   0.443 -0.0032  0.1736 -0.3613
    1BTD     S214141   1.868   0.282   4.090 -0.1877 -0.3481 -0.0209
    1BTD     N114142   1.797   0.444   4.058  0.2280 -0.2397 -0.4158
    1BTD     N214143   1.743   0.193   3.997 -0.4973 -0.2675  0.3154
    1BTD     N314144   1.359   0.302   3.750 -0.3777  0.0921  0.2874
    1BTD     N414145   1.425   0.612   3.825  0.5159  0.1264 -0.6133
    1BTD     C514146   1.602   0.528   3.935  0.3675 -0.0490 -0.5081
    1BTD     C614147   1.689   0.424   3.983  0.1201 -0.1536 -0.2835
    1BTD     C714148   1.659   0.283   3.950 -0.2859 -0.1692  0.1256
    1BTD     C814149   1.543   0.253   3.869 -0.4241 -0.0793  0.2899
    1BTD    C1514150   1.461   0.359   3.824 -0.1716  0.0216  0.0590
    1BTD    C1614151   1.490   0.494   3.857  0.2197  0.0366 -0.3352
    1BTD    C4314152   1.279   0.631   3.822 -0.2347 -0.2953  0.2785
    1BTD    C4414153   1.214   0.739   3.727 -0.1296  0.1078  0.2046
    1BTD    C4514154   1.252   0.719   3.576  0.4569 -0.1838 -0.2136
    1BTD    C4614155   1.194   0.817   3.473 -0.2045  0.6012  0.1772
    1BTD    C4714156   1.062   0.756   3.753 -0.7004  0.2593  0.5247
    1BTD    C4814157   1.015   0.794   3.890  0.2284 -0.2474 -0.1410
    1BTD    C4914158   0.871   0.851   3.895  0.3116  0.2988  0.2791
    1BTD    C5014159   0.771   0.759   3.828 -0.1700 -0.1352  0.6514
    1BTD    C7514160   1.305   0.357   3.625  0.2113 -0.7638 -0.3980
    1BTD    C7614161   1.152   0.330   3.601  0.2653  0.0136 -0.2556
    1BTD    C7714162   1.094   0.362   3.459  0.2892 -0.3817 -0.5080
    1BTD    C7814163   1.162   0.311   3.336  0.3412 -0.2567  0.0570
    1BTD    C7914164   1.059   0.368   3.724 -0.1430  0.3161  0.7318
    1BTD    C8014165   0.914   0.320   3.729  0.1982  0.4130  0.3074
    1BTD    C8114166   0.840   0.369   3.846 -0.1465 -0.6784 -0.5069
    1BTD    C8214167   0.702   0.309   3.864  0.4455  0.1547 -0.1149
    2TTP     S114168   1.715   0.792   4.015 -0.0081 -0.1616 -0.0660
    2TTP     S514169   1.414   0.992   3.782  0.0937  0.1137  0.0377
    2TTP     C114170   1.526   1.118   3.852  0.2918  0.0058 -0.0827
    2TTP     C214171   1.625   1.063   3.929  0.2720 -0.0856 -0.1218
    2TTP     C314172   1.617   0.921   3.934  0.0997 -0.0737 -0.0581
    2TTP     C414173   1.604   0.667   3.945 -0.2062 -0.0537  0.0545
    2TTP    C1714174   1.504   0.721   3.869 -0.1865  0.0377  0.0936
    2TTP    C1814175   1.512   0.864   3.863 -0.0142  0.0258  0.0298
    2TTP    C3214176   1.740   1.135   4.000  0.6674 -0.4505 -0.7691
    2TTP    C3314177   1.744   1.147   4.153  0.3901  0.7084  0.7122
    2TTP    C3414178   1.844   1.250   4.203 -0.0497  0.3714 -0.0160
    2TTP    C3514179   1.864   1.245   4.355  0.1403  0.3391  0.1520
    2TTP    C3614180   1.958   1.134   4.401 -0.1925 -0.4555  0.2260
    2TTP    C3714181   1.999   1.129   4.552  0.4109 -0.4450  0.1352
    2TTP    C3814182   2.144   1.080   4.551 -0.7421 -0.3741  0.0553
    2TTP    C3914183   2.223   1.058   4.679 -0.6490  0.2619 -0.8266
    2TTP    C4014184   2.164   0.970   4.789  0.3383 -0.1179  0.1966
    2TTP    C4114185   2.256   0.958   4.911  0.0369  0.5189 -0.2595
    2TTP    C4214186   2.190   0.872   5.023 -0.9181 -0.6712 -0.3435
    3TTP     S114187   1.508  -0.045   3.859 -0.0719 -0.1217  0.0122
    3TTP     S514188   1.144   0.006   3.636  0.2412  0.2511 -0.4168
    3TTP     C114189   1.167  -0.171   3.669 -0.0428  0.2376 -0.2804
    3TTP     C214190   1.281  -0.198   3.740 -0.1562  0.1218 -0.1400
    3TTP     C314191   1.354  -0.079   3.771 -0.0229  0.0393 -0.1348
    3TTP     C414192   1.484   0.132   3.826  0.2121 -0.1082 -0.1242
    3TTP    C1714193   1.371   0.158   3.756  0.3255  0.0075 -0.2646
    3TTP    C1814194   1.298   0.039   3.725  0.1922  0.0901 -0.2696
    3TTP    C3214195   1.328  -0.332   3.791  0.0352  0.4559  0.3787
    3TTP    C3314196   1.469  -0.382   3.733  0.4963  0.8623 -0.2155
    3TTP    C3414197   1.503  -0.498   3.815 -0.6208  0.5887 -0.9284
    3TTP    C3514198   1.631  -0.576   3.784 -0.0863  0.0317 -0.1420
    3TTP    C3614199   1.643  -0.687   3.888 -0.2945  0.7151  0.4230
    3TTP    C3714200   1.774  -0.770   3.885 -0.0224 -0.5417  0.3499
    3TTP    C3814201   1.799  -0.853   4.006  0.6668 -0.0187 -0.6158
    3TTP    C3914202   1.920  -0.934   4.002 -0.1330  0.0690 -0.0002
    3TTP    C4014203   2.057  -0.869   4.042 -0.1475  0.1606  0.0391
    3TTP    C4114204   2.075  -0.801   4.178  0.3471  0.0072  1.0031
    3TTP    C4214205   2.193  -0.710   4.186  0.5938  0.1334 -0.0896
    4BIM     F114206   1.175   1.579   3.270 -0.3905  0.0825  0.1873
    4BIM     F214207   1.209   1.796   3.431  0.3240  0.1917 -0.1026
    4BIM     O114208   1.403   1.191   3.571 -0.7302 -0.0705  0.2491
    4BIM     N514209   1.420   1.831   3.877  1.1091  0.2397 -0.4753
    4BIM     N614210   1.592   1.485   4.080  0.6996  0.0980 -0.3685
    4BIM    C1914211   1.517   1.261   3.832 -0.1683 -0.0205 -0.0058
    4BIM    C2014212   1.458   1.350   3.750 -0.1107  0.0137 -0.0101
    4BIM    C2114213   1.402   1.307   3.617 -0.4134 -0.0153  0.1258
    4BIM    C2214214   1.346   1.427   3.554 -0.2589  0.0345  0.0828
    4BIM    C2314215   1.283   1.437   3.430 -0.4356  0.0300  0.1714
    4BIM    C2414216   1.238   1.562   3.391 -0.2327  0.0837  0.1062
    4BIM    C2514217   1.255   1.674   3.475  0.1353  0.1398 -0.0433
    4BIM    C2614218   1.318   1.665   3.598  0.3134  0.1447 -0.1324
    4BIM    C2714219   1.364   1.539   3.639  0.1125  0.0909 -0.0682
    4BIM    C2814220   1.434   1.496   3.763  0.2182  0.0803 -0.1311
    4BIM    C2914221   1.470   1.576   3.869  0.5563  0.1240 -0.2744
    4BIM    C3014222   1.442   1.716   3.873  0.8590  0.1875 -0.3844
    4BIM    C3114223   1.537   1.525   3.984  0.6332  0.1095 -0.3253
    5BIM     F114224   0.367  -0.199   3.500  0.0367 -0.2482  0.1709
    5BIM     F214225   0.394  -0.464   3.443  0.3181 -0.0751 -0.5166
    5BIM     O114226   0.874  -0.073   3.641 -0.0914 -0.0684  0.4718
    5BIM     N514227   0.794  -0.755   3.461  0.6315  0.3011 -1.2906
    5BIM     N614228   1.185  -0.603   3.583  0.4747  0.4065 -0.9169
    5BIM    C1914229   1.080  -0.281   3.637  0.1320  0.1602 -0.0782
    5BIM    C2014230   0.951  -0.303   3.604  0.1532  0.1082 -0.1270
    5BIM    C2114231   0.851  -0.191   3.608  0.0330 -0.0098  0.1686
    5BIM    C2214232   0.722  -0.248   3.566  0.0924 -0.0398  0.0268
    5BIM    C2314233   0.600  -0.182   3.555  0.0215 -0.1411  0.2026
    5BIM    C2414234   0.491  -0.258   3.513  0.1001 -0.1504  0.0132
    5BIM    C2514235   0.505  -0.394   3.484  0.2451 -0.0613 -0.3409
    5BIM    C2614236   0.627  -0.460   3.495  0.3165  0.0398 -0.5181
    5BIM    C2714237   0.738  -0.385   3.537  0.2387  0.0510 -0.3307
    5BIM    C2814238   0.879  -0.424   3.559  0.2819  0.1454 -0.4393
    5BIM    C2914239   0.934  -0.550   3.541  0.4155  0.2480 -0.7667
    5BIM    C3014240   0.857  -0.662   3.497  0.5338  0.2768 -1.0536
    5BIM    C3114241   1.071  -0.578   3.564  0.4473  0.3345 -0.8475
    1BTD     S214242   4.904   1.296   1.485  0.2722  0.0032 -0.1504
    1BTD     N114243   5.000   1.340   1.631  0.1568  0.3086 -0.1655
    1BTD     N214244   4.766   1.229   1.579  0.4041 -0.2361 -0.1259
    1BTD     N314245   4.658   1.171   2.032  0.4652 -0.1721 -0.1032
    1BTD     N414246   4.947   1.309   2.096  0.1605  0.4990 -0.1521
    1BTD     C514247   4.969   1.322   1.873  0.1624  0.3999 -0.1579
    1BTD     C614248   4.928   1.304   1.736  0.2193  0.2211 -0.1522
    1BTD     C714249   4.797   1.242   1.707  0.3579 -0.0838 -0.1300
    1BTD     C814250   4.713   1.201   1.816  0.4324 -0.1945 -0.1146
    1BTD    C1514251   4.757   1.220   1.949  0.3722 -0.0115 -0.1209
    1BTD    C1614252   4.884   1.280   1.977  0.2391  0.2823 -0.1423
    1BTD    C4314253   4.877   1.343   2.234 -0.7384  0.3994  0.8462
    1BTD    C4414254   4.947   1.313   2.363  0.5907 -0.5537 -0.7382
    1BTD    C4514255   4.990   1.159   2.372  0.6449  0.2371 -0.2013
    1BTD    C4614256   5.038   1.102   2.502 -0.4164 -0.6654 -1.0955
    1BTD    C4714257   4.849   1.361   2.474  0.1472  0.0455  0.2263
    1BTD    C4814258   4.807   1.508   2.487  0.2820  0.6322 -0.2422
    1BTD    C4914259   4.924   1.610   2.482  0.0239 -0.5938 -0.6629
    1BTD    C5014260   5.033   1.593   2.588 -0.2140 -0.5726 -0.1441
    1BTD    C7514261   4.681   1.100   2.165 -0.6810 -0.0355 -0.2285
    1BTD    C7614262   4.587   1.092   2.291 -0.2590  0.2388  0.1747
    1BTD    C7714263   4.555   1.233   2.344 -0.1922  0.4822 -0.7785
    1BTD    C7814264   4.455   1.237   2.463  0.0514 -0.4276  0.2611
    1BTD    C7914265   4.635   0.984   2.397 -0.2312  1.2091 -0.0530
    1BTD    C8014266   4.651   0.843   2.342 -0.8279  0.4982 -0.1519
    1BTD    C8114267   4.706   0.739   2.440  0.6511  0.5564 -0.0927
    1BTD    C8214268   4.839   0.746   2.495  0.6671 -0.1463 -0.4105
    2TTP     S114269   5.243   1.442   1.878 -0.0828 -0.4090 -0.0086
    2TTP     S514270   5.234   1.437   2.307 -0.2146  0.2618  0.0001
    2TTP     C114271   5.391   1.512   2.254 -0.0766 -0.0723 -0.0727
    2TTP     C214272   5.403   1.518   2.118 -0.0280 -0.2991 -0.0795
    2TTP     C314273   5.289   1.464   2.051 -0.0975 -0.2172 -0.0277
    2TTP     C414274   5.087   1.367   1.931 -0.2205 -0.0749  0.0641
    2TTP    C1714275   5.075   1.361   2.067 -0.2695  0.1520  0.0711
    2TTP    C1814276   5.189   1.415   2.134 -0.1997  0.0701  0.0193
    2TTP    C3214277   5.516   1.585   2.040 -0.2904 -0.5078 -0.3552
    2TTP    C3314278   5.480   1.677   1.922  0.1017 -0.1511  0.7390
    2TTP    C3414279   5.596   1.770   1.880 -0.5004  0.0264  0.4781
    2TTP    C3514280   5.571   1.846   1.743  0.5946  0.0535 -0.3198
    2TTP    C3614281   5.701   1.918   1.720  0.4285 -0.1192  0.0923
    2TTP    C3714282   5.709   1.974   1.586 -0.0984  0.1386  0.5966
    2TTP    C3814283   5.831   2.062   1.545 -0.0777  0.5290 -0.2805
    2TTP    C3914284   5.973   2.008   1.556 -0.4159 -0.2774  0.4862
    2TTP    C4014285   5.997   1.896   1.454 -0.4346  0.0450 -0.0901
    2TTP    C4114286   6.140   1.864   1.413 -0.4929 -0.0380  0.5150
    2TTP    C4214287   6.129   1.751   1.311  0.2288 -0.0708 -0.0043
    3TTP     S114288   4.441   1.114   1.712  0.0702  0.2645  0.1549
    3TTP     S514289   4.304   1.085   2.119 -0.1535 -0.3644  0.0373
    3TTP     C114290   4.164   1.050   2.008 -0.1018 -0.1550 -0.0944
    3TTP     C214291   4.198   1.057   1.876 -0.0296  0.0515 -0.0659
    3TTP     C314292   4.336   1.090   1.857 -0.0126  0.0519  0.0610
    3TTP     C414293   4.581   1.148   1.823  0.0184  0.0550  0.2866
    3TTP    C1714294   4.547   1.142   1.955 -0.0537 -0.1515  0.2581
    3TTP    C1814295   4.409   1.109   1.974 -0.0707 -0.1518  0.1311
    3TTP    C3214296   4.100   1.028   1.758  0.0972 -0.8830 -0.2692
    3TTP    C3314297   4.141   0.936   1.642 -0.0762 -0.1934 -0.1204
    3TTP    C3414298   4.211   0.808   1.671  0.2051  0.3486 -0.4745
    3TTP    C3514299   4.260   0.732   1.554  0.0008  0.0355 -0.1213
    3TTP    C3614300   4.317   0.593   1.579 -0.3671 -0.0503 -0.0474
    3TTP    C3714301   4.445   0.587   1.663 -0.5114  0.4681 -0.8036
    3TTP    C3814302   4.453   0.436   1.704 -0.9486 -0.6974  0.3696
    3TTP    C3914303   4.563   0.409   1.804 -0.1518 -0.1942 -0.0574
    3TTP    C4014304   4.540   0.306   1.913  0.2830  0.2280 -0.1400
    3TTP    C4114305   4.497   0.170   1.858 -0.2393  0.0945  0.0921
    3TTP    C4214306   4.570   0.091   1.750 -0.1554 -0.1518  0.0660
    4BIM     F114307   5.531   1.404   3.061  0.0757 -0.0154  0.1061
    4BIM     F214308   5.748   1.567   3.040  0.1082 -0.0705  0.0152
    4BIM     O114309   5.355   1.405   2.549 -0.0639 -0.0729  0.1540
    4BIM     N514310   5.935   1.801   2.646  0.0556 -0.1906 -0.0812
    4BIM     N614311   5.753   1.768   2.251 -0.0603 -0.2244 -0.0254
    4BIM    C1914312   5.500   1.560   2.348 -0.0825 -0.1459  0.0843
    4BIM    C2014313   5.536   1.554   2.477 -0.0485 -0.1293  0.0758
    4BIM    C2114314   5.456   1.472   2.575 -0.0411 -0.0917  0.1134
    4BIM    C2214315   5.522   1.487   2.706 -0.0019 -0.0820  0.0926
    4BIM    C2314316   5.484   1.429   2.827  0.0176 -0.0497  0.1140
    4BIM    C2414317   5.562   1.458   2.938  0.0546 -0.0466  0.0871
    4BIM    C2514318   5.674   1.542   2.927  0.0714 -0.0750  0.0403
    4BIM    C2614319   5.712   1.599   2.807  0.0520 -0.1072  0.0187
    4BIM    C2714320   5.635   1.571   2.693  0.0144 -0.1109  0.0454
    4BIM    C2814321   5.647   1.616   2.552 -0.0136 -0.1411  0.0332
    4BIM    C2914322   5.744   1.699   2.501 -0.0080 -0.1738 -0.0095
    4BIM    C3014323   5.849   1.755   2.581  0.0269 -0.1830 -0.0487
    4BIM    C3114324   5.749   1.737   2.364 -0.0368 -0.2015 -0.0179
    5BIM     F114325   3.804   0.945   2.742 -0.0978 -0.1368  0.0303
    5BIM     F214326   3.562   0.954   2.618 -0.0568  0.1945 -0.0268
    5BIM     O114327   4.138   0.999   2.319  0.0671 -0.1734  0.1556
    5BIM     N514328   3.452   1.006   2.138  0.1194  0.6447 -0.0196
    5BIM     N614329   3.762   1.046   1.833  0.2399  0.5493  0.0897
    5BIM    C1914330   4.026   1.027   2.050  0.1647  0.1301  0.1455
    5BIM    C2014331   3.951   1.013   2.162  0.1216  0.1264  0.1162
    5BIM    C2114332   4.016   0.999   2.296  0.0728 -0.0346  0.1237
    5BIM    C2214333   3.907   0.986   2.395  0.0340  0.0056  0.0858
    5BIM    C2314334   3.918   0.971   2.533 -0.0172 -0.1033  0.0783
    5BIM    C2414335   3.801   0.961   2.605 -0.0469 -0.0362  0.0401
    5BIM    C2514336   3.676   0.965   2.541 -0.0257  0.1345  0.0107
    5BIM    C2614337   3.664   0.980   2.404  0.0253  0.2438  0.0181
    5BIM    C2714338   3.782   0.991   2.328  0.0559  0.1783  0.0566
    5BIM    C2814339   3.804   1.008   2.183  0.1106  0.2593  0.0741
    5BIM    C2914340   3.707   1.017   2.086  0.1446  0.4256  0.0548
    5BIM    C3014341   3.567   1.011   2.115  0.1307  0.5455  0.0139
    5BIM    C3114342   3.738   1.033   1.947  0.1968  0.4927  0.0741
    1BTD     S214343   5.795   5.853   7.743 -0.0151  0.3479  0.2798
    1BTD     N114344   5.897   5.714   7.793 -0.1671  0.4036  0.7519
    1BTD     N214345   5.655   5.751   7.694  0.2890  0.2661 -0.4441
    1BTD     N314346   5.554   5.293   7.685  0.6348  0.2002 -1.0670
    1BTD     N414347   5.853   5.247   7.807  0.0730  0.3694  0.4067
    1BTD     C514348   5.870   5.471   7.799 -0.0349  0.3839  0.5538
    1BTD     C614349   5.825   5.605   7.772  0.0080  0.3606  0.3656
    1BTD     C714350   5.690   5.625   7.716  0.2630  0.2836 -0.3039
    1BTD     C814351   5.606   5.511   7.691  0.4628  0.2337 -0.7516
    1BTD    C1514352   5.654   5.382   7.719  0.4123  0.2588 -0.5458
    1BTD    C1614353   5.785   5.362   7.772  0.1663  0.3330  0.0993
    1BTD    C4314354   5.796   5.115   7.839 -0.3647 -0.0486 -0.1645
    1BTD    C4414355   5.772   5.089   7.990 -0.0089  0.6767  0.0600
    1BTD    C4514356   5.747   4.938   8.022  0.1120  0.3750 -0.2300
    1BTD    C4614357   5.810   4.825   7.936  0.0986  0.5868 -0.0958
    1BTD    C4714358   5.664   5.176   8.058 -0.5360  0.0490 -0.0611
    1BTD    C4814359   5.525   5.162   8.009  0.8182 -0.2689 -1.1447
    1BTD    C4914360   5.422   5.117   8.115  0.6087  0.3098  0.6148
    1BTD    C5014361   5.293   5.099   8.032 -0.0878 -0.5032 -0.5570
    1BTD    C7514362   5.586   5.183   7.591  0.6133  0.0216 -0.1525
    1BTD    C7614363   5.494   5.068   7.554  0.2177 -0.1049 -0.1405
    1BTD    C7714364   5.518   5.000   7.423 -0.2645  0.2194  0.0766
    1BTD    C7814365   5.505   5.080   7.294  0.2463  0.1336 -0.1387
    1BTD    C7914366   5.516   4.972   7.673  0.5444 -0.2283 -0.0997
    1BTD    C8014367   5.415   4.858   7.688  1.3829  0.0765 -0.4009
    1BTD    C8114368   5.435   4.793   7.827  0.3220  0.0701  0.5483
    1BTD    C8214369   5.314   4.701   7.863 -0.0578  0.5583 -0.6132
    2TTP     S114370   6.163   5.475   7.888  0.1675 -0.0748 -0.1130
    2TTP     S514371   6.160   5.045   7.907 -0.0576 -0.0557  0.3350
    2TTP     C114372   6.327   5.104   7.951  0.0220 -0.1027  0.1031
    2TTP     C214373   6.337   5.240   7.948  0.0963 -0.1113 -0.0488
    2TTP     C314374   6.214   5.303   7.911  0.0930 -0.0812  0.0123
    2TTP     C414375   5.996   5.416   7.844  0.0879 -0.0277  0.1189
    2TTP    C1714376   5.986   5.279   7.847  0.0136 -0.0191  0.2707
    2TTP    C1814377   6.109   5.217   7.885  0.0169 -0.0494  0.2097
    2TTP    C3214378   6.454   5.325   7.992 -0.3759 -0.5220 -0.1061
    2TTP    C3314379   6.450   5.393   8.135  0.0348 -0.2816 -0.2977
    2TTP    C3414380   6.424   5.311   8.259  0.2461  0.2726 -0.5089
    2TTP    C3514381   6.429   5.381   8.391  0.0552 -0.0756 -0.4857
    2TTP    C3614382   6.400   5.296   8.521  0.3134 -0.2739  0.4409
    2TTP    C3714383   6.411   5.384   8.643 -0.6350 -0.3847 -0.2800
    2TTP    C3814384   6.362   5.294   8.746  0.0517 -0.4820 -0.6468
    2TTP    C3914385   6.343   5.368   8.883  0.0566 -0.3553 -0.1870
    2TTP    C4014386   6.241   5.304   8.973 -0.0184 -0.5022  0.2711
    2TTP    C4114387   6.230   5.342   9.122  0.0116 -0.1894  0.4616
    2TTP    C4214388   6.191   5.483   9.171 -0.4511  0.2640 -0.6410
    3TTP     S114389   5.317   5.603   7.644  0.0291  0.0741 -0.0599
    3TTP     S514390   5.193   5.192   7.674  0.3651 -0.0072  0.2385
    3TTP     C114391   5.044   5.298   7.671  0.2737 -0.1407 -0.0093
    3TTP     C214392   5.074   5.431   7.662  0.1646 -0.1236 -0.1160
    3TTP     C314393   5.215   5.454   7.657  0.1491 -0.0042 -0.0060
    3TTP     C414394   5.465   5.497   7.647  0.1205  0.2078  0.1879
    3TTP    C1714395   5.436   5.364   7.657  0.2295  0.1905  0.2947
    3TTP    C1814396   5.295   5.341   7.662  0.2450  0.0713  0.1847
    3TTP    C3214397   4.971   5.548   7.661 -0.3252  0.0189  0.0819
    3TTP    C3314398   4.973   5.682   7.572 -0.5805  0.4834  0.5707
    3TTP    C3414399   4.840   5.761   7.572  0.1667  0.0851  0.6718
    3TTP    C3514400   4.851   5.891   7.500  0.0208 -0.4596  0.0524
    3TTP    C3614401   4.711   5.953   7.480 -0.3819 -0.1541 -0.3290
    3TTP    C3714402   4.713   6.083   7.399 -0.4162  0.2239 -0.9663
    3TTP    C3814403   4.777   6.205   7.476  0.3933 -0.2177  0.5122
    3TTP    C3914404   4.816   6.318   7.381 -0.7440 -0.1002 -0.2413
    3TTP    C4014405   4.923   6.306   7.271  0.8298 -0.1524  0.5278
    3TTP    C4114406   4.975   6.450   7.230  0.8582  0.9498  0.2885
    3TTP    C4214407   5.074   6.459   7.119  0.0903 -0.3830  0.4005
    4BIM     F114408   6.451   4.313   8.128  0.1038 -0.0941 -0.0901
    4BIM     F214409   6.720   4.359   8.120  0.0807  0.0889  0.1812
    4BIM     O114410   6.259   4.808   8.023 -0.1284 -0.2813 -0.5567
    4BIM     N514411   6.968   4.778   8.035 -0.1180  0.2184  0.2391
    4BIM     N614412   6.764   5.156   7.955 -0.2949  0.0352 -0.1798
    4BIM    C1914413   6.447   5.028   7.979 -0.2330 -0.1731 -0.4629
    4BIM    C2014414   6.485   4.901   8.006 -0.1736 -0.1330 -0.3562
    4BIM    C2114415   6.382   4.794   8.027 -0.1225 -0.1935 -0.4139
    4BIM    C2214416   6.457   4.669   8.054 -0.0643 -0.1279 -0.2675
    4BIM    C2314417   6.405   4.543   8.080 -0.0043 -0.1508 -0.2596
    4BIM    C2414418   6.496   4.440   8.102  0.0435 -0.0764 -0.1071
    4BIM    C2514419   6.634   4.464   8.098  0.0315  0.0177  0.0327
    4BIM    C2614420   6.686   4.590   8.072 -0.0281  0.0411  0.0257
    4BIM    C2714421   6.596   4.696   8.049 -0.0771 -0.0333 -0.1278
    4BIM    C2814422   6.619   4.839   8.020 -0.1450 -0.0328 -0.1764
    4BIM    C2914423   6.741   4.902   8.008 -0.1752  0.0459 -0.0749
    4BIM    C3014424   6.865   4.834   8.023 -0.1438  0.1405  0.0975
    4BIM    C3114425   6.753   5.041   7.979 -0.2408  0.0396 -0.1333
    5BIM     F114426   4.650   4.582   7.775 -0.0063 -0.0941  0.0113
    5BIM     F214427   4.414   4.713   7.739 -0.0250 -0.1129  0.0645
    5BIM     O114428   5.003   4.988   7.721 -0.0535 -0.0554 -0.0094
    5BIM     N514429   4.327   5.192   7.649 -0.0861 -0.1122  0.1261
    5BIM     N614430   4.650   5.483   7.614 -0.1192 -0.0783  0.0993
    5BIM    C1914431   4.903   5.258   7.667 -0.0886 -0.0596  0.0341
    5BIM    C2014432   4.823   5.151   7.682 -0.0756 -0.0685  0.0372
    5BIM    C2114433   4.882   5.015   7.710 -0.0582 -0.0657  0.0137
    5BIM    C2214434   4.769   4.922   7.720 -0.0477 -0.0774  0.0243
    5BIM    C2314435   4.773   4.785   7.745 -0.0305 -0.0794  0.0100
    5BIM    C2414436   4.652   4.717   7.751 -0.0232 -0.0915  0.0240
    5BIM    C2514437   4.531   4.785   7.732 -0.0329 -0.1011  0.0515
    5BIM    C2614438   4.526   4.922   7.707 -0.0502 -0.0992  0.0658
    5BIM    C2714439   4.647   4.992   7.701 -0.0577 -0.0871  0.0517
    5BIM    C2814440   4.676   5.135   7.677 -0.0755 -0.0821  0.0608
    5BIM    C2914441   4.584   5.235   7.655 -0.0889 -0.0886  0.0864
    5BIM    C3014442   4.443   5.211   7.651 -0.0873 -0.1016  0.1082
    5BIM    C3114443   4.621   5.371   7.632 -0.1055 -0.0827  0.0933
    1BTD     S214444   5.931   4.943   0.778  0.1664 -0.1909 -0.1005
    1BTD     N114445   5.951   5.117   0.741  0.0014 -0.1578 -0.0385
    1BTD     N214446   6.046   4.943   0.916  0.2251 -0.1490 -0.1498
    1BTD     N314447   6.318   5.260   1.131  0.0476 -0.0042 -0.1383
    1BTD     N414448   6.201   5.475   0.915 -0.2277 -0.0149 -0.0011
    1BTD     C514449   6.083   5.301   0.835 -0.1148 -0.0829 -0.0206
    1BTD     C614450   6.038   5.165   0.829 -0.0008 -0.1193 -0.0568
    1BTD     C714451   6.091   5.067   0.927  0.1241 -0.1143 -0.1191
    1BTD     C814452   6.187   5.111   1.026  0.1291 -0.0734 -0.1421
    1BTD    C1514453   6.227   5.246   1.027  0.0151 -0.0389 -0.1051
    1BTD    C1614454   6.176   5.340   0.933 -0.1054 -0.0435 -0.0451
    1BTD    C4314455   6.323   5.548   0.949  0.2610 -0.3588  0.2472
    1BTD    C4414456   6.434   5.556   0.843 -0.0933  0.2505  0.3241
    1BTD    C4514457   6.487   5.411   0.799  0.1141 -1.1313  0.9140
    1BTD    C4614458   6.573   5.416   0.673  0.2219  0.5487 -0.1379
    1BTD    C4714459   6.551   5.653   0.883  0.5410 -0.6961  0.3434
    1BTD    C4814460   6.524   5.800   0.918  0.0326 -0.1867 -0.1421
    1BTD    C4914461   6.656   5.860   0.945  0.0954 -0.0068 -0.0782
    1BTD    C5014462   6.650   6.007   0.946 -0.2961  0.0023  0.7560
    1BTD    C7514463   6.309   5.382   1.216 -0.1159  0.1910 -0.9784
    1BTD    C7614464   6.422   5.437   1.313 -0.2667 -0.2175  0.3577
    1BTD    C7714465   6.386   5.542   1.413 -1.2330 -0.5165 -0.0396
    1BTD    C7814466   6.267   5.506   1.504 -0.6302 -0.0539  0.1346
    1BTD    C7914467   6.558   5.474   1.237  0.3073  0.7665 -0.5273
    1BTD    C8014468   6.688   5.448   1.312  0.3029  0.6530  0.8396
    1BTD    C8114469   6.792   5.556   1.293  0.3010  0.1296 -0.0536
    1BTD    C8214470   6.919   5.488   1.365  0.0886  0.0120  0.1358
    2TTP     S114471   5.943   5.473   0.617  0.1391 -0.1169 -0.0320
    2TTP     S514472   6.151   5.818   0.767  0.2346  0.0139 -0.4632
    2TTP     C114473   6.038   5.871   0.635 -0.0353 -0.0643 -0.2655
    2TTP     C214474   5.967   5.768   0.581 -0.0808 -0.1093 -0.1207
    2TTP     C314475   6.000   5.643   0.642  0.0961 -0.0836 -0.1607
    2TTP     C414476   6.056   5.419   0.749  0.4090 -0.0386 -0.2297
    2TTP    C1714477   6.127   5.523   0.803  0.4544  0.0064 -0.3746
    2TTP    C1814478   6.095   5.648   0.742  0.2776 -0.0192 -0.3346
    2TTP    C3214479   5.856   5.773   0.471  0.0841 -0.3580  0.4372
    2TTP    C3314480   5.899   5.725   0.334 -0.7996  0.4197 -0.0085
    2TTP    C3414481   5.994   5.825   0.266  0.2472  0.5052 -0.3378
    2TTP    C3514482   6.025   5.780   0.122  0.2105  0.0411 -0.6121
    2TTP    C3614483   6.175   5.797   0.100 -0.5333 -0.1549 -0.4833
    2TTP    C3714484   6.217   5.740  -0.032 -0.6624 -0.0212 -0.4680
    2TTP    C3814485   6.370   5.753  -0.050 -0.1898 -0.4443 -0.7013
    2TTP    C3914486   6.429   5.678  -0.159  0.2128  0.2313  0.4770
    2TTP    C4014487   6.580   5.696  -0.178 -0.4057  0.1309 -0.6041
    2TTP    C4114488   6.631   5.651  -0.313  0.6179 -0.1307  0.0526
    2TTP    C4214489   6.781   5.645  -0.305  0.2786 -0.0365  0.0629
    3TTP     S114490   6.288   4.874   1.187 -0.0840  0.1742 -0.3341
    3TTP     S514491   6.554   5.136   1.400 -0.2476 -0.0265  0.1214
    3TTP     C114492   6.586   4.965   1.453 -0.0324 -0.1161 -0.2914
    3TTP     C214493   6.506   4.874   1.390  0.0309 -0.0594 -0.4564
    3TTP     C314494   6.416   4.936   1.298 -0.0883  0.0567 -0.2627
    3TTP     C414495   6.255   5.045   1.134 -0.2991  0.2638  0.0788
    3TTP    C1714496   6.335   5.136   1.197 -0.3623  0.2070  0.2438
    3TTP    C1814497   6.425   5.074   1.289 -0.2432  0.0908  0.0501
    3TTP    C3214498   6.506   4.723   1.410 -0.3219  0.3316  0.1977
    3TTP    C3314499   6.377   4.643   1.422  0.3474  0.1320 -0.6404
    3TTP    C3414500   6.412   4.503   1.474  0.2225  0.0276 -0.2726
    3TTP    C3514501   6.305   4.395   1.509 -0.0204  0.3643  0.1185
    3TTP    C3614502   6.197   4.362   1.405  0.5417 -0.3776  0.0032
    3TTP    C3714503   6.122   4.246   1.457 -0.2778 -0.0467 -0.5340
    3TTP    C3814504   6.017   4.200   1.359 -0.0870 -0.5990 -0.5266
    3TTP    C3914505   5.950   4.076   1.402  0.4794  0.0062 -0.0464
    3TTP    C4014506   5.911   3.985   1.282  0.6066 -0.5203 -0.0183
    3TTP    C4114507   5.863   3.845   1.321  0.3407  0.5967  0.2800
    3TTP    C4214508   5.859   3.736   1.210 -0.4711  0.0689 -0.3632
    4BIM     F114509   6.538   6.523   0.647 -0.1805  0.3659 -0.0374
    4BIM     F214510   6.337   6.672   0.541 -0.2450  0.3002 -0.0069
    4BIM     O114511   6.302   6.037   0.676  0.0223  0.2626 -0.1159
    4BIM     N514512   5.878   6.539   0.409 -0.1932  0.1322 -0.0192
    4BIM     N614513   5.735   6.129   0.454 -0.0217  0.0648 -0.0868
    4BIM    C1914514   6.026   6.006   0.586  0.0327  0.1631 -0.1148
    4BIM    C2014515   6.093   6.123   0.582 -0.0159  0.1918 -0.0962
    4BIM    C2114516   6.235   6.131   0.631 -0.0179  0.2425 -0.0982
    4BIM    C2214517   6.278   6.271   0.613 -0.0764  0.2632 -0.0749
    4BIM    C2314518   6.401   6.326   0.644 -0.0988  0.3093 -0.0682
    4BIM    C2414519   6.418   6.462   0.619 -0.1558  0.3208 -0.0452
    4BIM    C2514520   6.314   6.538   0.564 -0.1888  0.2869 -0.0296
    4BIM    C2614521   6.191   6.483   0.533 -0.1668  0.2409 -0.0362
    4BIM    C2714522   6.171   6.346   0.558 -0.1093  0.2285 -0.0594
    4BIM    C2814523   6.054   6.258   0.537 -0.0734  0.1833 -0.0718
    4BIM    C2914524   5.932   6.296   0.485 -0.0904  0.1417 -0.0625
    4BIM    C3014525   5.903   6.429   0.444 -0.1467  0.1365 -0.0388
    4BIM    C3114526   5.824   6.204   0.468 -0.0525  0.0995 -0.0759
    5BIM     F114527   7.166   5.353   1.887 -0.2394 -0.0926 -0.1132
    5BIM     F214528   7.212   5.122   2.023 -0.1996 -0.0769 -0.1001
    5BIM     O114529   6.776   5.195   1.546 -0.1873 -0.1884 -0.1286
    5BIM     N514530   7.001   4.677   1.976 -0.1054 -0.1222 -0.0926
    5BIM     N614531   6.687   4.600   1.682 -0.0728 -0.2000 -0.1073
    5BIM    C1914532   6.682   4.918   1.555 -0.1308 -0.2070 -0.1217
    5BIM    C2014533   6.778   4.966   1.636 -0.1454 -0.1836 -0.1183
    5BIM    C2114534   6.821   5.110   1.625 -0.1745 -0.1754 -0.1222
    5BIM    C2214535   6.927   5.130   1.726 -0.1842 -0.1491 -0.1170
    5BIM    C2314536   6.997   5.246   1.754 -0.2098 -0.1334 -0.1182
    5BIM    C2414537   7.093   5.241   1.854 -0.2145 -0.1093 -0.1124
    5BIM    C2514538   7.116   5.122   1.924 -0.1940 -0.1012 -0.1057
    5BIM    C2614539   7.046   5.005   1.897 -0.1683 -0.1166 -0.1045
    5BIM    C2714540   6.949   5.008   1.796 -0.1633 -0.1411 -0.1103
    5BIM    C2814541   6.859   4.903   1.743 -0.1386 -0.1620 -0.1108
    5BIM    C2914542   6.852   4.773   1.785 -0.1143 -0.1615 -0.1055
    5BIM    C3014543   6.934   4.720   1.890 -0.1094 -0.1400 -0.0984
    5BIM    C3114544   6.761   4.678   1.728 -0.0916 -0.1827 -0.1065
    1BTD     S214545   0.932   8.485   0.062  0.1021 -0.0198 -0.1534
    1BTD     N114546   0.843   8.638   0.091 -0.0225 -0.1819  0.3526
    1BTD     N214547   1.095   8.556   0.090  0.0863  0.1433 -0.4764
    1BTD     N314548   1.265   8.980   0.198 -0.1710  0.1826 -0.2207
    1BTD     N414549   0.955   9.081   0.199 -0.3051 -0.2182  0.8008
    1BTD     C514550   0.905   8.868   0.147 -0.1684 -0.1960  0.5743
    1BTD     C614551   0.934   8.730   0.118 -0.0672 -0.1101  0.2596
    1BTD     C714552   1.075   8.685   0.118 -0.0063  0.0720 -0.2044
    1BTD     C814553   1.180   8.779   0.146 -0.0497  0.1588 -0.3306
    1BTD    C1514554   1.147   8.913   0.174 -0.1491  0.0698 -0.0112
    1BTD    C1614555   1.011   8.957   0.175 -0.2078 -0.1059  0.4359
    1BTD    C4314556   1.009   9.169   0.305  0.1861 -0.4159  0.6231
    1BTD    C4414557   0.969   9.317   0.312 -0.6669 -0.0384 -0.1750
    1BTD    C4514558   1.022   9.374   0.446  0.5366  0.2125  0.0898
    1BTD    C4614559   1.011   9.524   0.479 -0.1587  0.0733  0.3196
    1BTD    C4714560   1.022   9.413   0.196  0.5419  0.4598  0.5224
    1BTD    C4814561   0.965   9.379   0.055  0.1467  0.4174  0.2211
    1BTD    C4914562   0.965   9.489  -0.049 -0.1400  0.4889  0.7986
    1BTD    C5014563   0.875   9.471  -0.172  0.0466  0.6294 -0.4471
    1BTD    C7514564   1.294   9.114   0.141  0.3499  0.2563 -0.7573
    1BTD    C7614565   1.412   9.192   0.197  0.1916 -0.3569 -0.1022
    1BTD    C7714566   1.457   9.301   0.101 -1.2069  0.2347 -0.0252
    1BTD    C7814567   1.376   9.424   0.086  1.1851  0.2674  0.3618
    1BTD    C7914568   1.386   9.231   0.347  0.0829 -0.7169 -0.0908
    1BTD    C8014569   1.503   9.307   0.415 -0.1080  0.4577 -0.3918
    1BTD    C8114570   1.453   9.366   0.550 -0.5231 -0.0243 -0.1783
    1BTD    C8214571   1.557   9.424   0.642 -0.3133 -0.0737 -0.0910
    2TTP     S114572   0.608   8.908   0.130 -0.4186 -0.0335  0.0349
    2TTP     S514573   0.663   9.323   0.229  0.4467 -0.0570 -0.3339
    2TTP     C114574   0.486   9.293   0.202  0.3493  0.2236 -0.0186
    2TTP     C214575   0.458   9.163   0.170  0.0763  0.2468  0.1138
    2TTP     C314576   0.576   9.083   0.166 -0.0657  0.0451 -0.0289
    2TTP     C414577   0.785   8.938   0.157 -0.3212 -0.3138 -0.2804
    2TTP    C1714578   0.813   9.068   0.189 -0.0482 -0.3372 -0.4128
    2TTP    C1814579   0.695   9.149   0.194  0.0938 -0.1349 -0.2701
    2TTP    C3214580   0.315   9.102   0.142  0.1975 -0.2946  0.0681
    2TTP    C3314581   0.268   8.978   0.214 -0.3116 -0.3939 -0.7229
    2TTP    C3414582   0.138   8.923   0.169  0.4189 -0.1051  0.1651
    2TTP    C3514583   0.083   8.815   0.258  0.2911 -0.1606  0.2229
    2TTP    C3614584  -0.059   8.798   0.221  0.4879  0.1287  0.0096
    2TTP    C3714585  -0.139   8.703   0.315 -0.7708 -0.6083  0.4490
    2TTP    C3814586  -0.293   8.691   0.290 -0.2354  0.5736 -0.6410
    2TTP    C3914587  -0.383   8.807   0.313  0.1686 -0.2201  0.0297
    2TTP    C4014588  -0.534   8.759   0.327 -0.6790  0.0897 -0.0345
    2TTP    C4114589  -0.595   8.687   0.209  0.0024 -0.3047  0.1262
    2TTP    C4214590  -0.725   8.616   0.236  0.1308 -0.0271 -0.2678
    3TTP     S114591   1.422   8.619   0.176  0.0307 -0.2082  0.2064
    3TTP     S514592   1.618   8.958   0.355  0.0361  0.1264 -0.4256
    3TTP     C114593   1.720   8.810   0.384  0.0436  0.1824 -0.1651
    3TTP     C214594   1.665   8.696   0.331  0.0423  0.0827  0.0454
    3TTP     C314595   1.541   8.723   0.265  0.0354 -0.0417  0.0086
    3TTP     C414596   1.321   8.768   0.146  0.0232 -0.2642 -0.0541
    3TTP    C1714597   1.375   8.881   0.200  0.0245 -0.1642 -0.2646
    3TTP    C1814598   1.499   8.855   0.266  0.0314 -0.0396 -0.2278
    3TTP    C3214599   1.724   8.557   0.333  0.0417  0.4924 -0.2104
    3TTP    C3314600   1.768   8.495   0.199  0.0426  0.2164  0.1041
    3TTP    C3414601   1.901   8.552   0.159  0.0646  0.3404  0.2468
    3TTP    C3514602   1.951   8.470   0.043 -0.3976  0.1464  0.5609
    3TTP    C3614603   2.078   8.519  -0.026 -0.1341  0.4344  0.4638
    3TTP    C3714604   2.102   8.447  -0.156 -0.3033  0.0029 -0.2255
    3TTP    C3814605   2.025   8.485  -0.280 -0.3758  0.0753 -0.3992
    3TTP    C3914606   2.033   8.624  -0.334 -0.0070  0.1728  0.3622
    3TTP    C4014607   2.163   8.669  -0.404  0.3193  0.4448 -0.4882
    3TTP    C4114608   2.200   8.598  -0.535 -0.0484 -0.3350 -0.1173
    3TTP    C4214609   2.337   8.639  -0.584  0.1582 -0.2563  0.3456
    4BIM     F114610   0.425  10.118   0.250  0.1732 -0.1531 -0.0251
    4BIM     F214611   0.162  10.087   0.313  0.2268 -0.0069  0.2730
    4BIM     O114612   0.576   9.602   0.184 -0.1508 -0.2453 -0.0429
    4BIM     N514613  -0.109   9.675   0.356  0.0727  0.1378  0.6890
    4BIM     N614614   0.062   9.278   0.292 -0.1912  0.0360  0.6150
    4BIM    C1914615   0.378   9.389   0.220 -0.2148 -0.1386  0.2356
    4BIM    C2014616   0.350   9.520   0.235 -0.1353 -0.1209  0.2285
    4BIM    C2114617   0.457   9.624   0.214 -0.1071 -0.1788  0.0810
    4BIM    C2214618   0.394   9.755   0.237 -0.0180 -0.1414  0.1133
    4BIM    C2314619   0.453   9.880   0.230  0.0352 -0.1729  0.0119
    4BIM    C2414620   0.373   9.990   0.256  0.1172 -0.1259  0.0688
    4BIM    C2514621   0.237   9.974   0.288  0.1447 -0.0506  0.2225
    4BIM    C2614622   0.177   9.849   0.296  0.0919 -0.0191  0.3242
    4BIM    C2714623   0.257   9.737   0.270  0.0086 -0.0653  0.2687
    4BIM    C2814624   0.225   9.592   0.270 -0.0624 -0.0501  0.3456
    4BIM    C2914625   0.103   9.535   0.296 -0.0607  0.0176  0.4965
    4BIM    C3014626  -0.013   9.612   0.329  0.0127  0.0832  0.6018
    4BIM    C3114627   0.081   9.394   0.294 -0.1325  0.0274  0.5608
    5BIM     F114628   2.194   9.342   0.806 -0.0048  0.0122 -0.0198
    5BIM     F214629   2.363   9.137   0.863  0.1220  0.0839 -0.1339
    5BIM     O114630   1.822   9.086   0.506  0.0452 -0.0925  0.0077
    5BIM     N514631   2.341   8.660   0.733  0.3397  0.1125 -0.2784
    5BIM     N614632   2.017   8.501   0.488  0.3532  0.0160 -0.2339
    5BIM    C1914633   1.851   8.800   0.455  0.1840 -0.0611 -0.0916
    5BIM    C2014634   1.938   8.872   0.528  0.1664 -0.0377 -0.0940
    5BIM    C2114635   1.916   9.019   0.550  0.0939 -0.0560 -0.0411
    5BIM    C2214636   2.029   9.066   0.633  0.0928 -0.0224 -0.0588
    5BIM    C2314637   2.052   9.196   0.679  0.0369 -0.0243 -0.0247
    5BIM    C2414638   2.165   9.216   0.757  0.0482  0.0115 -0.0511
    5BIM    C2514639   2.252   9.111   0.786  0.1136  0.0492 -0.1099
    5BIM    C2614640   2.230   8.981   0.741  0.1695  0.0510 -0.1442
    5BIM    C2714641   2.116   8.958   0.662  0.1590  0.0148 -0.1183
    5BIM    C2814642   2.064   8.835   0.599  0.2069  0.0069 -0.1422
    5BIM    C2914643   2.121   8.710   0.605  0.2756  0.0353 -0.1983
    5BIM    C3014644   2.242   8.683   0.675  0.3106  0.0775 -0.2421
    5BIM    C3114645   2.063   8.596   0.540  0.3179  0.0246 -0.2176
    1BTD     S214646   5.375   1.428   7.231 -0.1366  0.0498  0.0675
    1BTD     N114647   5.251   1.306   7.185 -0.0401  0.0083 -0.0867
    1BTD     N214648   5.309   1.556   7.123 -0.1659  0.0944  0.1379
    1BTD     N314649   4.952   1.598   6.822 -0.0514  0.1102  0.0038
    1BTD     N414650   4.879   1.289   6.899  0.1036  0.0042 -0.2728
    1BTD     C514651   5.058   1.301   7.035  0.0330  0.0075 -0.1805
    1BTD     C614652   5.171   1.364   7.097 -0.0352  0.0288 -0.0780
    1BTD     C714653   5.204   1.504   7.062 -0.1054  0.0769  0.0478
    1BTD     C814654   5.122   1.574   6.967 -0.1044  0.1014  0.0647
    1BTD    C1514655   5.012   1.508   6.908 -0.0364  0.0791 -0.0384
    1BTD    C1614656   4.980   1.373   6.942  0.0316  0.0327 -0.1597
    1BTD    C4314657   4.798   1.290   6.776 -0.0597 -0.0247 -0.1236
    1BTD    C4414658   4.665   1.221   6.733 -0.4509  0.0265 -0.0274
    1BTD    C4514659   4.550   1.275   6.825 -0.0926 -0.1774  0.3360
    1BTD    C4614660   4.552   1.274   6.974  0.3072 -0.2939  0.1068
    1BTD    C4714661   4.643   1.229   6.582 -0.2502  0.5000  0.3998
    1BTD    C4814662   4.526   1.144   6.520 -0.7044  0.3655  0.1637
    1BTD    C4914663   4.545   0.991   6.543  0.2325 -0.5606 -0.5589
    1BTD    C5014664   4.413   0.923   6.526  0.0757  0.1662  0.1661
    1BTD    C7514665   4.824   1.596   6.756  0.2233 -0.1909  0.7266
    1BTD    C7614666   4.703   1.660   6.828 -0.4704  0.7741 -0.0311
    1BTD    C7714667   4.690   1.619   6.979 -0.2518  0.0498 -0.3396
    1BTD    C7814668   4.596   1.706   7.066 -0.3446  0.0669 -0.2620
    1BTD    C7914669   4.571   1.655   6.740 -0.5010  0.0073 -0.2524
    1BTD    C8014670   4.573   1.739   6.614  0.6664  0.0598  0.0359
    1BTD    C8114671   4.490   1.696   6.504  0.0849 -0.4618  0.6400
    1BTD    C8214672   4.539   1.569   6.430  0.1502 -0.5456 -0.1334
    2TTP     S114673   5.038   1.023   7.140 -0.0968 -0.0900 -0.0209
    2TTP     S514674   4.700   0.951   6.884 -0.1600  0.0556  0.0210
    2TTP     C114675   4.738   0.797   6.973 -0.1310  0.0016 -0.0836
    2TTP     C214676   4.845   0.810   7.058 -0.1099 -0.0465 -0.1025
    2TTP     C314677   4.900   0.942   7.055 -0.1156 -0.0425 -0.0353
    2TTP     C414678   4.999   1.176   7.051 -0.1258 -0.0360  0.0837
    2TTP    C1714679   4.893   1.163   6.966 -0.1469  0.0121  0.1027
    2TTP    C1814680   4.838   1.031   6.969 -0.1410  0.0081  0.0353
    2TTP    C3214681   4.905   0.707   7.159 -0.1544 -0.6564 -0.4099
    2TTP    C3314682   5.050   0.678   7.132  0.6033  0.3274 -0.7694
    2TTP    C3414683   5.124   0.655   7.262 -0.1217 -0.0350  0.6636
    2TTP    C3514684   5.272   0.617   7.225  0.3870 -0.2990  0.2216
    2TTP    C3614685   5.369   0.628   7.345  0.3930 -0.1143  0.4618
    2TTP    C3714686   5.353   0.506   7.435  0.0281 -0.6452  0.4533
    2TTP    C3814687   5.434   0.512   7.564 -0.1845 -0.1804  0.3372
    2TTP    C3914688   5.403   0.388   7.646  0.3978 -0.0251 -0.4638
    2TTP    C4014689   5.403   0.412   7.800  0.1329 -0.1467 -0.3729
    2TTP    C4114690   5.306   0.321   7.869 -0.1462  0.2807 -0.3666
    2TTP    C4214691   5.160   0.322   7.841 -0.4016  0.0109 -0.6765
    3TTP     S114692   5.216   1.856   6.936  0.0801 -0.2537 -0.0174
    3TTP     S514693   4.897   1.937   6.660  0.2097 -0.0041 -0.0939
    3TTP     C114694   4.990   2.091   6.688  0.0649  0.0224  0.2563
    3TTP     C214695   5.094   2.075   6.774  0.0166 -0.0531  0.3005
    3TTP     C314696   5.104   1.941   6.822  0.0918 -0.1346  0.0595
    3TTP     C414697   5.123   1.702   6.908  0.2248 -0.2802 -0.3675
    3TTP    C1714698   5.019   1.718   6.821  0.2734 -0.2046 -0.4119
    3TTP    C1814699   5.009   1.852   6.774  0.1981 -0.1231 -0.1708
    3TTP    C3214700   5.187   2.182   6.833 -0.2161  0.1527  1.0186
    3TTP    C3314701   5.145   2.217   6.973  0.2851  0.2514 -0.6403
    3TTP    C3414702   5.262   2.269   7.051 -0.1283 -0.3601  0.0019
    3TTP    C3514703   5.223   2.285   7.201 -0.3751  0.0349  0.0628
    3TTP    C3614704   5.349   2.296   7.284  0.5750 -0.6119  0.3507
    3TTP    C3714705   5.334   2.336   7.429  0.2607  0.1086 -0.2439
    3TTP    C3814706   5.262   2.228   7.510 -0.9423  0.1576  0.1143
    3TTP    C3914707   5.249   2.271   7.655 -0.3697  1.4474 -0.4361
    3TTP    C4014708   5.152   2.181   7.747  0.4711  0.0877 -0.2606
    3TTP    C4114709   5.188   2.034   7.751  0.0806  0.0070 -0.4092
    3TTP    C4214710   5.075   1.946   7.777 -0.5545  0.1474 -0.0901
    4BIM     F114711   3.934   0.691   6.862  0.0229  0.0025 -0.2552
    4BIM     F214712   3.979   0.423   6.846  0.1111  0.0103 -0.1448
    4BIM     O114713   4.436   0.872   6.954 -0.0483  0.1992 -0.2536
    4BIM     N514714   4.400   0.167   6.889  0.1872  0.1618  0.0150
    4BIM     N614715   4.783   0.363   6.964  0.1137  0.3140 -0.0061
    4BIM    C1914716   4.657   0.681   6.972  0.0107  0.2766 -0.1476
    4BIM    C2014717   4.529   0.646   6.949  0.0253  0.2268 -0.1522
    4BIM    C2114718   4.421   0.750   6.942 -0.0073  0.1893 -0.2083
    4BIM    C2214719   4.295   0.678   6.916  0.0194  0.1389 -0.1985
    4BIM    C2314720   4.167   0.732   6.901  0.0042  0.0924 -0.2377
    4BIM    C2414721   4.063   0.644   6.878  0.0358  0.0497 -0.2185
    4BIM    C2514722   4.086   0.506   6.869  0.0812  0.0539 -0.1616
    4BIM    C2614723   4.213   0.451   6.884  0.0967  0.1002 -0.1222
    4BIM    C2714724   4.320   0.539   6.908  0.0652  0.1438 -0.1409
    4BIM    C2814725   4.465   0.513   6.928  0.0705  0.1979 -0.1103
    4BIM    C2914726   4.527   0.391   6.927  0.1099  0.2176 -0.0536
    4BIM    C3014727   4.457   0.268   6.906  0.1523  0.1868 -0.0162
    4BIM    C3114728   4.668   0.376   6.948  0.1118  0.2705 -0.0278
    5BIM     F114729   4.440   2.433   6.175 -0.2524 -0.0169  0.0297
    5BIM     F214730   4.540   2.677   6.241 -0.4764  0.0260  0.2164
    5BIM     O114731   4.756   2.109   6.472  0.0640  0.0452 -0.2391
    5BIM     N514732   4.910   2.797   6.547 -0.5729  0.1318  0.2931
    5BIM     N614733   5.137   2.495   6.766 -0.2806  0.1717  0.0458
    5BIM    C1914734   4.964   2.227   6.640 -0.0376  0.1083 -0.1562
    5BIM    C2014735   4.881   2.299   6.563 -0.1085  0.0909 -0.0958
    5BIM    C2114736   4.776   2.231   6.479 -0.0495  0.0587 -0.1442
    5BIM    C2214737   4.703   2.338   6.408 -0.1522  0.0466 -0.0571
    5BIM    C2314738   4.598   2.323   6.319 -0.1434  0.0176 -0.0633
    5BIM    C2414739   4.545   2.439   6.264 -0.2542  0.0112  0.0302
    5BIM    C2514740   4.596   2.565   6.298 -0.3695  0.0335  0.1260
    5BIM    C2614741   4.702   2.580   6.387 -0.3788  0.0623  0.1329
    5BIM    C2714742   4.757   2.464   6.444 -0.2680  0.0691  0.0391
    5BIM    C2814743   4.868   2.445   6.540 -0.2456  0.0973  0.0192
    5BIM    C2914744   4.945   2.544   6.597 -0.3349  0.1241  0.0933
    5BIM    C3014745   4.925   2.683   6.569 -0.4655  0.1283  0.2031
    5BIM    C3114746   5.050   2.516   6.689 -0.3045  0.1501  0.0668
    1BTD     S214747   6.546   6.693   3.413  0.0213 -0.2796  0.0701
    1BTD     N114748   6.500   6.862   3.373  0.1009 -0.2316  0.1820
    1BTD     N214749   6.402   6.620   3.334  0.0319 -0.1657 -0.0545
    1BTD     N314750   6.027   6.777   3.099  0.1975  0.1533 -0.1065
    1BTD     N414751   6.148   7.076   3.147  0.2825  0.0721  0.1848
    1BTD     C514752   6.315   6.970   3.254  0.1947 -0.0720  0.1799
    1BTD     C614753   6.386   6.856   3.305  0.1299 -0.1380  0.1237
    1BTD     C714754   6.331   6.721   3.284  0.0912 -0.1012 -0.0086
    1BTD     C814755   6.207   6.706   3.212  0.1194 -0.0002 -0.0780
    1BTD    C1514756   6.141   6.820   3.163  0.1831  0.0617 -0.0191
    1BTD    C1614757   6.194   6.951   3.184  0.2203  0.0262  0.1083
    1BTD    C4314758   6.007   7.127   3.148  0.0403  0.4636 -0.4353
    1BTD    C4414759   5.958   7.245   3.060  0.6187  0.0898  0.1325
    1BTD    C4514760   5.970   7.184   2.916  0.2775 -0.0050 -0.1974
    1BTD    C4614761   5.999   7.278   2.800  0.7659 -0.2347 -0.0272
    1BTD    C4714762   5.811   7.285   3.087 -0.6609 -0.2609 -0.3652
    1BTD    C4814763   5.735   7.393   3.005  0.3665 -0.0539 -0.2134
    1BTD    C4914764   5.777   7.536   3.031  0.3187 -0.3534  0.0730
    1BTD    C5014765   5.722   7.628   2.924  1.0011  0.1012  0.1412
    1BTD    C7514766   5.932   6.863   3.014 -0.3391  0.4587  0.8075
    1BTD    C7614767   5.831   6.797   2.913  0.1241 -1.1973  0.1340
    1BTD    C7714768   5.911   6.728   2.798 -0.7030  0.1336 -0.7076
    1BTD    C7814769   5.836   6.655   2.685  0.4518 -0.3555  0.0505
    1BTD    C7914770   5.722   6.897   2.864 -0.8223  0.4906  0.6272
    1BTD    C8014771   5.623   6.956   2.961 -0.2066 -0.4193 -0.4622
    1BTD    C8114772   5.522   7.051   2.891 -0.2667  0.9161  0.0647
    1BTD    C8214773   5.419   7.110   2.994 -0.5721  0.4021 -0.0731
    2TTP     S114774   6.495   7.203   3.272 -0.0817 -0.0081  0.0519
    2TTP     S514775   6.203   7.449   3.074 -0.2093  0.0809  0.3493
    2TTP     C114776   6.351   7.549   3.105 -0.1955  0.0715  0.3127
    2TTP     C214777   6.450   7.479   3.168 -0.1552  0.0434  0.2187
    2TTP     C314778   6.412   7.344   3.194 -0.1340  0.0284  0.1723
    2TTP     C414779   6.347   7.103   3.241 -0.0958  0.0013  0.0885
    2TTP    C1714780   6.247   7.173   3.178 -0.1360  0.0295  0.1825
    2TTP    C1814781   6.285   7.308   3.152 -0.1572  0.0445  0.2289
    2TTP    C3214782   6.588   7.524   3.211 -0.1227  0.4263  0.1074
    2TTP    C3314783   6.618   7.518   3.361  0.0410 -0.2362  0.0683
    2TTP    C3414784   6.764   7.499   3.402 -0.1798 -0.3075  0.1740
    2TTP    C3514785   6.772   7.518   3.551  0.0386  0.3927 -0.3272
    2TTP    C3614786   6.869   7.432   3.624  0.0275  0.0182  0.4278
    2TTP    C3714787   7.017   7.453   3.612 -0.6405 -0.3820 -0.2898
    2TTP    C3814788   7.099   7.344   3.687 -0.0085 -0.5193  0.1052
    2TTP    C3914789   7.230   7.395   3.745 -0.7178 -0.1607 -0.3334
    2TTP    C4014790   7.323   7.295   3.807 -0.3445 -0.0860 -0.1257
    2TTP    C4114791   7.472   7.345   3.799  0.0932  0.1538 -0.1873
    2TTP    C4214792   7.577   7.238   3.807  0.5246  0.2532 -0.1312
    3TTP     S114793   6.110   6.421   3.247 -0.0487 -0.0463 -0.1684
    3TTP     S514794   5.742   6.530   3.054 -0.0460  0.4015  0.0778
    3TTP     C114795   5.728   6.359   3.114 -0.0359  0.2512 -0.3466
    3TTP     C214796   5.841   6.315   3.177 -0.0361  0.1040 -0.4476
    3TTP     C314797   5.942   6.415   3.180 -0.0442  0.1048 -0.1935
    3TTP     C414798   6.125   6.592   3.187 -0.0588  0.1041  0.2559
    3TTP    C1714799   6.012   6.636   3.124 -0.0587  0.2513  0.3570
    3TTP    C1814800   5.910   6.536   3.121 -0.0505  0.2506  0.1029
    3TTP    C3214801   5.860   6.176   3.236 -0.6207  0.2458  0.5020
    3TTP    C3314802   5.866   6.187   3.391 -1.0865 -0.3587  0.1621
    3TTP    C3414803   5.848   6.055   3.454 -0.8049  0.1375 -0.1470
    3TTP    C3514804   5.871   6.063   3.610 -0.3701  0.0903  0.0799
    3TTP    C3614805   5.857   5.923   3.673  0.0291 -0.3692  0.0636
    3TTP    C3714806   5.842   5.930   3.824 -0.5485 -0.3554  0.9838
    3TTP    C3814807   5.968   5.937   3.908  0.1393 -0.3169 -0.5737
    3TTP    C3914808   6.040   6.070   3.914 -0.9472  0.0269 -0.2284
    3TTP    C4014809   5.970   6.200   3.963 -0.4689 -0.0649  0.3930
    3TTP    C4114810   6.044   6.342   3.969  0.4602 -0.3761  0.8864
    3TTP    C4214811   6.180   6.342   4.027  1.0614 -0.2737 -0.4929
    4BIM     F114812   5.815   8.161   3.032 -0.0837 -0.1528  0.3210
    4BIM     F214813   6.010   8.311   2.917 -0.2549 -0.0834  0.1184
    4BIM     O114814   6.086   7.706   3.144  0.2350  0.0062  0.1978
    4BIM     N514815   6.485   8.202   2.831 -0.2741  0.1292 -0.2608
    4BIM     N614816   6.658   7.816   2.941  0.0092  0.2395 -0.3162
    4BIM    C1914817   6.369   7.687   3.073  0.1845  0.1287 -0.0396
    4BIM    C2014818   6.293   7.796   3.050  0.1109  0.0861 -0.0007
    4BIM    C2114819   6.148   7.798   3.089  0.1432  0.0240  0.1226
    4BIM    C2214820   6.096   7.930   3.049  0.0445 -0.0107  0.1358
    4BIM    C2314821   5.966   7.979   3.065  0.0342 -0.0707  0.2348
    4BIM    C2414822   5.941   8.107   3.020 -0.0676 -0.0938  0.2265
    4BIM    C2514823   6.042   8.184   2.961 -0.1557 -0.0581  0.1220
    4BIM    C2614824   6.171   8.136   2.944 -0.1459  0.0014  0.0229
    4BIM    C2714825   6.199   8.006   2.990 -0.0435  0.0260  0.0296
    4BIM    C2814826   6.325   7.927   2.988 -0.0062  0.0868 -0.0584
    4BIM    C2914827   6.446   7.968   2.938 -0.0684  0.1348 -0.1717
    4BIM    C3014828   6.467   8.096   2.879 -0.1812  0.1316 -0.2202
    4BIM    C3114829   6.562   7.884   2.940 -0.0254  0.1922 -0.2506
    5BIM     F114830   5.209   6.273   2.491  0.1265  0.0559 -0.0135
    5BIM     F214831   5.062   6.100   2.643  0.2048 -0.2015 -0.2294
    5BIM     O114832   5.612   6.391   2.833 -0.2350  0.2593  0.3445
    5BIM     N514833   5.139   5.937   3.103  0.0597 -0.4267 -0.2847
    5BIM     N614834   5.484   6.064   3.340 -0.2383 -0.2158  0.0386
    5BIM    C1914835   5.615   6.269   3.099 -0.2885  0.0855  0.2655
    5BIM    C2014836   5.520   6.246   3.007 -0.2006  0.0445  0.1839
    5BIM    C2114837   5.525   6.312   2.872 -0.1785  0.1397  0.2317
    5BIM    C2214838   5.407   6.266   2.798 -0.0775  0.0631  0.1188
    5BIM    C2314839   5.369   6.300   2.668 -0.0247  0.1086  0.1153
    5BIM    C2414840   5.252   6.243   2.619  0.0701  0.0174 -0.0032
    5BIM    C2514841   5.177   6.154   2.697  0.1102 -0.1149 -0.1143
    5BIM    C2614842   5.214   6.119   2.826  0.0581 -0.1614 -0.1115
    5BIM    C2714843   5.332   6.176   2.878 -0.0380 -0.0703  0.0075
    5BIM    C2814844   5.398   6.160   3.010 -0.1122 -0.0870  0.0431
    5BIM    C2914845   5.355   6.082   3.114 -0.1007 -0.2025 -0.0389
    5BIM    C3014846   5.237   6.002   3.108 -0.0124 -0.3253 -0.1737
    5BIM    C3114847   5.426   6.073   3.238 -0.1765 -0.2092  0.0044
    1BTD     S214848   6.521   7.362   0.083 -0.1432  0.1941  0.0800
    1BTD     N114849   6.538   7.184   0.099 -0.2530  0.1776  0.0213
    1BTD     N214850   6.694   7.397   0.117 -0.1142  0.0734  0.0544
    1BTD     N314851   7.078   7.145   0.216 -0.2528 -0.2013 -0.1040
    1BTD     N414852   6.886   6.883   0.194 -0.4240 -0.0728 -0.1448
    1BTD     C514853   6.722   7.030   0.149 -0.3402  0.0455 -0.0649
    1BTD     C614854   6.666   7.160   0.128 -0.2619  0.0881 -0.0127
    1BTD     C714855   6.753   7.280   0.138 -0.1841  0.0296  0.0059
    1BTD     C814856   6.892   7.262   0.168 -0.1887 -0.0684 -0.0288
    1BTD    C1514857   6.943   7.132   0.188 -0.2667 -0.1070 -0.0796
    1BTD    C1614858   6.859   7.018   0.179 -0.3417 -0.0510 -0.0975
    1BTD    C4314859   7.016   6.831   0.154 -0.7046  0.2056  0.4697
    1BTD    C4414860   7.066   6.690   0.185 -0.6816 -0.2309  0.4889
    1BTD    C4514861   7.184   6.655   0.088  0.1312  0.2589  0.0899
    1BTD    C4614862   7.145   6.651  -0.061 -0.4616  0.4922 -0.3321
    1BTD    C4714863   7.112   6.681   0.336  1.1491 -0.5467  0.3845
    1BTD    C4814864   7.149   6.538   0.366 -0.0024  0.1040 -0.0528
    1BTD    C4914865   7.149   6.516   0.521 -0.0185 -0.0989  0.2129
    1BTD    C5014866   7.203   6.388   0.590  0.0399  0.2765  0.2691
    1BTD    C7514867   7.152   7.061   0.319  0.4189  0.1604  0.3380
    1BTD    C7614868   7.307   7.040   0.311 -0.4706  0.6117 -0.2255
    1BTD    C7714869   7.343   6.994   0.164  0.4273 -0.4106 -0.0995
    1BTD    C7814870   7.490   6.982   0.131  0.0304  0.1197 -0.2072
    1BTD    C7914871   7.358   6.950   0.424 -0.0022 -0.2489 -0.6518
    1BTD    C8014872   7.357   7.018   0.564 -1.3959 -0.2467 -0.6490
    1BTD    C8114873   7.384   6.912   0.675  0.8014 -0.1520 -0.4341
    1BTD    C8214874   7.265   6.836   0.738  0.6264 -0.1079  0.1538
    2TTP     S114875   6.502   6.824   0.152 -0.0243 -0.0280  0.1116
    2TTP     S514876   6.791   6.526   0.263  0.2304  0.2537  0.2059
    2TTP     C114877   6.626   6.449   0.264  0.2978  0.1074  0.2083
    2TTP     C214878   6.527   6.537   0.230  0.2230  0.0120  0.1794
    2TTP     C314879   6.578   6.667   0.202  0.1099  0.0507  0.1542
    2TTP     C414880   6.667   6.900   0.151 -0.0916  0.1183  0.1091
    2TTP    C1714881   6.766   6.813   0.185 -0.0169  0.2138  0.1381
    2TTP    C1814882   6.715   6.682   0.213  0.0962  0.1750  0.1633
    2TTP    C3214883   6.373   6.514   0.238 -0.0685 -0.6438 -0.4363
    2TTP    C3314884   6.292   6.506   0.110  0.0336  0.1741  0.1186
    2TTP    C3414885   6.147   6.466   0.134 -0.4159  0.3313  0.1418
    2TTP    C3514886   6.065   6.471   0.000  0.5047  0.1479 -0.2472
    2TTP    C3614887   5.925   6.398   0.006 -0.4490 -1.0714  0.4024
    2TTP    C3714888   5.937   6.250   0.020  0.2075 -0.3096  0.1249
    2TTP    C3814889   5.796   6.188  -0.003 -0.6998  0.1517 -0.1305
    2TTP    C3914890   5.809   6.035   0.013  0.0864  1.0310 -0.1080
    2TTP    C4014891   5.680   5.948   0.017 -0.3494  0.2852 -0.8004
    2TTP    C4114892   5.595   5.940  -0.111 -0.5771  0.1266 -0.0679
    2TTP    C4214893   5.498   6.056  -0.123 -0.3694  0.3331  0.5979
    3TTP     S114894   7.027   7.530   0.143  0.0465 -0.1959 -0.4880
    3TTP     S514895   7.404   7.344   0.233 -0.0380  0.1256  0.5543
    3TTP     C114896   7.432   7.521   0.204 -0.0608  0.0866  0.2947
    3TTP     C214897   7.317   7.589   0.174 -0.0361 -0.0149 -0.0425
    3TTP     C314898   7.203   7.504   0.174  0.0018 -0.0657 -0.1079
    3TTP     C414899   6.998   7.353   0.173  0.0694 -0.1568 -0.2284
    3TTP    C1714900   7.113   7.285   0.202  0.0445 -0.0550  0.1088
    3TTP    C1814901   7.227   7.371   0.203  0.0066 -0.0045  0.1743
    3TTP    C3214902   7.315   7.740   0.150  1.5266  0.1922  0.6346
    3TTP    C3314903   7.252   7.827   0.257  0.0492 -0.6599 -0.4310
    3TTP    C3414904   7.272   7.977   0.228  0.0477  0.0283  0.0017
    3TTP    C3514905   7.197   8.030   0.113  0.1351 -0.0396  0.0887
    3TTP    C3614906   7.221   8.180   0.105  0.2338 -0.3074 -0.5471
    3TTP    C3714907   7.127   8.227  -0.004  0.0956  0.5383  0.0085
    3TTP    C3814908   7.103   8.378  -0.007 -0.2561  0.1617  0.5749
    3TTP    C3914909   7.000   8.423  -0.113  0.0468  0.1837  0.2498
    3TTP    C4014910   6.999   8.375  -0.260  0.0501 -0.2425 -0.2396
    3TTP    C4114911   6.862   8.405  -0.317 -0.0339 -0.4370 -0.4035
    3TTP    C4214912   6.833   8.358  -0.459  0.5568  0.6918  0.0124
    4BIM     F114913   7.005   5.823   0.634 -0.1388  0.3647  0.6185
    4BIM     F214914   6.776   5.677   0.611  0.4481 -0.3519 -0.8997
    4BIM     O114915   6.853   6.289   0.403 -0.6042  0.5349  1.2615
    4BIM     N514916   6.340   5.798   0.412  0.9601 -1.2608 -2.6240
    4BIM     N614917   6.267   6.192   0.236  0.4783 -0.9834 -1.8156
    4BIM    C1914918   6.580   6.314   0.299 -0.2088 -0.0893  0.0394
    4BIM    C2014919   6.628   6.203   0.358 -0.1146 -0.1041 -0.0630
    4BIM    C2114920   6.769   6.197   0.409 -0.3314  0.2285  0.5934
    4BIM    C2214921   6.787   6.063   0.467 -0.1560  0.1178  0.2858
    4BIM    C2314922   6.902   6.011   0.526 -0.2599  0.3330  0.6789
    4BIM    C2414923   6.895   5.881   0.574 -0.0516  0.1679  0.2654
    4BIM    C2514924   6.777   5.806   0.562  0.2507 -0.2015 -0.5167
    4BIM    C2614925   6.663   5.857   0.502  0.3557 -0.4178 -0.9125
    4BIM    C2714926   6.667   5.988   0.454  0.1482 -0.2553 -0.5037
    4BIM    C2814927   6.565   6.071   0.386  0.1856 -0.4064 -0.7491
    4BIM    C2914928   6.436   6.034   0.356  0.4487 -0.7589 -1.4737
    4BIM    C3014929   6.383   5.904   0.387  0.7290 -1.0335 -2.1037
    4BIM    C3114930   6.344   6.121   0.290  0.4634 -0.8804 -1.6576
    5BIM     F114931   8.167   7.348   0.531  0.1981 -0.1600 -0.1356
    5BIM     F214932   8.262   7.579   0.424  0.1447 -0.0464  0.0617
    5BIM     O114933   7.651   7.365   0.369  0.1966 -0.1438 -0.1280
    5BIM     N514934   8.031   7.924   0.154  0.0672  0.1290  0.3509
    5BIM     N614935   7.609   7.890   0.049  0.0765  0.1187  0.3171
    5BIM    C1914936   7.559   7.592   0.209  0.1449 -0.0292  0.0633
    5BIM    C2014937   7.685   7.578   0.254  0.1475 -0.0379  0.0536
    5BIM    C2114938   7.725   7.459   0.336  0.1746 -0.0981 -0.0473
    5BIM    C2214939   7.868   7.476   0.368  0.1702 -0.0917 -0.0309
    5BIM    C2314940   7.949   7.390   0.442  0.1895 -0.1355 -0.1024
    5BIM    C2414941   8.081   7.428   0.459  0.1803 -0.1190 -0.0690
    5BIM    C2514942   8.130   7.547   0.404  0.1527 -0.0604  0.0327
    5BIM    C2614943   8.050   7.633   0.330  0.1338 -0.0165  0.1044
    5BIM    C2714944   7.915   7.597   0.311  0.1423 -0.0323  0.0720
    5BIM    C2814945   7.805   7.664   0.239  0.1273  0.0031  0.1281
    5BIM    C2914946   7.813   7.784   0.171  0.1000  0.0625  0.2295
    5BIM    C3014947   7.933   7.860   0.162  0.0820  0.0988  0.2959
    5BIM    C3114948   7.700   7.842   0.104  0.0874  0.0931  0.2771
    1BTD     S214949   6.183   2.318   4.239 -0.1855 -0.0530  0.1310
    1BTD     N114950   6.138   2.146   4.216 -0.1607 -0.0592  0.1302
    1BTD     N214951   6.067   2.380   4.116 -0.0954 -0.0814  0.0315
    1BTD     N314952   5.750   2.195   3.824  0.1330 -0.1505 -0.1731
    1BTD     N414953   5.837   1.906   3.947  0.0523 -0.1233 -0.0516
    1BTD     C514954   5.980   2.024   4.074 -0.0484 -0.0930  0.0337
    1BTD     C614955   6.044   2.143   4.123 -0.0901 -0.0811  0.0592
    1BTD     C714956   6.004   2.275   4.067 -0.0536 -0.0935  0.0041
    1BTD     C814957   5.903   2.280   3.965  0.0230 -0.1171 -0.0739
    1BTD    C1514958   5.843   2.161   3.920  0.0618 -0.1281 -0.0964
    1BTD    C1614959   5.881   2.034   3.974  0.0264 -0.1163 -0.0431
    1BTD    C4314960   5.771   1.860   3.823 -0.7243  0.2906  0.0305
    1BTD    C4414961   5.689   1.738   3.794 -0.3330 -0.1150 -0.1356
    1BTD    C4514962   5.578   1.713   3.905  0.2890 -0.4348  0.4094
    1BTD    C4614963   5.458   1.813   3.896  0.3882 -0.4007  0.5375
    1BTD    C4714964   5.662   1.704   3.653  0.9657  0.1854  1.3447
    1BTD    C4814965   5.621   1.558   3.624 -0.1601 -0.2832 -1.2703
    1BTD    C4914966   5.604   1.534   3.488  0.7275 -0.0822 -0.1029
    1BTD    C5014967   5.590   1.387   3.457  0.3144 -0.6623  0.2637
    1BTD    C7514968   5.609   2.146   3.822 -0.0391 -0.5622  0.4002
    1BTD    C7614969   5.523   2.149   3.690 -0.0196 -0.2227 -0.2206
    1BTD    C7714970   5.578   2.069   3.573  0.4408  0.1890 -0.9773
    1BTD    C7814971   5.527   2.097   3.432  0.0126 -0.4427  0.2835
    1BTD    C7914972   5.365   2.131   3.710  0.6919 -0.2047  0.2526
    1BTD    C8014973   5.299   2.238   3.801 -0.2444  0.5150  0.1292
    1BTD    C8114974   5.155   2.253   3.755 -0.3667  0.6205 -0.0580
    1BTD    C8214975   5.064   2.307   3.860 -0.1386 -0.0461 -0.2680
    2TTP     S114976   6.128   1.782   4.184  0.0291 -0.3037  0.1023
    2TTP     S514977   5.875   1.528   3.946 -0.2567  0.1653 -0.1003
    2TTP     C114978   5.997   1.424   4.034 -0.3823 -0.0414 -0.1694
    2TTP     C214979   6.082   1.496   4.112 -0.3016 -0.1984 -0.1111
    2TTP     C314980   6.054   1.637   4.106 -0.1374 -0.1611 -0.0094
    2TTP     C414981   6.006   1.886   4.097  0.1549 -0.0970  0.1713
    2TTP    C1714982   5.921   1.813   4.018  0.0739  0.0600  0.1129
    2TTP    C1814983   5.949   1.673   4.024 -0.0901  0.0227  0.0114
    2TTP    C3214984   6.212   1.445   4.177  0.0184 -0.2547 -0.9723
    2TTP    C3314985   6.201   1.452   4.331  0.1199  0.0420 -0.6452
    2TTP    C3414986   6.332   1.407   4.403  0.3133 -0.1144  0.2763
    2TTP    C3514987   6.294   1.384   4.548  0.2246 -0.0017  0.6496
    2TTP    C3614988   6.412   1.356   4.636 -0.5106  0.5288 -0.0301
    2TTP    C3714989   6.388   1.283   4.768  0.3301  0.3061  0.1338
    2TTP    C3814990   6.319   1.367   4.871 -0.6034  0.4089 -0.5832
    2TTP    C3914991   6.364   1.338   5.008 -0.2504  0.5859 -0.7052
    2TTP    C4014992   6.317   1.436   5.114 -0.8507 -0.0275 -0.3947
    2TTP    C4114993   6.372   1.387   5.253 -0.5989 -0.8610 -0.2240
    2TTP    C4214994   6.316   1.450   5.372  0.5846 -0.2240  0.0646
    3TTP     S114995   5.888   2.563   3.866  0.3185 -0.0915 -0.4610
    3TTP     S514996   5.611   2.443   3.560 -0.5044  0.1888  0.1661
    3TTP     C114997   5.649   2.619   3.538 -0.4155  0.1628  0.1112
    3TTP     C214998   5.737   2.667   3.631 -0.1562  0.0747 -0.0858
    3TTP     C314999   5.777   2.565   3.724 -0.0181  0.0246 -0.2003
    3TTP     C415000   5.850   2.386   3.888  0.2296 -0.0656 -0.4061
    3TTP    C1715001   5.762   2.339   3.795 -0.0297  0.0226 -0.2091
    3TTP    C1815002   5.722   2.440   3.703 -0.1676  0.0727 -0.0945
    3TTP    C3215003   5.823   2.794   3.636  0.1290  0.4774 -0.4562
    3TTP    C3315004   5.773   2.912   3.724  0.2120  0.1356 -0.0937
    3TTP    C3415005   5.851   3.039   3.686 -0.6397 -0.5498 -0.1105
    3TTP    C3515006   5.839   3.146   3.797 -0.1550  0.2831  0.1093
    3TTP    C3615007   5.916   3.277   3.778 -0.1935 -0.0144 -0.0276
    3TTP    C3715008   5.910   3.347   3.641 -0.3289  0.0641  0.2274
    3TTP    C3815009   5.771   3.393   3.601  0.2561  0.2012 -0.0793
    3TTP    C3915010   5.752   3.450   3.456 -0.0472  0.4096  0.2586
    3TTP    C4015011   5.605   3.488   3.425 -0.2152  0.2433  0.3743
    3TTP    C4115012   5.514   3.368   3.401  0.5896 -0.6756 -0.0457
    3TTP    C4215013   5.395   3.411   3.318 -0.1135  0.2131  0.2018
    4BIM     F115014   5.714   0.873   3.493 -0.2019  0.1290 -0.0356
    4BIM     F215015   5.780   0.677   3.669  0.1154  0.0556 -0.2362
    4BIM     O115016   5.883   1.312   3.762 -0.4021  0.0814  0.1687
    4BIM     N515017   5.997   0.706   4.113  0.4295 -0.0838 -0.3791
    4BIM     N615018   6.115   1.089   4.288  0.2092 -0.1063 -0.1788
    4BIM    C1915019   6.007   1.280   4.025 -0.1697 -0.0056  0.0497
    4BIM    C2015020   5.962   1.177   3.951 -0.1318  0.0092  0.0062
    4BIM    C2115021   5.899   1.202   3.816 -0.2580  0.0544  0.0725
    4BIM    C2215022   5.861   1.070   3.763 -0.1767  0.0599  0.0008
    4BIM    C2315023   5.800   1.042   3.641 -0.2441  0.0964  0.0263
    4BIM    C2415024   5.774   0.908   3.612 -0.1431  0.0941 -0.0551
    4BIM    C2515025   5.809   0.807   3.703  0.0204  0.0562 -0.1584
    4BIM    C2615026   5.870   0.834   3.824  0.0887  0.0196 -0.1844
    4BIM    C2715027   5.897   0.969   3.855 -0.0117  0.0215 -0.1029
    4BIM    C2815028   5.960   1.031   3.975  0.0223 -0.0112 -0.1038
    4BIM    C2915029   6.007   0.965   4.086  0.1684 -0.0525 -0.1901
    4BIM    C3015030   6.001   0.823   4.100  0.3116 -0.0696 -0.2937
    4BIM    C3115031   6.066   1.033   4.196  0.1901 -0.0818 -0.1833
    5BIM     F115032   4.947   2.629   3.116  0.0553 -0.2703 -0.0678
    5BIM     F215033   5.024   2.866   3.005 -0.1980 -0.0977  0.1220
    5BIM     O115034   5.365   2.529   3.445  0.1912 -0.1160 -0.1930
    5BIM     N515035   5.433   3.134   3.080 -0.4656  0.2605  0.3057
    5BIM     N615036   5.744   3.007   3.360 -0.3083  0.3464  0.1696
    5BIM    C1915037   5.587   2.719   3.456 -0.0027  0.1037 -0.0560
    5BIM    C2015038   5.479   2.735   3.377 -0.0271  0.0582 -0.0319
    5BIM    C2115039   5.369   2.633   3.377  0.0777 -0.0552 -0.1064
    5BIM    C2215040   5.268   2.681   3.281  0.0190 -0.0793 -0.0563
    5BIM    C2315041   5.147   2.620   3.247  0.0783 -0.1746 -0.0955
    5BIM    C2415042   5.067   2.684   3.154  0.0028 -0.1785 -0.0339
    5BIM    C2515043   5.107   2.806   3.097 -0.1276 -0.0894  0.0639
    5BIM    C2615044   5.227   2.867   3.131 -0.1874  0.0060  0.1035
    5BIM    C2715045   5.309   2.804   3.225 -0.1125  0.0114  0.0422
    5BIM    C2815046   5.441   2.842   3.282 -0.1463  0.0995  0.0610
    5BIM    C2915047   5.514   2.954   3.251 -0.2648  0.1999  0.1480
    5BIM    C3015048   5.469   3.053   3.157 -0.3749  0.2329  0.2345
    5BIM    C3115049   5.640   2.983   3.311 -0.2880  0.2799  0.1595
    1BTD     S215050   1.444   6.219   8.698 -0.1074 -0.1396  0.0237
    1BTD     N115051   1.418   6.054   8.764 -0.1436  0.0712  0.5410
    1BTD     N215052   1.622   6.216   8.723 -0.0504 -0.2671 -0.3743
    1BTD     N315053   1.936   5.913   8.895  0.0003 -0.1457 -0.2522
    1BTD     N415054   1.684   5.713   8.946 -0.1145  0.2711  0.8752
    1BTD     C515055   1.560   5.879   8.859 -0.1270  0.1706  0.7019
    1BTD     C615056   1.536   6.008   8.800 -0.1129  0.0374  0.3974
    1BTD     C715057   1.651   6.099   8.777 -0.0608 -0.1518 -0.1147
    1BTD     C815058   1.783   6.055   8.814 -0.0253 -0.1986 -0.2968
    1BTD    C1515059   1.801   5.928   8.871 -0.0408 -0.0639  0.0143
    1BTD    C1615060   1.691   5.841   8.893 -0.0910  0.1182  0.5079
    1BTD    C4315061   1.786   5.616   8.912 -0.9054 -0.7859  0.3454
    1BTD    C4415062   1.807   5.477   8.972  0.2522 -0.3576  0.2051
    1BTD    C4515063   1.891   5.389   8.885  0.0775 -0.6514 -0.4016
    1BTD    C4615064   1.843   5.335   8.753  0.1023 -0.5287 -0.0813
    1BTD    C4715065   1.852   5.485   9.115  0.0250 -0.3815 -0.2335
    1BTD    C4815066   1.887   5.361   9.199  0.2193  0.1652  0.5664
    1BTD    C4915067   1.928   5.390   9.345  0.2138 -0.7876 -0.3947
    1BTD    C5015068   1.970   5.273   9.427  0.0634  0.0093 -0.9917
    1BTD    C7515069   1.988   5.846   9.018 -0.0765  0.2663 -0.4687
    1BTD    C7615070   2.135   5.784   9.042  0.8313 -0.4802 -0.0620
    1BTD    C7715071   2.171   5.679   8.939  0.2421  0.5831 -0.1439
    1BTD    C7815072   2.163   5.707   8.790 -0.1155 -0.2580  0.3033
    1BTD    C7915073   2.137   5.737   9.187 -0.7250  0.0840  0.0184
    1BTD    C8015074   2.280   5.694   9.245 -0.1534 -0.6365 -0.1716
    1BTD    C8115075   2.393   5.798   9.229 -0.4556 -0.2636 -0.7458
    1BTD    C8215076   2.509   5.760   9.323  0.2208  0.9586 -0.1199
    2TTP     S115077   1.300   5.756   8.940  0.1704  0.0159  0.3009
    2TTP     S515078   1.516   5.446   9.146  0.1283 -0.4214 -0.3068
    2TTP     C115079   1.341   5.437   9.195  0.2276 -0.1254  0.1157
    2TTP     C215080   1.264   5.533   9.134  0.2465  0.0272  0.3278
    2TTP     C315081   1.340   5.616   9.047  0.1831 -0.0844  0.1652
    2TTP     C415082   1.475   5.765   8.891  0.0711 -0.2801 -0.1216
    2TTP    C1715083   1.552   5.670   8.952  0.0522 -0.4327 -0.3337
    2TTP    C1815084   1.475   5.587   9.039  0.1156 -0.3211 -0.1707
    2TTP    C3215085   1.116   5.556   9.160 -0.2900 -0.3479  0.2552
    2TTP    C3315086   1.017   5.567   9.048  0.3436  0.1007  0.0339
    2TTP    C3415087   0.874   5.575   9.093  0.4255 -0.6597  0.2071
    2TTP    C3515088   0.763   5.562   8.994  0.0246 -0.2813  0.3615
    2TTP    C3615089   0.633   5.542   9.067 -0.9833  0.1501 -0.2332
    2TTP    C3715090   0.508   5.529   8.978  0.0824  0.0605 -0.2085
    2TTP    C3815091   0.375   5.499   9.047 -0.3129  0.2991  0.7151
    2TTP    C3915092   0.276   5.431   8.944  0.7625  0.2346 -0.6291
    2TTP    C4015093   0.143   5.393   9.019 -0.1434  0.0721  0.0356
    2TTP    C4115094   0.035   5.318   8.940  0.1164  0.5767  0.2703
    2TTP    C4215095   0.031   5.170   8.945 -0.0397 -0.1286  0.2406
    3TTP     S115096   1.988   6.278   8.761  0.1219 -0.1510 -0.1195
    3TTP     S515097   2.297   6.028   8.926  0.1327  0.0532  0.1695
    3TTP     C115098   2.370   6.188   8.880  0.1177  0.0173  0.0214
    3TTP     C215099   2.279   6.275   8.826  0.1135 -0.0479 -0.0763
    3TTP     C315100   2.148   6.218   8.819  0.1219 -0.0718 -0.0381
    3TTP     C415101   1.915   6.118   8.807  0.1369 -0.1152  0.0286
    3TTP    C1715102   2.006   6.031   8.861  0.1411 -0.0499  0.1262
    3TTP    C1815103   2.137   6.088   8.868  0.1327 -0.0261  0.0882
    3TTP    C3215104   2.295   6.420   8.775 -0.2697 -0.1603  0.2196
    3TTP    C3315105   2.305   6.422   8.624 -0.8177 -0.3186 -0.1761
    3TTP    C3415106   2.326   6.559   8.565 -0.1721 -0.2342  0.0005
    3TTP    C3515107   2.440   6.650   8.616  0.7660 -0.3180 -0.2140
    3TTP    C3615108   2.444   6.800   8.572 -0.0235  0.4430 -0.0255
    3TTP    C3715109   2.555   6.871   8.641 -0.2865  0.1645  0.2538
    3TTP    C3815110   2.555   7.018   8.611 -0.3185 -0.2531  1.0864
    3TTP    C3915111   2.698   7.071   8.633 -0.4664 -0.2046  0.1118
    3TTP    C4015112   2.708   7.224   8.648 -0.3995 -0.1599 -0.0274
    3TTP    C4115113   2.838   7.273   8.705 -0.2050 -0.2075 -0.4300
    3TTP    C4215114   2.812   7.412   8.762  0.5688  0.9879 -0.8514
    4BIM     F115115   1.612   4.803   9.640 -0.0990 -0.1111 -0.1986
    4BIM     F215116   1.359   4.702   9.640 -0.1153 -0.0705 -0.2456
    4BIM     O115117   1.540   5.261   9.361 -0.0513  0.0967  0.1302
    4BIM     N515118   0.944   4.884   9.441 -0.1046  0.1364 -0.0789
    4BIM     N615119   0.939   5.263   9.223 -0.0641  0.2906  0.1869
    4BIM    C1915120   1.273   5.328   9.262 -0.0499  0.2095  0.2013
    4BIM    C2015121   1.301   5.216   9.332 -0.0613  0.1556  0.1209
    4BIM    C2115122   1.441   5.189   9.380 -0.0612  0.0997  0.0885
    4BIM    C2215123   1.436   5.061   9.452 -0.0751  0.0495 -0.0012
    4BIM    C2315124   1.541   4.994   9.514 -0.0799 -0.0112 -0.0577
    4BIM    C2415125   1.513   4.874   9.577 -0.0935 -0.0505 -0.1393
    4BIM    C2515126   1.382   4.822   9.576 -0.1019 -0.0295 -0.1635
    4BIM    C2615127   1.277   4.888   9.515 -0.0971  0.0310 -0.1078
    4BIM    C2715128   1.304   5.010   9.451 -0.0834  0.0714 -0.0243
    4BIM    C2815129   1.215   5.104   9.377 -0.0752  0.1376  0.0496
    4BIM    C2915130   1.081   5.089   9.355 -0.0797  0.1749  0.0517
    4BIM    C3015131   1.006   4.976   9.402 -0.0934  0.1535 -0.0205
    4BIM    C3115132   1.003   5.184   9.283 -0.0710  0.2383  0.1259
    5BIM     F115133   3.046   5.806   9.151 -0.0073  0.0526  0.1926
    5BIM     F215134   3.159   6.051   9.192 -0.0092  0.0781  0.0460
    5BIM     O115135   2.568   5.948   8.940  0.0616 -0.0844 -0.0551
    5BIM     N515136   2.981   6.503   9.098  0.0371  0.0168 -0.3419
    5BIM     N615137   2.584   6.564   8.924  0.0913 -0.0952 -0.5057
    5BIM    C1915138   2.506   6.231   8.903  0.0841 -0.1088 -0.2833
    5BIM    C2015139   2.622   6.186   8.954  0.0669 -0.0752 -0.2148
    5BIM    C2115140   2.646   6.039   8.970  0.0561 -0.0646 -0.0987
    5BIM    C2215141   2.781   6.025   9.029  0.0381 -0.0268 -0.0482
    5BIM    C2315142   2.847   5.907   9.062  0.0235 -0.0052  0.0589
    5BIM    C2415143   2.974   5.919   9.117  0.0077  0.0300  0.0881
    5BIM    C2515144   3.032   6.045   9.137  0.0067  0.0428  0.0125
    5BIM    C2615145   2.967   6.163   9.104  0.0213  0.0216 -0.0947
    5BIM    C2715146   2.838   6.153   9.049  0.0374 -0.0141 -0.1256
    5BIM    C2815147   2.743   6.257   9.004  0.0550 -0.0433 -0.2313
    5BIM    C2915148   2.762   6.393   9.008  0.0595 -0.0412 -0.3259
    5BIM    C3015149   2.882   6.453   9.057  0.0471 -0.0094 -0.3345
    5BIM    C3115150   2.664   6.486   8.962  0.0769 -0.0709 -0.4244
    1BTD     S215151   7.792   4.677   1.700  0.0068 -0.0509  0.0767
    1BTD     N115152   7.668   4.589   1.605  0.0080 -0.0745  0.0967
    1BTD     N215153   7.762   4.835   1.621 -0.0550 -0.0504  0.1010
    1BTD     N315154   7.476   5.000   1.287 -0.1786 -0.0921  0.1865
    1BTD     N415155   7.360   4.696   1.267 -0.1011 -0.1217  0.1812
    1BTD     C515156   7.508   4.648   1.429 -0.0498 -0.0987  0.1409
    1BTD     C615157   7.613   4.677   1.523 -0.0354 -0.0806  0.1193
    1BTD     C715158   7.666   4.815   1.532 -0.0706 -0.0670  0.1217
    1BTD     C815159   7.611   4.917   1.446 -0.1186 -0.0726  0.1456
    1BTD    C1515160   7.509   4.884   1.356 -0.1312 -0.0906  0.1663
    1BTD    C1615161   7.458   4.751   1.347 -0.0971 -0.1035  0.1639
    1BTD    C4315162   7.239   4.770   1.230  0.2243 -0.3024 -0.4103
    1BTD    C4415163   7.148   4.731   1.107 -0.2699  0.4834 -0.2079
    1BTD    C4515164   7.007   4.789   1.114  0.1711 -0.1278 -0.0344
    1BTD    C4615165   6.905   4.732   1.214 -0.3404  0.4241  0.2674
    1BTD    C4715166   7.224   4.754   0.968  0.4789 -0.1963 -0.8542
    1BTD    C4815167   7.153   4.735   0.832 -0.3301 -0.4266 -0.0450
    1BTD    C4915168   7.092   4.848   0.756  0.2262  0.3290 -0.1425
    1BTD    C5015169   7.071   4.814   0.607 -0.4646  0.2985 -0.1230
    1BTD    C7515170   7.446   5.012   1.143 -0.0336  0.2860  0.2396
    1BTD    C7615171   7.365   5.129   1.079 -0.3040  1.0432  0.0119
    1BTD    C7715172   7.406   5.162   0.935 -0.2889 -0.2172  0.0349
    1BTD    C7815173   7.390   5.068   0.817  0.1062  0.5333 -0.5461
    1BTD    C7915174   7.217   5.128   1.101 -0.5279  0.6008 -0.7898
    1BTD    C8015175   7.137   5.255   1.084 -0.2511 -0.4137  0.5259
    1BTD    C8115176   6.986   5.234   1.067  0.4963 -0.0192 -0.0373
    1BTD    C8215177   6.914   5.167   1.182  0.6139  0.6478 -0.2843
    2TTP     S115178   7.449   4.353   1.430 -0.0601 -0.1720 -0.1737
    2TTP     S515179   7.197   4.412   1.086 -0.0249  0.1343 -0.1473
    2TTP     C115180   7.208   4.234   1.120 -0.2896  0.1249 -0.1103
    2TTP     C215181   7.286   4.205   1.228 -0.3161  0.0297 -0.1163
    2TTP     C315182   7.340   4.323   1.288 -0.1284 -0.0392 -0.1503
    2TTP     C415183   7.438   4.531   1.396  0.2046 -0.1624 -0.2107
    2TTP    C1715184   7.360   4.560   1.288  0.2310 -0.0673 -0.2047
    2TTP    C1815185   7.305   4.442   1.228  0.0433  0.0014 -0.1707
    2TTP    C3215186   7.341   4.067   1.275  0.6260  0.3188  0.2757
    2TTP    C3315187   7.307   3.994   1.414  0.2390  0.1818  0.1549
    2TTP    C3415188   7.364   3.847   1.434  0.7003 -0.8909  0.6458
    2TTP    C3515189   7.347   3.785   1.570 -0.7521 -0.1114 -0.4235
    2TTP    C3615190   7.393   3.876   1.687  0.0067 -0.0156  0.0633
    2TTP    C3715191   7.383   3.790   1.813  0.0819 -0.1150  0.2313
    2TTP    C3815192   7.402   3.888   1.931 -0.2074  0.0029 -0.2373
    2TTP    C3915193   7.397   3.819   2.063 -0.3624  0.1190 -0.2662
    2TTP    C4015194   7.451   3.901   2.182  0.6495  0.3468 -0.0670
    2TTP    C4115195   7.606   3.910   2.186 -0.1388  0.6694 -0.5686
    2TTP    C4215196   7.665   4.009   2.287 -0.1692 -0.3224  0.3401
    3TTP     S115197   7.705   5.188   1.547  0.1672 -0.0595  0.2899
    3TTP     S515198   7.445   5.380   1.263  0.2313 -0.2530  0.1000
    3TTP     C115199   7.527   5.508   1.362  0.0082 -0.1934  0.2103
    3TTP     C215200   7.612   5.457   1.456 -0.0247 -0.1302  0.2754
    3TTP     C315201   7.616   5.314   1.453  0.1249 -0.1266  0.2406
    3TTP     C415202   7.622   5.060   1.448  0.3903 -0.1190  0.1796
    3TTP    C1715203   7.537   5.111   1.355  0.4232 -0.1822  0.1144
    3TTP    C1815204   7.534   5.254   1.358  0.2735 -0.1861  0.1493
    3TTP    C3215205   7.699   5.535   1.551 -0.2860 -0.4460 -0.0367
    3TTP    C3315206   7.852   5.532   1.526  0.3428  0.4240 -0.0773
    3TTP    C3415207   7.938   5.529   1.646 -0.4171  0.0947  0.0203
    3TTP    C3515208   8.084   5.538   1.604 -0.4285  0.5271  0.5616
    3TTP    C3615209   8.165   5.547   1.731  0.1004  0.8035 -1.0982
    3TTP    C3715210   8.314   5.564   1.708 -0.6862  0.0924  0.1094
    3TTP    C3815211   8.402   5.603   1.833 -0.0078 -0.5685  0.0060
    3TTP    C3915212   8.551   5.590   1.817  0.1909  0.6112 -0.4505
    3TTP    C4015213   8.601   5.453   1.765  0.0145  0.3213  0.2165
    3TTP    C4115214   8.748   5.444   1.752 -0.8244  0.4143 -0.1592
    3TTP    C4215215   8.791   5.307   1.695  0.1145 -0.2889 -0.5419
    4BIM     F115216   6.695   4.234   0.478 -0.3879 -0.1740 -0.0368
    4BIM     F215217   6.707   3.962   0.478 -0.4201 -0.1755  0.1258
    4BIM     O115218   7.013   4.349   0.901 -0.0927  0.0545 -0.3199
    4BIM     N515219   6.950   3.653   0.779 -0.2558 -0.0151  0.1579
    4BIM     N615220   7.195   3.799   1.109 -0.0188  0.1637 -0.0961
    4BIM    C1915221   7.136   4.131   1.051 -0.0186  0.1342 -0.2650
    4BIM    C2015222   7.056   4.112   0.944 -0.0917  0.0767 -0.2002
    4BIM    C2115223   6.996   4.230   0.872 -0.1256  0.0384 -0.2340
    4BIM    C2215224   6.915   4.174   0.763 -0.2053 -0.0209 -0.1454
    4BIM    C2315225   6.840   4.245   0.669 -0.2596 -0.0713 -0.1399
    4BIM    C2415226   6.771   4.170   0.574 -0.3314 -0.1227 -0.0476
    4BIM    C2515227   6.777   4.030   0.574 -0.3477 -0.1233  0.0360
    4BIM    C2615228   6.851   3.960   0.668 -0.2940 -0.0733  0.0310
    4BIM    C2715229   6.922   4.033   0.764 -0.2209 -0.0209 -0.0617
    4BIM    C2815230   7.009   3.989   0.876 -0.1518  0.0392 -0.0920
    4BIM    C2915231   7.040   3.860   0.909 -0.1447  0.0564 -0.0314
    4BIM    C3015232   6.990   3.747   0.838 -0.2060  0.0170  0.0724
    4BIM    C3115233   7.125   3.827   1.019 -0.0755  0.1155 -0.0673
    5BIM     F115234   7.016   5.990   0.938 -0.0210  0.1056  0.2365
    5BIM     F215235   7.183   6.199   0.984  0.1303  0.0184  0.0849
    5BIM     O115236   7.270   5.594   1.207 -0.1515  0.0480  0.2753
    5BIM     N515237   7.605   6.218   1.242  0.2545 -0.1478 -0.1054
    5BIM     N615238   7.770   5.867   1.443  0.1218 -0.1752 -0.0446
    5BIM    C1915239   7.520   5.654   1.346 -0.0536 -0.0556  0.1442
    5BIM    C2015240   7.449   5.745   1.277 -0.0265 -0.0378  0.1404
    5BIM    C2115241   7.322   5.707   1.208 -0.0806  0.0161  0.2102
    5BIM    C2215242   7.271   5.829   1.142 -0.0328  0.0228  0.1861
    5BIM    C2315243   7.156   5.843   1.066 -0.0571  0.0664  0.2311
    5BIM    C2415244   7.129   5.969   1.014 -0.0010  0.0639  0.1954
    5BIM    C2515245   7.215   6.076   1.038  0.0769  0.0190  0.1173
    5BIM    C2615246   7.331   6.063   1.114  0.1016 -0.0248  0.0722
    5BIM    C2715247   7.360   5.936   1.167  0.0458 -0.0229  0.1072
    5BIM    C2815248   7.473   5.889   1.251  0.0526 -0.0620  0.0760
    5BIM    C2915249   7.578   5.965   1.296  0.1196 -0.1110  0.0016
    5BIM    C3015250   7.593   6.104   1.266  0.1934 -0.1310 -0.0570
    5BIM    C3115251   7.683   5.910   1.377  0.1203 -0.1462 -0.0233
    1BTD     S215252   2.526   0.556   1.467 -0.2510  0.1591  0.0335
    1BTD     N115253   2.377   0.507   1.378  0.0134  0.0556 -0.3580
    1BTD     N215254   2.577   0.388   1.502 -0.3240  0.1989  0.3338
    1BTD     N315255   2.414  -0.044   1.414  0.0044  0.0932  0.2392
    1BTD     N415256   2.167   0.104   1.261  0.4201 -0.0834 -0.6133
    1BTD     C515257   2.270   0.295   1.319  0.2207 -0.0148 -0.4810
    1BTD     C615258   2.374   0.375   1.379  0.0325  0.0561 -0.2501
    1BTD     C715259   2.486   0.308   1.449 -0.1563  0.1363  0.1371
    1BTD     C815260   2.489   0.164   1.455 -0.1475  0.1416  0.2742
    1BTD    C1515261   2.386   0.090   1.394  0.0400  0.0706  0.0382
    1BTD    C1615262   2.278   0.155   1.327  0.2220 -0.0067 -0.3350
    1BTD    C4315263   2.077  -0.000   1.322 -0.3025 -0.3412  0.1059
    1BTD    C4415264   1.973  -0.075   1.238 -0.5949  0.4001 -1.0993
    1BTD    C4515265   2.035  -0.174   1.135  0.2511  0.0418  0.4284
    1BTD    C4615266   1.930  -0.228   1.036  0.4519  0.4973  0.1289
    1BTD    C4715267   1.866  -0.130   1.336  0.3503  0.8342 -0.0590
    1BTD    C4815268   1.761  -0.042   1.402  0.3625 -0.1278 -0.4800
    1BTD    C4915269   1.629  -0.109   1.448 -0.5731 -0.4543 -0.2039
    1BTD    C5015270   1.643  -0.227   1.547 -0.1937 -0.0793  0.2480
    1BTD    C7515271   2.373  -0.152   1.316 -0.2618  0.0671 -0.3293
    1BTD    C7615272   2.361  -0.304   1.368  0.4260  0.0454  0.3083
    1BTD    C7715273   2.362  -0.420   1.263  0.5737 -0.4057 -0.4948
    1BTD    C7815274   2.466  -0.406   1.155  0.0051  0.2135  0.0319
    1BTD    C7915275   2.260  -0.302   1.477  0.0479 -0.7058 -0.0691
    1BTD    C8015276   2.242  -0.429   1.554  0.1503 -0.3635 -0.4639
    1BTD    C8115277   2.123  -0.431   1.656 -0.4085  0.1584 -0.4477
    1BTD    C8215278   1.977  -0.432   1.616 -0.1655 -0.3835 -0.6886
    2TTP     S115279   2.125   0.466   1.140  0.2678  0.1236 -0.0701
    2TTP     S515280   1.980   0.115   0.938 -0.1301  0.1879  0.1016
    2TTP     C115281   1.952   0.260   0.831 -0.1446  0.1931  0.1125
    2TTP     C215282   1.995   0.376   0.887 -0.0225  0.1736  0.0600
    2TTP     C315283   2.052   0.356   1.017  0.0868  0.1538  0.0094
    2TTP     C415284   2.153   0.321   1.247  0.2823  0.1184 -0.0809
    2TTP    C1715285   2.110   0.205   1.191  0.1602  0.1379 -0.0285
    2TTP    C1815286   2.053   0.225   1.062  0.0509  0.1578  0.0221
    2TTP    C3215287   1.968   0.525   0.848 -0.5569  0.1908 -0.6188
    2TTP    C3315288   2.095   0.604   0.811  0.1393  0.2918 -0.4728
    2TTP    C3415289   2.091   0.754   0.772 -0.6821  0.5957 -0.1781
    2TTP    C3515290   2.037   0.789   0.633 -0.0357 -0.6117  0.9022
    2TTP    C3615291   1.960   0.916   0.629  0.6145 -0.1704 -0.6723
    2TTP    C3715292   1.900   0.960   0.496  0.0753 -0.2948 -0.5331
    2TTP    C3815293   1.780   0.883   0.438 -0.1810 -0.1326 -0.4019
    2TTP    C3915294   1.716   0.948   0.316 -0.4772  0.7847 -0.2345
    2TTP    C4015295   1.617   0.866   0.231 -0.5174  0.0525  0.1314
    2TTP    C4115296   1.646   0.718   0.195  0.1757  0.1480  0.7739
    2TTP    C4215297   1.762   0.690   0.096 -0.1980 -0.1200 -0.0768
    3TTP     S115298   2.736   0.077   1.606 -0.1723 -0.1073  0.1848
    3TTP     S515299   2.610  -0.333   1.574 -0.3495 -0.0174 -0.2972
    3TTP     C115300   2.762  -0.327   1.674 -0.3542 -0.1988 -0.2777
    3TTP     C215301   2.810  -0.200   1.690 -0.2998 -0.2372 -0.1278
    3TTP     C315302   2.728  -0.103   1.623 -0.2524 -0.1249 -0.0228
    3TTP     C415303   2.584   0.070   1.506 -0.1677  0.0741  0.1653
    3TTP    C1715304   2.536  -0.057   1.490 -0.2222  0.1125  0.0154
    3TTP    C1815305   2.618  -0.153   1.557 -0.2695  0.0002 -0.0896
    3TTP    C3215306   2.938  -0.161   1.768  0.3028  0.1262 -0.2824
    3TTP    C3315307   3.005  -0.028   1.757  0.2860 -0.4971  0.0556
    3TTP    C3415308   3.121  -0.006   1.853 -0.0313  0.2484 -0.2757
    3TTP    C3515309   3.242  -0.097   1.816 -0.1415 -0.2666  0.1867
    3TTP    C3615310   3.335  -0.123   1.934  0.6401 -0.5830  0.1707
    3TTP    C3715311   3.456  -0.202   1.900 -0.7739  0.1312  0.3260
    3TTP    C3815312   3.556  -0.189   2.014 -0.3176  0.3841 -0.2804
    3TTP    C3915313   3.689  -0.244   1.968  0.0551 -0.1218 -0.1995
    3TTP    C4015314   3.808  -0.235   2.069 -0.1073 -0.4406  0.0556
    3TTP    C4115315   3.798  -0.330   2.181  0.0761  0.2896  0.2516
    3TTP    C4215316   3.922  -0.381   2.255  0.0356 -0.0463 -0.2184
    4BIM     F115317   1.856  -0.298   0.231  0.2705  0.0541 -0.2153
    4BIM     F215318   1.755  -0.100   0.073 -0.3097 -0.0072  0.0735
    4BIM     O115319   1.967  -0.021   0.683  0.4440 -0.0763 -0.1778
    4BIM     N515320   1.689   0.381   0.168 -1.0204 -0.1884  0.5153
    4BIM     N615321   1.797   0.557   0.553 -0.7679 -0.2779  0.4864
    4BIM    C1915322   1.911   0.266   0.693 -0.0488 -0.1811  0.1114
    4BIM    C2015323   1.886   0.188   0.585 -0.0698 -0.1459  0.0907
    4BIM    C2115324   1.918   0.042   0.588  0.1935 -0.0927 -0.0614
    4BIM    C2215325   1.880  -0.012   0.456  0.0946 -0.0646 -0.0444
    4BIM    C2315326   1.891  -0.143   0.411  0.2610 -0.0138 -0.1547
    4BIM    C2415327   1.848  -0.170   0.282  0.1192  0.0046 -0.1118
    4BIM    C2515328   1.796  -0.068   0.200 -0.1798 -0.0274  0.0370
    4BIM    C2615329   1.785   0.063   0.245 -0.3472 -0.0780  0.1476
    4BIM    C2715330   1.828   0.092   0.375 -0.2074 -0.0971  0.1064
    4BIM    C2815331   1.830   0.219   0.451 -0.3203 -0.1484  0.1953
    4BIM    C2915332   1.787   0.342   0.407 -0.6031 -0.1901  0.3458
    4BIM    C3015333   1.733   0.363   0.276 -0.8316 -0.1890  0.4385
    4BIM    C3115334   1.793   0.460   0.488 -0.6921 -0.2382  0.4223
    5BIM     F115335   2.496  -1.067   1.915  0.0602 -0.2882 -0.4965
    5BIM     F215336   2.756  -1.140   1.953  0.0528 -0.0196  0.0801
    5BIM     O115337   2.556  -0.552   1.760 -0.1196 -0.2816 -0.5445
    5BIM     N515338   3.171  -0.877   1.899 -0.0861  0.3717  0.8748
    5BIM     N615339   3.166  -0.459   1.770 -0.2252  0.3228  0.7209
    5BIM    C1915340   2.825  -0.438   1.742 -0.1906 -0.0222 -0.0107
    5BIM    C2015341   2.800  -0.565   1.780 -0.1451 -0.0346 -0.0212
    5BIM    C2115342   2.659  -0.616   1.786 -0.1107 -0.1714 -0.3039
    5BIM    C2215343   2.667  -0.756   1.830 -0.0647 -0.1483 -0.2380
    5BIM    C2315344   2.562  -0.845   1.851 -0.0220 -0.2446 -0.4309
    5BIM    C2415345   2.595  -0.974   1.892  0.0169 -0.1986 -0.3178
    5BIM    C2515346   2.729  -1.011   1.912  0.0130 -0.0597 -0.0208
    5BIM    C2615347   2.834  -0.923   1.892 -0.0294  0.0372  0.1730
    5BIM    C2715348   2.803  -0.792   1.850 -0.0692 -0.0079  0.0626
    5BIM    C2815349   2.890  -0.676   1.819 -0.1189  0.0675  0.2076
    5BIM    C2915350   3.027  -0.672   1.827 -0.1369  0.2053  0.4984
    5BIM    C3015351   3.106  -0.785   1.866 -0.1090  0.2961  0.7043
    5BIM    C3115352   3.103  -0.555   1.796 -0.1854  0.2692  0.6191
    1BTD     S215353   2.571   3.039   3.827  0.1873  0.0935  0.0036
    1BTD     N115354   2.701   3.144   3.895  0.1324  0.1444  0.0302
    1BTD     N215355   2.475   3.176   3.760  0.1186  0.0596  0.0325
    1BTD     N315356   2.514   3.644   3.748 -0.1205  0.0822  0.1394
    1BTD     N415357   2.791   3.604   3.913 -0.1036  0.1868  0.1366
    1BTD     C515358   2.745   3.385   3.902  0.0090  0.1652  0.0858
    1BTD     C615359   2.668   3.269   3.866  0.0690  0.1340  0.0578
    1BTD     C715360   2.541   3.287   3.791  0.0613  0.0865  0.0591
    1BTD     C815361   2.499   3.420   3.756 -0.0060  0.0726  0.0883
    1BTD    C1515362   2.577   3.530   3.794 -0.0632  0.1044  0.1150
    1BTD    C1615363   2.699   3.513   3.866 -0.0560  0.1502  0.1139
    1BTD    C4315364   2.764   3.741   3.959 -0.3516  0.1469  0.2383
    1BTD    C4415365   2.865   3.858   3.950  0.2467  0.1484 -0.0245
    1BTD    C4515366   2.913   3.873   3.799  0.2128 -0.3504 -0.4143
    1BTD    C4615367   3.019   3.990   3.782  0.6650  0.4731 -0.2223
    1BTD    C4715368   2.807   3.982   4.022  0.1587 -0.0713 -0.3715
    1BTD    C4815369   2.674   4.037   3.967  0.3496 -0.1730 -1.0414
    1BTD    C4915370   2.622   4.172   4.009  0.5470 -0.7810 -0.5807
    1BTD    C5015371   2.699   4.300   3.963  0.5787 -0.0422  0.5710
    1BTD    C7515372   2.565   3.777   3.713 -0.3380 -0.1473  0.1538
    1BTD    C7615373   2.605   3.813   3.569 -0.0598 -0.0688 -0.0929
    1BTD    C7715374   2.724   3.721   3.522  0.1463  0.3165 -0.6799
    1BTD    C7815375   2.758   3.731   3.375 -0.0406 -0.3022 -0.7153
    1BTD    C7915376   2.642   3.959   3.554 -0.0981 -0.5297 -0.3763
    1BTD    C8015377   2.552   4.071   3.608  0.0429 -0.1084  0.3035
    1BTD    C8115378   2.456   4.118   3.502  0.3007  0.1253  0.1212
    1BTD    C8215379   2.406   4.264   3.530  0.5010  0.4033 -0.3466
    2TTP     S115380   3.011   3.307   4.038 -0.0227  0.0121  0.0572
    2TTP     S515381   3.143   3.716   4.022 -0.2277  0.0627 -0.3934
    2TTP     C115382   3.280   3.613   4.085 -0.2181  0.2176 -0.1569
    2TTP     C215383   3.247   3.480   4.093 -0.1543  0.2109 -0.0038
    2TTP     C315384   3.113   3.455   4.050 -0.1106  0.0836 -0.0678
    2TTP     C415385   2.874   3.409   3.975 -0.0323 -0.1426 -0.1794
    2TTP    C1715386   2.907   3.542   3.967 -0.0961 -0.1361 -0.3323
    2TTP    C1815387   3.041   3.567   4.009 -0.1398 -0.0086 -0.2685
    2TTP    C3215388   3.335   3.365   4.147  0.3459 -0.1362  0.3746
    2TTP    C3315389   3.402   3.267   4.054  0.4037  0.7307  0.4719
    2TTP    C3415390   3.504   3.323   3.953  0.4960 -0.1995  0.3181
    2TTP    C3515391   3.631   3.373   4.014 -0.1460 -0.4935 -0.1819
    2TTP    C3615392   3.725   3.437   3.907  0.0511  0.0280  0.2902
    2TTP    C3715393   3.862   3.480   3.972  0.3893 -0.1552  0.0755
    2TTP    C3815394   3.962   3.537   3.866 -0.1486  0.7358  0.2195
    2TTP    C3915395   4.093   3.589   3.915 -0.1283 -0.3583 -0.6334
    2TTP    C4015396   4.082   3.710   4.004  0.2200 -0.0832 -0.3572
    2TTP    C4115397   4.219   3.746   4.049 -0.6524 -0.0358 -0.3449
    2TTP    C4215398   4.222   3.877   4.135  0.0145  0.4843 -0.1710
    3TTP     S115399   2.214   3.419   3.641  0.2250 -0.1306  0.1160
    3TTP     S515400   2.226   3.849   3.628 -0.3879 -0.1110  0.1586
    3TTP     C115401   2.060   3.794   3.576 -0.2237 -0.3538 -0.1185
    3TTP     C215402   2.047   3.658   3.578 -0.0246 -0.3742 -0.1481
    3TTP     C315403   2.167   3.592   3.619  0.0052 -0.1988  0.0471
    3TTP     C415404   2.380   3.474   3.692  0.0607  0.1122  0.3930
    3TTP    C1715405   2.393   3.610   3.691 -0.1383  0.1326  0.4226
    3TTP    C1815406   2.273   3.676   3.650 -0.1682 -0.0429  0.2274
    3TTP    C3215407   1.927   3.571   3.548 -0.2007  0.0725 -0.0160
    3TTP    C3315408   1.905   3.556   3.398  0.1559  0.4217  0.6635
    3TTP    C3415409   1.779   3.461   3.385  0.0137  0.4838 -0.4269
    3TTP    C3515410   1.763   3.393   3.254  0.7698 -0.2433 -0.8965
    3TTP    C3615411   1.665   3.283   3.238  0.3685  0.4429  0.2525
    3TTP    C3715412   1.513   3.303   3.275  0.3023 -0.8778  0.0245
    3TTP    C3815413   1.408   3.202   3.234  0.4930  0.6364  0.9641
    3TTP    C3915414   1.422   3.065   3.298  0.2950 -0.2474 -0.1275
    3TTP    C4015415   1.417   3.061   3.450  0.6061 -0.1523 -0.4687
    3TTP    C4115416   1.456   2.923   3.488 -0.7259  0.0784 -0.3209
    3TTP    C4215417   1.418   2.891   3.639  0.0971 -0.2612 -0.2579
    4BIM     F115418   3.684   4.308   3.942  0.1932 -0.3591 -0.3557
    4BIM     F215419   3.890   4.213   4.093 -0.2341  0.0248  0.4867
    4BIM     O115420   3.336   3.894   3.970  0.3612 -0.5304 -0.7941
    4BIM     N515421   3.937   3.780   4.328 -0.7287  0.4546  1.3858
    4BIM     N615422   3.624   3.476   4.319 -0.5112  0.2432  0.8733
    4BIM    C1915423   3.409   3.656   4.123  0.0127 -0.2246 -0.1449
    4BIM    C2015424   3.488   3.764   4.110 -0.0129 -0.1965 -0.0676
    4BIM    C2115425   3.444   3.882   4.030  0.1741 -0.3610 -0.4179
    4BIM    C2215426   3.553   3.981   4.036  0.0908 -0.2809 -0.2260
    4BIM    C2315427   3.558   4.107   3.977  0.2044 -0.3784 -0.4260
    4BIM    C2415428   3.672   4.183   3.998  0.0909 -0.2717 -0.1782
    4BIM    C2515429   3.778   4.133   4.075 -0.1292 -0.0740  0.2558
    4BIM    C2615430   3.774   4.008   4.135 -0.2435  0.0241  0.4573
    4BIM    C2715431   3.659   3.930   4.115 -0.1314 -0.0813  0.2117
    4BIM    C2815432   3.624   3.794   4.163 -0.2038 -0.0216  0.3265
    4BIM    C2915433   3.701   3.712   4.242 -0.4089  0.1611  0.7221
    4BIM    C3015434   3.831   3.750   4.289 -0.5840  0.3217  1.0855
    4BIM    C3115435   3.658   3.583   4.284 -0.4640  0.2052  0.8030
    5BIM     F115436   1.981   4.603   3.427  0.1599 -0.1554  0.0462
    5BIM     F215437   1.713   4.565   3.397  0.1073 -0.0981  0.4321
    5BIM     O115438   2.144   4.097   3.529  0.2036 -0.1955 -0.2212
    5BIM     N515439   1.444   4.151   3.426  0.0631 -0.0441  0.7963
    5BIM     N615440   1.626   3.763   3.512  0.1078 -0.0870  0.5095
    5BIM    C1915441   1.946   3.881   3.537  0.1690 -0.1548  0.0524
    5BIM    C2015442   1.916   4.010   3.512  0.1600 -0.1470  0.1047
    5BIM    C2115443   2.023   4.115   3.510  0.1791 -0.1692 -0.0445
    5BIM    C2215444   1.956   4.243   3.481  0.1628 -0.1534  0.0607
    5BIM    C2315445   2.014   4.369   3.468  0.1716 -0.1649 -0.0160
    5BIM    C2415446   1.930   4.476   3.440  0.1525 -0.1456  0.1124
    5BIM    C2515447   1.792   4.456   3.425  0.1255 -0.1160  0.3111
    5BIM    C2615448   1.733   4.331   3.437  0.1166 -0.1045  0.3887
    5BIM    C2715449   1.817   4.222   3.465  0.1356 -0.1237  0.2610
    5BIM    C2815450   1.786   4.077   3.484  0.1328 -0.1185  0.2959
    5BIM    C2915451   1.663   4.018   3.477  0.1095 -0.0925  0.4718
    5BIM    C3015452   1.543   4.091   3.449  0.0840 -0.0659  0.6496
    5BIM    C3115453   1.643   3.878   3.496  0.1087 -0.0896  0.4915
    1BTD     S215454   1.496   0.537   4.715  0.0374  0.1617 -0.1394
    1BTD     N115455   1.491   0.359   4.686 -0.0153  0.1291  0.0646
    1BTD     N215456   1.342   0.570   4.627  0.0677  0.1115 -0.2116
    1BTD     N315457   1.021   0.317   4.396  0.0344 -0.0497  0.0104
    1BTD     N415458   1.204   0.058   4.468 -0.0679 -0.0280  0.3507
    1BTD     C515459   1.339   0.205   4.572 -0.0415  0.0468  0.2099
    1BTD     C615460   1.381   0.335   4.616 -0.0079  0.0848  0.0683
    1BTD     C715461   1.298   0.453   4.583  0.0385  0.0749 -0.0862
    1BTD     C815462   1.177   0.435   4.507  0.0490  0.0276 -0.0916
    1BTD    C1515463   1.140   0.305   4.466  0.0151 -0.0085  0.0499
    1BTD    C1615464   1.220   0.192   4.498 -0.0296  0.0011  0.1989
    1BTD    C4315465   1.158   0.011   4.333 -0.1928  1.0086 -0.3713
    1BTD    C4415466   1.117  -0.135   4.303 -0.3516 -0.7555 -0.6517
    1BTD    C4515467   1.131  -0.169   4.158  0.0889  0.0025 -0.2525
    1BTD    C4615468   1.040  -0.092   4.055  0.1874 -0.1473  0.3591
    1BTD    C4715469   0.986  -0.149   4.382 -0.2317 -0.1066 -0.3099
    1BTD    C4815470   0.925  -0.289   4.392 -0.5366 -0.2354  0.3496
    1BTD    C4915471   0.816  -0.302   4.486  0.1678  0.2035 -0.4715
    1BTD    C5015472   0.766  -0.442   4.512 -0.3013  0.8206  0.1352
    1BTD    C7515473   0.918   0.220   4.368  0.0898  0.1710 -0.2032
    1BTD    C7615474   0.795   0.199   4.466 -0.4270 -0.3168  0.3592
    1BTD    C7715475   0.822   0.169   4.609 -0.6144 -0.0689  1.3345
    1BTD    C7815476   0.888   0.282   4.685 -1.0642 -0.2645  0.9615
    1BTD    C7915477   0.692   0.098   4.416  0.3560  0.3689 -0.7527
    1BTD    C8015478   0.612   0.126   4.291  0.2274 -0.1843  0.1525
    1BTD    C8115479   0.514   0.013   4.280 -0.1783 -0.8026 -1.3012
    1BTD    C8215480   0.411   0.030   4.169 -0.3040 -0.1222 -0.8905
    2TTP     S115481   1.527  -0.001   4.682 -0.0958  0.1031  0.3345
    2TTP     S515482   1.250  -0.306   4.559  0.2568  0.0045 -0.2248
    2TTP     C115483   1.378  -0.383   4.663  0.2526 -0.0075 -0.2284
    2TTP     C215484   1.471  -0.293   4.707  0.1435  0.0222 -0.0560
    2TTP     C315485   1.445  -0.161   4.660  0.0592  0.0556  0.0854
    2TTP     C415486   1.399   0.076   4.578 -0.0916  0.1149  0.3380
    2TTP    C1715487   1.306  -0.014   4.534  0.0175  0.0853  0.1657
    2TTP    C1815488   1.332  -0.146   4.581  0.1018  0.0522  0.0243
    2TTP    C3215489   1.589  -0.324   4.808 -0.7680 -0.4526  0.4050
    2TTP    C3315490   1.722  -0.243   4.795 -0.1024  0.1310 -0.2464
    2TTP    C3415491   1.814  -0.269   4.915  0.1588 -0.2619  0.3931
    2TTP    C3515492   1.940  -0.180   4.922 -0.2197  0.0115  0.3250
    2TTP    C3615493   2.038  -0.181   4.807  0.2881 -0.0611 -0.3402
    2TTP    C3715494   2.161  -0.099   4.857 -0.1856 -0.1266 -0.0325
    2TTP    C3815495   2.256  -0.056   4.740  0.2727  0.3918 -0.2389
    2TTP    C3915496   2.378   0.028   4.784  0.0241  0.1708 -0.1514
    2TTP    C4015497   2.467  -0.036   4.888 -0.6281 -0.2771 -0.9563
    2TTP    C4115498   2.567  -0.149   4.834  0.5474 -0.6942  0.1324
    2TTP    C4215499   2.647  -0.218   4.940  0.3440 -0.6863 -0.4401
    3TTP     S115500   1.042   0.704   4.448  0.2156 -0.1451 -0.2594
    3TTP     S515501   0.743   0.491   4.223  0.1407  0.0922 -0.3842
    3TTP     C115502   0.706   0.669   4.215  0.2264  0.1133 -0.3132
    3TTP     C215503   0.796   0.745   4.283  0.2546  0.0413 -0.2704
    3TTP     C315504   0.898   0.666   4.345  0.2096 -0.0332 -0.2922
    3TTP     C415505   1.078   0.526   4.456  0.1300 -0.1662 -0.3303
    3TTP    C1715506   0.988   0.450   4.387  0.1017 -0.0942 -0.3731
    3TTP    C1815507   0.887   0.529   4.325  0.1468 -0.0197 -0.3513
    3TTP    C3215508   0.804   0.902   4.302 -0.1380  0.1829  0.2586
    3TTP    C3315509   0.776   0.956   4.437  0.1162  0.2635 -0.3147
    3TTP    C3415510   0.627   0.950   4.480 -0.4919  0.2704 -0.1284
    3TTP    C3515511   0.598   1.038   4.598  0.2915 -0.3025 -0.2501
    3TTP    C3615512   0.455   1.015   4.658 -0.7165 -0.4703 -0.1822
    3TTP    C3715513   0.451   1.069   4.802  0.2441 -0.5771  0.2785
    3TTP    C3815514   0.469   1.219   4.833  0.6610  0.5995 -0.7168
    3TTP    C3915515   0.486   1.241   4.988 -0.1457  0.2861  0.8759
    3TTP    C4015516   0.364   1.200   5.074 -0.0935 -0.5745 -0.2622
    3TTP    C4115517   0.422   1.186   5.215 -0.2395 -0.3967  0.4995
    3TTP    C4215518   0.320   1.127   5.313  0.2483 -0.4429  0.2950
    4BIM     F115519   0.972  -1.072   4.470  0.1009  0.0608  0.0075
    4BIM     F215520   1.132  -1.208   4.643  0.4798 -0.0038 -0.3905
    4BIM     O115521   1.168  -0.570   4.520 -0.2685  0.1767  0.3045
    4BIM     N515522   1.503  -1.045   4.927  0.7610 -0.0138 -0.7513
    4BIM     N615523   1.624  -0.625   4.932  0.3959  0.0896 -0.4389
    4BIM    C1915524   1.391  -0.521   4.703 -0.0379  0.1565  0.0297
    4BIM    C2015525   1.335  -0.642   4.684  0.0403  0.1297 -0.0296
    4BIM    C2115526   1.221  -0.660   4.588 -0.0879  0.1423  0.1206
    4BIM    C2215527   1.185  -0.803   4.591  0.0432  0.1061  0.0067
    4BIM    C2315528   1.084  -0.866   4.519 -0.0084  0.1030  0.0813
    4BIM    C2415529   1.069  -1.003   4.539  0.1415  0.0656 -0.0559
    4BIM    C2515530   1.152  -1.072   4.628  0.3366  0.0327 -0.2610
    4BIM    C2615531   1.252  -1.009   4.700  0.3891  0.0355 -0.3364
    4BIM    C2715532   1.269  -0.871   4.682  0.2393  0.0730 -0.1998
    4BIM    C2815533   1.365  -0.776   4.742  0.2453  0.0861 -0.2302
    4BIM    C2915534   1.463  -0.805   4.834  0.4095  0.0625 -0.4102
    4BIM    C3015535   1.485  -0.937   4.885  0.6022  0.0205 -0.5971
    4BIM    C3115536   1.551  -0.706   4.887  0.4011  0.0777 -0.4249
    5BIM     F115537  -0.004   0.374   3.915  0.0505 -0.0856 -0.1901
    5BIM     F215538  -0.068   0.626   3.835 -0.0639 -0.1024 -0.1516
    5BIM     O115539   0.477   0.461   4.148 -0.0573  0.1232 -0.0434
    5BIM     N515540   0.182   1.050   3.885 -0.3056  0.0223  0.0082
    5BIM     N615541   0.571   1.067   4.082 -0.3668  0.1888  0.1152
    5BIM    C1915542   0.587   0.732   4.153 -0.2051  0.1813  0.0455
    5BIM    C2015543   0.468   0.700   4.098 -0.1735  0.1294  0.0070
    5BIM    C2115544   0.419   0.559   4.099 -0.0972  0.1023 -0.0373
    5BIM    C2215545   0.288   0.560   4.031 -0.0799  0.0465 -0.0719
    5BIM    C2315546   0.203   0.451   4.008 -0.0154  0.0060 -0.1181
    5BIM    C2415547   0.084   0.477   3.942 -0.0116 -0.0437 -0.1441
    5BIM    C2515548   0.051   0.607   3.900 -0.0707 -0.0523 -0.1242
    5BIM    C2615549   0.135   0.715   3.923 -0.1352 -0.0120 -0.0782
    5BIM    C2715550   0.256   0.691   3.990 -0.1401  0.0386 -0.0513
    5BIM    C2815551   0.366   0.783   4.030 -0.1999  0.0892 -0.0019
    5BIM    C2915552   0.371   0.919   4.007 -0.2670  0.0972  0.0293
    5BIM    C3015553   0.267   0.990   3.940 -0.2880  0.0560  0.0177
    5BIM    C3115554   0.481   0.999   4.049 -0.3215  0.1476  0.0763
    1BTD     S215555   0.966   2.106   9.075 -0.1538  0.1792 -0.0414
    1BTD     N115556   1.083   2.106   9.211 -0.0965  0.0871 -0.0899
    1BTD     N215557   0.985   2.281   9.040 -0.0877  0.1803 -0.0012
    1BTD     N315558   1.236   2.638   9.214  0.1506  0.0160 -0.0062
    1BTD     N415559   1.357   2.422   9.426  0.1397 -0.0989 -0.1161
    1BTD     C515560   1.225   2.273   9.321  0.0270 -0.0086 -0.1023
    1BTD     C615561   1.128   2.230   9.223 -0.0343  0.0630 -0.0746
    1BTD     C715562   1.074   2.328   9.127 -0.0293  0.1153 -0.0243
    1BTD     C815563   1.118   2.465   9.133  0.0365  0.0932 -0.0050
    1BTD    C1515564   1.212   2.503   9.231  0.0951  0.0223 -0.0334
    1BTD    C1615565   1.265   2.408   9.323  0.0903 -0.0279 -0.0821
    1BTD    C4315566   1.372   2.538   9.514 -0.3034 -0.7958 -0.4876
    1BTD    C4415567   1.275   2.581   9.638 -0.4150  0.5630 -0.1256
    1BTD    C4515568   1.205   2.465   9.721  0.3857 -0.1833  0.2307
    1BTD    C4615569   1.113   2.490   9.845  0.1080  0.4114  0.4653
    1BTD    C4715570   1.305   2.703   9.719 -0.0960 -0.1074 -0.5364
    1BTD    C4815571   1.331   2.834   9.640 -0.1151  0.6385 -0.3353
    1BTD    C4915572   1.381   2.944   9.733  0.6727 -0.4581 -0.1636
    1BTD    C5015573   1.464   3.060   9.675 -0.3149  0.4411  0.4129
    1BTD    C7515574   1.357   2.714   9.262 -0.4389  0.2282  0.4648
    1BTD    C7615575   1.488   2.721   9.175  0.3396 -0.0918 -0.0379
    1BTD    C7715576   1.544   2.577   9.137  0.0552  0.1736 -0.3170
    1BTD    C7815577   1.630   2.568   9.007 -0.3091  0.5532  0.0020
    1BTD    C7915578   1.591   2.822   9.221 -0.1071  0.4965  0.6115
    1BTD    C8015579   1.653   2.806   9.358 -0.2511  1.0578 -0.4399
    1BTD    C8115580   1.739   2.932   9.397  0.4775  0.0359  0.6469
    1BTD    C8215581   1.866   2.908   9.468  0.1185  0.4932 -0.5786
    2TTP     S115582   1.312   2.042   9.509  0.1542  0.1978 -0.0782
    2TTP     S515583   1.601   2.307   9.686 -0.1661  0.1871  0.4649
    2TTP     C115584   1.615   2.144   9.766 -0.3266  0.1883  0.4942
    2TTP     C215585   1.526   2.053   9.716 -0.2371  0.1917  0.3283
    2TTP     C315586   1.444   2.108   9.613 -0.0386  0.1935  0.1717
    2TTP     C415587   1.299   2.205   9.429  0.3146  0.1966 -0.1078
    2TTP    C1715588   1.387   2.296   9.479  0.2251  0.1932  0.0579
    2TTP    C1815589   1.469   2.241   9.582  0.0267  0.1915  0.2148
    2TTP    C3215590   1.500   1.915   9.785  0.0699  0.1671  0.0026
    2TTP    C3315591   1.565   1.791   9.724  0.5253  0.1733  0.1970
    2TTP    C3415592   1.715   1.791   9.698 -0.0692 -0.2625  0.3322
    2TTP    C3515593   1.747   1.652   9.648  0.1844 -0.0734 -0.4382
    2TTP    C3615594   1.881   1.627   9.580 -0.0307  0.0247  0.2484
    2TTP    C3715595   1.898   1.719   9.464  0.5714  0.8438 -0.1981
    2TTP    C3815596   2.039   1.706   9.411 -0.0917  0.0991 -0.1555
    2TTP    C3915597   2.066   1.775   9.279 -0.3161  0.1505 -0.2200
    2TTP    C4015598   1.991   1.736   9.148  0.3758  0.2042  0.1860
    2TTP    C4115599   1.864   1.811   9.122 -0.1653  0.1038  0.0054
    2TTP    C4215600   1.797   1.753   8.999  0.4287 -0.1745 -0.3152
    3TTP     S115601   0.995   2.629   8.904  0.3034  0.1946 -0.1923
    3TTP     S515602   1.238   2.961   9.029 -0.0606  0.4322 -0.1113
    3TTP     C115603   1.143   3.011   8.881  0.1009  0.2690 -0.2715
    3TTP     C215604   1.063   2.911   8.834  0.2228  0.1861 -0.3061
    3TTP     C315605   1.073   2.792   8.913  0.1931  0.2483 -0.2069
    3TTP     C415606   1.090   2.580   9.051  0.1419  0.3577 -0.0322
    3TTP    C1715607   1.170   2.679   9.098  0.0200  0.4407  0.0025
    3TTP    C1815608   1.160   2.798   9.020  0.0497  0.3784 -0.0963
    3TTP    C3215609   0.977   2.914   8.713  0.8339 -0.4078  0.0358
    3TTP    C3315610   0.825   2.919   8.729  0.2413  0.2038 -0.6746
    3TTP    C3415611   0.753   2.943   8.601 -0.5828 -0.3931 -0.2351
    3TTP    C3515612   0.604   2.911   8.617 -1.0281 -0.6342 -0.4138
    3TTP    C3615613   0.513   2.953   8.500  0.2035 -0.2273 -0.9281
    3TTP    C3715614   0.380   2.878   8.502 -0.2838  0.2143 -0.0402
    3TTP    C3815615   0.289   2.931   8.393  0.5518  0.2586 -0.3441
    3TTP    C3915616   0.142   2.892   8.401 -0.1076 -0.2445 -0.7215
    3TTP    C4015617   0.046   2.980   8.331  0.3791  0.3071  0.0652
    3TTP    C4115618  -0.098   2.944   8.373 -0.1228 -0.3355  0.7554
    3TTP    C4215619  -0.199   3.047   8.330 -0.0398 -1.0214 -0.4523
    4BIM     F115620   2.355   2.439   9.975  0.0808  0.0507  0.0509
    4BIM     F215621   2.374   2.241  10.161  0.3952 -0.2343 -0.2819
    4BIM     O115622   1.871   2.329   9.760 -0.0206  0.0215  0.2922
    4BIM     N515623   2.057   1.878  10.275  0.7753 -0.6649 -0.5884
    4BIM     N615624   1.675   1.832  10.069  0.6328 -0.6303 -0.3327
    4BIM    C1915625   1.717   2.101   9.861  0.2440 -0.2612  0.0600
    4BIM    C2015626   1.838   2.136   9.908  0.2572 -0.2427  0.0123
    4BIM    C2115627   1.911   2.255   9.851  0.1157 -0.0939  0.1391
    4BIM    C2215628   2.038   2.265   9.924  0.1711 -0.1127  0.0456
    4BIM    C2315629   2.139   2.359   9.906  0.0826 -0.0055  0.1094
    4BIM    C2415630   2.251   2.349   9.988  0.1611 -0.0495 -0.0037
    4BIM    C2515631   2.261   2.247  10.083  0.3232 -0.1966 -0.1751
    4BIM    C2615632   2.161   2.152  10.101  0.4123 -0.3040 -0.2397
    4BIM    C2715633   2.047   2.161  10.020  0.3349 -0.2615 -0.1271
    4BIM    C2815634   1.924   2.078  10.014  0.3941 -0.3472 -0.1544
    4BIM    C2915635   1.896   1.968  10.092  0.5468 -0.4952 -0.3053
    4BIM    C3015636   1.985   1.919  10.192  0.6719 -0.5880 -0.4604
    4BIM    C3115637   1.774   1.894  10.079  0.5932 -0.5687 -0.3195
    5BIM     F115638   1.651   3.652   8.927  0.1439 -0.0080 -0.3748
    5BIM     F215639   1.459   3.803   8.807  0.0088  0.0249 -0.1173
    5BIM     O115640   1.415   3.165   8.927  0.1726 -0.0219 -0.3076
    5BIM     N515641   1.014   3.672   8.635 -0.1650  0.0624  0.3002
    5BIM     N615642   0.868   3.261   8.659 -0.1152  0.0449  0.3009
    5BIM    C1915643   1.147   3.136   8.813  0.0538  0.0047 -0.0379
    5BIM    C2015644   1.214   3.252   8.817  0.0518  0.0068 -0.0651
    5BIM    C2115645   1.352   3.259   8.878  0.1151 -0.0074 -0.2060
    5BIM    C2215646   1.395   3.400   8.866  0.0951 -0.0007 -0.1998
    5BIM    C2315647   1.516   3.455   8.909  0.1364 -0.0093 -0.3054
    5BIM    C2415648   1.534   3.591   8.887  0.1060 -0.0004 -0.2747
    5BIM    C2515649   1.435   3.668   8.826  0.0364  0.0166 -0.1420
    5BIM    C2615650   1.314   3.614   8.783 -0.0052  0.0253 -0.0360
    5BIM    C2715651   1.294   3.476   8.804  0.0247  0.0163 -0.0651
    5BIM    C2815652   1.179   3.389   8.771 -0.0046  0.0218  0.0229
    5BIM    C2915653   1.062   3.427   8.710 -0.0714  0.0375  0.1595
    5BIM    C3015654   1.036   3.561   8.669 -0.1226  0.0512  0.2365
    5BIM    C3115655   0.956   3.335   8.682 -0.0951  0.0415  0.2363
    1BTD     S215656   3.607   0.426   8.415 -0.0823  0.2814 -0.0620
    1BTD     N115657   3.777   0.481   8.438 -0.1553  0.4656  0.0482
    1BTD     N215658   3.591   0.358   8.581 -0.0237  0.0113 -0.1669
    1BTD     N315659   3.866   0.317   8.959 -0.0359 -0.2063 -0.1812
    1BTD     N415660   4.095   0.468   8.783 -0.1981  0.3535  0.0834
    1BTD     C515661   3.940   0.472   8.620 -0.1758  0.4003  0.0634
    1BTD     C615662   3.811   0.447   8.561 -0.1334  0.3237  0.0036
    1BTD     C715663   3.707   0.378   8.641 -0.0597  0.0694 -0.1168
    1BTD     C815664   3.738   0.339   8.776 -0.0320 -0.0955 -0.1714
    1BTD    C1515665   3.865   0.366   8.830 -0.0755 -0.0125 -0.1091
    1BTD    C1615666   3.965   0.432   8.753 -0.1464  0.2325  0.0066
    1BTD    C4315667   4.183   0.423   8.889  0.1612 -0.2924 -0.7555
    1BTD    C4415668   4.259   0.286   8.866 -0.2775  0.3834 -0.4872
    1BTD    C4515669   4.355   0.253   8.984  0.1923  0.7462  0.2575
    1BTD    C4615670   4.461   0.351   9.024  0.3280 -0.1112  0.2326
    1BTD    C4715671   4.163   0.167   8.822 -0.2425 -0.2089 -0.2546
    1BTD    C4815672   4.227   0.029   8.795  0.2466  0.0057  0.1636
    1BTD    C4915673   4.129  -0.082   8.746  0.0414 -0.1344  0.9080
    1BTD    C5015674   4.015  -0.129   8.832 -0.2334 -0.4409  0.0230
    1BTD    C7515675   3.956   0.344   9.078 -0.0658 -0.0920  0.6049
    1BTD    C7615676   3.915   0.321   9.221  0.0979 -0.2525 -0.3651
    1BTD    C7715677   3.783   0.384   9.256  0.5590  0.1571  0.5528
    1BTD    C7815678   3.717   0.379   9.395  0.2187 -0.3128 -0.4712
    1BTD    C7915679   4.023   0.346   9.330  0.2397 -0.2959  0.1653
    1BTD    C8015680   4.144   0.255   9.323  0.1593  0.3598  0.6459
    1BTD    C8115681   4.255   0.299   9.411 -0.7175 -0.0581  0.0623
    1BTD    C8215682   4.383   0.210   9.406  0.3471  0.6852  0.3759
    2TTP     S115683   4.120   0.615   8.419 -0.1994  0.1903 -0.0181
    2TTP     S515684   4.433   0.620   8.714  0.2334 -0.3617 -0.4652
    2TTP     C115685   4.495   0.700   8.562  0.0627 -0.2166 -0.4583
    2TTP     C215686   4.402   0.703   8.462 -0.0809 -0.0376 -0.3200
    2TTP     C315687   4.278   0.642   8.502 -0.0616 -0.0085 -0.2141
    2TTP     C415688   4.058   0.535   8.571 -0.0287  0.0452 -0.0248
    2TTP    C1715689   4.152   0.532   8.671  0.1150 -0.1338 -0.1631
    2TTP    C1815690   4.275   0.592   8.631  0.0954 -0.1629 -0.2692
    2TTP    C3215691   4.411   0.759   8.318 -0.1809  0.5723 -0.4236
    2TTP    C3315692   4.329   0.892   8.295 -0.2747  0.3317  0.1034
    2TTP    C3415693   4.355   0.958   8.167  0.1894 -0.1841  0.6001
    2TTP    C3515694   4.231   1.017   8.101 -0.3468 -0.2792  0.3533
    2TTP    C3615695   4.256   1.093   7.971 -0.5230 -0.4028 -0.2645
    2TTP    C3715696   4.137   1.164   7.905  0.0651 -0.9258 -0.2734
    2TTP    C3815697   4.011   1.078   7.889  0.0708  0.2681  0.1183
    2TTP    C3915698   3.895   1.139   7.814 -0.1095 -0.4810 -0.2765
    2TTP    C4015699   3.791   1.035   7.788  0.2546  0.0990  0.8892
    2TTP    C4115700   3.680   1.086   7.693  0.0969  0.1186 -0.0317
    2TTP    C4215701   3.575   0.976   7.677 -0.6881 -0.0844  0.4497
    3TTP     S115702   3.553   0.125   8.833  0.1616 -0.0912 -0.0544
    3TTP     S515703   3.830  -0.023   9.128  0.0545 -0.3420 -0.0787
    3TTP     C115704   3.709  -0.154   9.090  0.0990 -0.3282 -0.2718
    3TTP     C215705   3.617  -0.116   8.997  0.1347 -0.2499 -0.2761
    3TTP     C315706   3.638   0.018   8.952  0.1281 -0.1980 -0.1261
    3TTP     C415707   3.674   0.256   8.870  0.1171 -0.1050  0.1390
    3TTP    C1715708   3.766   0.218   8.964  0.0813 -0.1832  0.1430
    3TTP    C1815709   3.745   0.084   9.009  0.0879 -0.2351 -0.0067
    3TTP    C3215710   3.494  -0.195   8.953 -0.0757  0.2757  0.6644
    3TTP    C3315711   3.489  -0.259   8.808 -0.4423  0.6451  0.9782
    3TTP    C3415712   3.360  -0.295   8.741  0.0315 -0.2850 -0.5819
    3TTP    C3515713   3.272  -0.392   8.814  0.0736 -0.1527  0.5801
    3TTP    C3615714   3.137  -0.394   8.760 -0.3542  0.3740  0.5612
    3TTP    C3715715   3.037  -0.461   8.851 -0.5022 -0.4772  0.0716
    3TTP    C3815716   2.903  -0.475   8.779 -0.7977  0.0555 -0.1354
    3TTP    C3915717   2.794  -0.559   8.830  0.1912 -0.1155  0.0121
    3TTP    C4015718   2.656  -0.518   8.772  0.5329  0.4386  0.0655
    3TTP    C4115719   2.538  -0.594   8.837 -0.7694  0.0712  0.2518
    3TTP    C4215720   2.401  -0.544   8.777 -0.9630  0.0633  0.2697
    4BIM     F115721   5.202   0.615   8.974  0.1534 -0.2566 -0.2172
    4BIM     F215722   5.305   0.818   8.824  0.0238  0.0926  0.1605
    4BIM     O115723   4.707   0.572   8.761  0.1730 -0.1577 -0.2823
    4BIM     N515724   5.101   1.078   8.457 -0.1484  0.6651  0.6578
    4BIM     N615725   4.692   1.003   8.320 -0.1070  0.6719  0.5310
    4BIM    C1915726   4.629   0.750   8.542  0.0561  0.2110  0.0557
    4BIM    C2015727   4.750   0.753   8.601  0.0561  0.1725  0.0572
    4BIM    C2115728   4.782   0.658   8.713  0.1184 -0.0206 -0.1221
    4BIM    C2215729   4.920   0.688   8.755  0.1012 -0.0139 -0.0703
    4BIM    C2315730   4.994   0.626   8.855  0.1426 -0.1592 -0.1895
    4BIM    C2415731   5.124   0.672   8.877  0.1153 -0.1193 -0.1077
    4BIM    C2515732   5.177   0.776   8.799  0.0485  0.0607  0.0871
    4BIM    C2615733   5.103   0.838   8.699  0.0068  0.2063  0.2067
    4BIM    C2715734   4.972   0.794   8.676  0.0336  0.1687  0.1266
    4BIM    C2815735   4.870   0.838   8.578  0.0035  0.2903  0.2129
    4BIM    C2915736   4.883   0.938   8.485 -0.0613  0.4766  0.4010
    4BIM    C3015737   5.003   1.014   8.470 -0.1090  0.5796  0.5414
    4BIM    C3115738   4.778   0.973   8.395 -0.0861  0.5830  0.4714
    5BIM     F115739   4.261  -0.589   9.518  0.0890  0.0224 -0.2596
    5BIM     F215740   4.099  -0.806   9.499  0.0082  0.0753 -0.1795
    5BIM     O115741   3.969  -0.218   9.254  0.1645  0.0699 -0.2759
    5BIM     N515742   3.656  -0.854   9.283 -0.0541  0.1857 -0.0761
    5BIM     N615743   3.460  -0.520   9.080  0.0210  0.2124 -0.1049
    5BIM    C1915744   3.710  -0.293   9.142  0.1140  0.1375 -0.2053
    5BIM    C2015745   3.790  -0.378   9.209  0.0982  0.1235 -0.2041
    5BIM    C2115746   3.922  -0.332   9.264  0.1262  0.0885 -0.2415
    5BIM    C2215747   3.982  -0.448   9.331  0.0990  0.0811 -0.2301
    5BIM    C2315748   4.105  -0.454   9.396  0.1107  0.0515 -0.2546
    5BIM    C2415749   4.141  -0.576   9.452  0.0796  0.0506 -0.2368
    5BIM    C2515750   4.057  -0.688   9.442  0.0379  0.0781 -0.1958
    5BIM    C2615751   3.935  -0.683   9.376  0.0261  0.1073 -0.1707
    5BIM    C2715752   3.896  -0.560   9.319  0.0572  0.1092 -0.1884
    5BIM    C2815753   3.774  -0.522   9.244  0.0551  0.1359 -0.1707
    5BIM    C2915754   3.668  -0.603   9.213  0.0197  0.1671 -0.1314
    5BIM    C3015755   3.662  -0.741   9.252 -0.0208  0.1774 -0.1009
    5BIM    C3115756   3.554  -0.557   9.140  0.0206  0.1915 -0.1166
    1BTD     S215757   2.187   6.119   9.237 -0.0634 -0.0547 -0.2743
    1BTD     N115758   2.228   6.287   9.188 -0.1199  0.0098 -0.1018
    1BTD     N215759   2.014   6.132   9.190 -0.0518 -0.0896 -0.3283
    1BTD     N315760   1.735   6.463   9.007 -0.1299 -0.0436 -0.1268
    1BTD     N415761   2.000   6.653   9.004 -0.2138  0.0788  0.1519
    1BTD     C515762   2.106   6.476   9.092 -0.1679  0.0443  0.0272
    1BTD     C615763   2.117   6.341   9.142 -0.1268  0.0026 -0.0937
    1BTD     C715764   1.996   6.255   9.143 -0.0887 -0.0530 -0.2205
    1BTD     C815765   1.872   6.307   9.095 -0.0936 -0.0643 -0.2196
    1BTD    C1515766   1.866   6.439   9.047 -0.1345 -0.0221 -0.0984
    1BTD    C1615767   1.981   6.523   9.046 -0.1712  0.0316  0.0235
    1BTD    C4315768   1.898   6.751   8.980  0.2901 -0.5650  0.0678
    1BTD    C4415769   1.914   6.870   8.875 -0.3224  0.6681 -0.0297
    1BTD    C4515770   1.926   6.824   8.733  0.8467  0.4585  0.4229
    1BTD    C4615771   2.043   6.736   8.692 -0.0379 -0.2378  0.3418
    1BTD    C4715772   1.810   6.980   8.901  0.1091 -0.0223 -0.5069
    1BTD    C4815773   1.807   7.101   8.813  0.0382  0.0872 -0.3322
    1BTD    C4915774   1.920   7.202   8.824  0.4454  0.3240  0.1315
    1BTD    C5015775   1.899   7.302   8.940 -0.7599 -0.0315 -0.4432
    1BTD    C7515776   1.687   6.530   8.887  0.0166 -1.0660 -0.4028
    1BTD    C7615777   1.549   6.599   8.864  0.1708 -0.0179  0.3879
    1BTD    C7715778   1.511   6.712   8.962  0.6960 -0.1483 -0.4504
    1BTD    C7815779   1.507   6.691   9.109  0.4927  0.1808 -0.7358
    1BTD    C7915780   1.524   6.634   8.709 -0.6267  0.2989 -0.3639
    1BTD    C8015781   1.390   6.674   8.651  0.0865  0.0634  0.1911
    1BTD    C8115782   1.282   6.582   8.688 -0.0555 -0.6020 -0.1875
    1BTD    C8215783   1.155   6.630   8.618  0.6691 -0.0548 -0.3166
    2TTP     S115784   2.361   6.617   9.150  0.0268  0.0410  0.2520
    2TTP     S515785   2.190   6.985   9.008 -0.0328 -0.1748 -0.2370
    2TTP     C115786   2.357   7.020   9.072 -0.1584 -0.0089  0.0007
    2TTP     C215787   2.419   6.908   9.120 -0.1475  0.0676  0.1659
    2TTP     C315788   2.338   6.791   9.108 -0.0393 -0.0021  0.1106
    2TTP     C415789   2.194   6.583   9.086  0.1525 -0.1248  0.0145
    2TTP    C1715790   2.132   6.694   9.038  0.1416 -0.2011 -0.1510
    2TTP    C1815791   2.213   6.811   9.050  0.0335 -0.1314 -0.0951
    2TTP    C3215792   2.548   6.909   9.202  0.1779  0.0398 -0.5278
    2TTP    C3315793   2.665   6.829   9.145 -0.4881 -0.3807 -0.2750
    2TTP    C3415794   2.735   6.867   9.014  1.2126 -0.8496  0.4633
    2TTP    C3515795   2.792   7.008   9.007  0.0920 -0.4032 -0.8522
    2TTP    C3615796   2.902   7.042   9.107  0.1907  0.4543 -0.7787
    2TTP    C3715797   2.920   7.185   9.126  0.4650 -0.6867  0.3689
    2TTP    C3815798   3.023   7.210   9.238 -0.3605  0.0815  0.2962
    2TTP    C3915799   3.051   7.354   9.271 -0.2235 -0.5073  0.6745
    2TTP    C4015800   3.174   7.366   9.359 -0.1630  1.0721 -0.1637
    2TTP    C4115801   3.209   7.505   9.407  1.2335 -0.4330 -0.1900
    2TTP    C4215802   3.356   7.528   9.429 -0.6250  0.2597  0.2427
    3TTP     S115803   1.653   6.105   9.145 -0.0884 -0.2901 -0.1428
    3TTP     S515804   1.355   6.391   9.025  0.0844  0.0556  0.2482
    3TTP     C115805   1.271   6.240   9.081 -0.0089  0.0497  0.0923
    3TTP     C215806   1.358   6.142   9.121 -0.0677 -0.0576 -0.0372
    3TTP     C315807   1.494   6.184   9.109 -0.0413 -0.1388 -0.0188
    3TTP     C415808   1.737   6.256   9.089  0.0049 -0.2843  0.0129
    3TTP    C1715809   1.650   6.353   9.049  0.0637 -0.1771  0.1426
    3TTP    C1815810   1.514   6.312   9.060  0.0373 -0.0960  0.1240
    3TTP    C3215811   1.324   6.008   9.182  0.5654 -0.1498  0.4085
    3TTP    C3315812   1.384   5.969   9.309 -0.5721  0.2879 -0.8440
    3TTP    C3415813   1.322   5.840   9.372  0.8385  0.1749  0.5010
    3TTP    C3515814   1.383   5.779   9.498 -0.1326  0.0781  0.1687
    3TTP    C3615815   1.535   5.747   9.488 -0.0572  0.1605 -0.6857
    3TTP    C3715816   1.573   5.709   9.630 -0.8133 -0.5094  0.1737
    3TTP    C3815817   1.723   5.685   9.634  0.4905  0.4036 -0.3583
    3TTP    C3915818   1.771   5.647   9.771 -0.9601 -0.2081 -0.6933
    3TTP    C4015819   1.920   5.635   9.766  0.0893 -0.2189  0.0384
    3TTP    C4115820   1.973   5.574   9.892 -0.1017 -0.0399 -0.1933
    3TTP    C4215821   2.124   5.560   9.920  0.4636  0.5068  0.1489
    4BIM     F115822   2.301   7.683   8.597 -0.1209  0.0471 -0.0002
    4BIM     F215823   2.474   7.810   8.764 -0.0831  0.0989 -0.0782
    4BIM     O115824   2.273   7.195   8.830 -0.1178  0.1386  0.1924
    4BIM     N515825   2.702   7.645   9.171 -0.0264  0.2389 -0.0527
    4BIM     N615826   2.646   7.238   9.319 -0.0316  0.3003  0.1137
    4BIM    C1915827   2.428   7.143   9.072 -0.0804  0.2209  0.1866
    4BIM    C2015828   2.428   7.261   9.007 -0.0828  0.1957  0.1414
    4BIM    C2115829   2.346   7.280   8.883 -0.1023  0.1539  0.1478
    4BIM    C2215830   2.369   7.418   8.838 -0.0997  0.1349  0.0904
    4BIM    C2315831   2.314   7.482   8.727 -0.1138  0.0962  0.0749
    4BIM    C2415832   2.351   7.614   8.705 -0.1077  0.0848  0.0180
    4BIM    C2515833   2.440   7.679   8.791 -0.0883  0.1118 -0.0220
    4BIM    C2615834   2.495   7.616   8.902 -0.0741  0.1503 -0.0072
    4BIM    C2715835   2.459   7.483   8.926 -0.0800  0.1625  0.0503
    4BIM    C2815836   2.499   7.389   9.034 -0.0688  0.2007  0.0803
    4BIM    C2915837   2.585   7.415   9.138 -0.0492  0.2346  0.0556
    4BIM    C3015838   2.649   7.541   9.156 -0.0368  0.2370 -0.0038
    4BIM    C3115839   2.618   7.317   9.237 -0.0396  0.2706  0.0880
    5BIM     F115840   0.604   6.671   8.862  0.1187 -0.2998 -0.2031
    5BIM     F215841   0.460   6.441   8.876  0.0493 -0.2351  0.1817
    5BIM     O115842   1.095   6.492   9.007  0.1356 -0.2671 -0.2201
    5BIM     N515843   0.601   5.983   8.998 -0.0385 -0.1186  0.7234
    5BIM     N615844   1.013   5.890   9.109 -0.0113 -0.1062  0.6328
    5BIM    C1915845   1.130   6.209   9.071  0.0752 -0.1936  0.1423
    5BIM    C2015846   1.013   6.263   9.034  0.0737 -0.2044  0.1311
    5BIM    C2115847   1.002   6.410   9.003  0.1059 -0.2426 -0.0601
    5BIM    C2215848   0.862   6.435   8.967  0.0950 -0.2451 -0.0203
    5BIM    C2315849   0.804   6.556   8.930  0.1158 -0.2753 -0.1526
    5BIM    C2415850   0.668   6.555   8.900  0.0997 -0.2711 -0.0804
    5BIM    C2515851   0.594   6.436   8.907  0.0640 -0.2377  0.1179
    5BIM    C2615852   0.651   6.315   8.943  0.0431 -0.2075  0.2506
    5BIM    C2715853   0.788   6.314   8.974  0.0589 -0.2112  0.1805
    5BIM    C2815854   0.878   6.204   9.016  0.0443 -0.1848  0.2813
    5BIM    C2915855   0.843   6.072   9.035  0.0103 -0.1493  0.4768
    5BIM    C3015856   0.710   6.023   9.015 -0.0164 -0.1326  0.6115
    5BIM    C3115857   0.937   5.972   9.075 -0.0014 -0.1258  0.5615
    1BTD     S215858   1.168   0.413   4.064  0.1393  0.1391 -0.3234
    1BTD     N115859   1.262   0.545   4.140  0.3856  0.1972 -0.7200
    1BTD     N215860   1.278   0.282   4.120 -0.2433  0.0730  0.2820
    1BTD     N315861   1.672   0.255   4.375 -0.5781  0.0431  0.8000
    1BTD     N415862   1.652   0.579   4.399  0.1970  0.1962 -0.4349
    1BTD     C515863   1.466   0.559   4.275  0.2778  0.1949 -0.5562
    1BTD     C615864   1.365   0.488   4.201  0.1807  0.1660 -0.3974
    1BTD     C715865   1.374   0.341   4.190 -0.1714  0.0964  0.1637
    1BTD     C815866   1.483   0.272   4.254 -0.4087  0.0592  0.5376
    1BTD    C1515867   1.580   0.346   4.325 -0.3024  0.0896  0.3641
    1BTD    C1615868   1.571   0.487   4.336  0.0369  0.1566 -0.1766
    1BTD    C4315869   1.804   0.573   4.401 -0.2033 -0.5240 -0.5677
    1BTD    C4415870   1.884   0.649   4.518  0.2392  1.0841 -0.1470
    1BTD    C4515871   2.035   0.670   4.492  0.2559  0.4111  0.4398
    1BTD    C4615872   2.064   0.764   4.376  0.0623 -0.2616 -0.1043
    1BTD    C4715873   1.847   0.586   4.645 -0.7440  0.0232 -0.1395
    1BTD    C4815874   1.891   0.651   4.777 -0.1160  0.8491  0.2073
    1BTD    C4915875   1.817   0.611   4.901  0.6581  0.0266 -0.4363
    1BTD    C5015876   1.885   0.665   5.023 -0.2013 -0.3592  0.0685
    1BTD    C7515877   1.744   0.272   4.500 -0.3031  0.2192  0.1428
    1BTD    C7615878   1.874   0.197   4.540 -0.4492 -0.1457  0.1054
    1BTD    C7715879   1.922   0.212   4.685  0.3284  0.4340  0.1900
    1BTD    C7815880   1.834   0.209   4.810  0.4989  0.3130  0.0880
    1BTD    C7915881   1.992   0.211   4.438  0.1959  0.1110 -0.4507
    1BTD    C8015882   2.099   0.095   4.439  1.0436 -0.2118 -0.3728
    1BTD    C8115883   2.215   0.118   4.345  0.2223 -0.4066  0.4168
    1BTD    C8215884   2.322   0.214   4.393 -0.1433  0.1146 -0.1905
    2TTP     S115885   1.369   0.837   4.319 -0.0513 -0.0538 -0.1967
    2TTP     S515886   1.686   0.897   4.604 -0.1971 -0.3318  0.0249
    2TTP     C115887   1.570   1.037   4.615 -0.2089 -0.3485  0.1102
    2TTP     C215888   1.466   1.026   4.528 -0.1646 -0.2637  0.0466
    2TTP     C315889   1.473   0.908   4.449 -0.1197 -0.1824 -0.0714
    2TTP     C415890   1.485   0.697   4.307 -0.0396 -0.0371 -0.2820
    2TTP    C1715891   1.590   0.707   4.394 -0.0839 -0.1220 -0.2184
    2TTP    C1815892   1.582   0.826   4.474 -0.1288 -0.2033 -0.1003
    2TTP    C3215893   1.349   1.132   4.505 -0.1549 -0.4106  0.1518
    2TTP    C3315894   1.378   1.227   4.390  0.1617 -0.7328  0.2406
    2TTP    C3415895   1.265   1.332   4.369  0.1295  0.9411 -0.0786
    2TTP    C3515896   1.259   1.399   4.225 -0.3986  0.6113 -0.6921
    2TTP    C3615897   1.250   1.319   4.101 -0.1118  0.0470  1.2584
    2TTP    C3715898   1.125   1.234   4.087 -0.3344 -0.0946 -0.1608
    2TTP    C3815899   1.100   1.155   3.953  0.0006 -0.3748 -0.3641
    2TTP    C3915900   1.089   1.248   3.830 -0.1696  0.2377  0.4666
    2TTP    C4015901   1.022   1.174   3.710 -0.6227  0.3470  0.0161
    2TTP    C4115902   1.022   1.238   3.568 -0.0177 -0.0755  0.2430
    2TTP    C4215903   0.941   1.172   3.458  0.1919  0.0038  0.2103
    3TTP     S115904   1.463  -0.020   4.193 -0.1141  0.2291  0.0640
    3TTP     S515905   1.815  -0.092   4.430 -0.1684 -0.1638  0.0265
    3TTP     C115906   1.749  -0.252   4.373 -0.3136 -0.0870 -0.0241
    3TTP     C215907   1.637  -0.239   4.297 -0.3054  0.0391 -0.0154
    3TTP     C315908   1.598  -0.103   4.280 -0.1841  0.0792  0.0315
    3TTP     C415909   1.528   0.140   4.249  0.0311  0.1519  0.1144
    3TTP    C1715910   1.641   0.127   4.326  0.0229  0.0260  0.1058
    3TTP    C1815911   1.679  -0.010   4.343 -0.0983 -0.0138  0.0590
    3TTP    C3215912   1.580  -0.348   4.216 -1.1346  0.2687 -0.2927
    3TTP    C3315913   1.450  -0.393   4.272 -0.2431 -0.0829  1.0754
    3TTP    C3415914   1.406  -0.511   4.180  0.1832  0.1634 -0.6165
    3TTP    C3515915   1.260  -0.542   4.195 -0.5961 -0.4122 -0.3001
    3TTP    C3615916   1.212  -0.643   4.089  0.4024  0.0671 -0.0486
    3TTP    C3715917   1.062  -0.660   4.091 -0.4277  0.4653  0.1292
    3TTP    C3815918   0.982  -0.543   4.035  0.3091  0.8748 -0.7084
    3TTP    C3915919   0.849  -0.548   4.106  0.1864 -0.0165  0.3357
    3TTP    C4015920   0.772  -0.422   4.091  0.4639  0.0436  0.1496
    3TTP    C4115921   0.708  -0.400   3.952  0.7087 -0.1042  0.5054
    3TTP    C4215922   0.629  -0.271   3.936  0.8402  0.6253  0.2802
    4BIM     F115923   2.085   1.262   5.218 -0.0820 -0.1789 -0.0216
    4BIM     F215924   1.917   1.467   5.278  0.0157 -0.0760 -0.0997
    4BIM     O115925   1.824   1.034   4.802 -0.0859 -0.0881 -0.0691
    4BIM     N515926   1.489   1.600   5.067  0.1536  0.1368 -0.2459
    4BIM     N615927   1.320   1.381   4.729  0.1310  0.1870 -0.2674
    4BIM    C1915928   1.571   1.149   4.711  0.0063  0.0425 -0.1606
    4BIM    C2015929   1.643   1.199   4.813  0.0034  0.0157 -0.1457
    4BIM    C2115930   1.773   1.134   4.854 -0.0453 -0.0518 -0.0982
    4BIM    C2215931   1.825   1.212   4.968 -0.0353 -0.0658 -0.0930
    4BIM    C2315932   1.942   1.190   5.039 -0.0690 -0.1224 -0.0547
    4BIM    C2415933   1.970   1.278   5.143 -0.0508 -0.1244 -0.0582
    4BIM    C2515934   1.884   1.383   5.174 -0.0004 -0.0713 -0.0983
    4BIM    C2615935   1.766   1.406   5.103  0.0334 -0.0147 -0.1364
    4BIM    C2715936   1.736   1.318   4.997  0.0158 -0.0117 -0.1340
    4BIM    C2815937   1.621   1.314   4.903  0.0415  0.0404 -0.1680
    4BIM    C2915938   1.514   1.401   4.901  0.0912  0.1003 -0.2116
    4BIM    C3015939   1.501   1.510   4.992  0.1253  0.1202 -0.2303
    4BIM    C3115940   1.408   1.389   4.806  0.1128  0.1477 -0.2420
    5BIM     F115941   2.476  -0.468   4.681  0.0252 -0.1998 -0.2815
    5BIM     F215942   2.361  -0.695   4.776 -0.1413  0.1068  0.2571
    5BIM     O115943   2.060  -0.245   4.417  0.0715 -0.3085 -0.4469
    5BIM     N515944   1.898  -0.863   4.726 -0.3476  0.4709  0.9137
    5BIM     N615945   1.596  -0.643   4.500 -0.2778  0.3240  0.6758
    5BIM    C1915946   1.801  -0.382   4.415 -0.0711 -0.0534  0.0090
    5BIM    C2015947   1.911  -0.430   4.477 -0.0762 -0.0381  0.0296
    5BIM    C2115948   2.040  -0.353   4.474 -0.0001 -0.1748 -0.2141
    5BIM    C2215949   2.138  -0.432   4.551 -0.0276 -0.1180 -0.1211
    5BIM    C2315950   2.271  -0.401   4.576  0.0209 -0.2022 -0.2748
    5BIM    C2415951   2.344  -0.492   4.652 -0.0190 -0.1237 -0.1420
    5BIM    C2515952   2.284  -0.609   4.701 -0.1048  0.0346  0.1354
    5BIM    C2615953   2.151  -0.640   4.677 -0.1535  0.1192  0.2899
    5BIM    C2715954   2.076  -0.550   4.600 -0.1142  0.0417  0.1591
    5BIM    C2815955   1.934  -0.553   4.556 -0.1475  0.0968  0.2629
    5BIM    C2915956   1.842  -0.651   4.584 -0.2289  0.2449  0.5249
    5BIM    C3015957   1.873  -0.767   4.662 -0.2939  0.3688  0.7378
    5BIM    C3115958   1.707  -0.646   4.538 -0.2554  0.2878  0.6064
    1BTD     S215959   6.605   6.340   2.695 -0.0927  0.0102 -0.2470
    1BTD     N115960   6.470   6.417   2.604 -0.0266 -0.0548 -0.4004
    1BTD     N215961   6.700   6.492   2.710 -0.2671  0.0951  0.0204
    1BTD     N315962   6.651   6.939   2.576 -0.5035  0.1500  0.2884
    1BTD     N415963   6.367   6.846   2.445 -0.2072 -0.0349 -0.2300
    1BTD     C515964   6.420   6.642   2.523 -0.1243 -0.0423 -0.3052
    1BTD     C615965   6.501   6.545   2.590 -0.1326 -0.0124 -0.2521
    1BTD     C715966   6.630   6.587   2.650 -0.2671  0.0715 -0.0165
    1BTD     C815967   6.671   6.724   2.638 -0.3868  0.1216  0.1541
    1BTD    C1515968   6.588   6.816   2.572 -0.3741  0.0897  0.0943
    1BTD    C1615969   6.464   6.776   2.514 -0.2444  0.0089 -0.1327
    1BTD    C4315970   6.391   6.966   2.360  0.1609  0.3063  0.0352
    1BTD    C4415971   6.277   7.069   2.341 -0.5286  0.2132 -0.5482
    1BTD    C4515972   6.203   7.124   2.464 -0.4506 -0.2288  0.0243
    1BTD    C4615973   6.068   7.188   2.451 -0.4998 -0.5773 -0.0090
    1BTD    C4715974   6.312   7.184   2.250  0.1215  0.1077  0.1186
    1BTD    C4815975   6.359   7.141   2.114 -0.1839  0.6460  0.4049
    1BTD    C4915976   6.402   7.264   2.034  0.1935  0.3463 -0.6158
    1BTD    C5015977   6.417   7.236   1.883 -0.2963 -0.6351  0.0337
    1BTD    C7515978   6.574   7.065   2.593 -0.3242  0.4322 -0.0330
    1BTD    C7615979   6.636   7.205   2.542  0.7652 -0.1449  0.1944
    1BTD    C7715980   6.539   7.319   2.579 -0.2600  0.2009 -0.8525
    1BTD    C7815981   6.494   7.322   2.722  0.2171  0.0945  0.3924
    1BTD    C7915982   6.682   7.210   2.392  0.4835  0.3605  0.1741
    1BTD    C8015983   6.749   7.325   2.339 -0.2884 -0.1693  0.0229
    1BTD    C8115984   6.805   7.291   2.205 -0.2011 -0.2617 -0.1631
    1BTD    C8215985   6.948   7.344   2.174 -0.2869  0.0902 -0.3750
    2TTP     S115986   6.165   6.510   2.420 -0.3091  0.0537  0.2124
    2TTP     S515987   6.055   6.881   2.234  0.0821  0.0154 -0.0969
    2TTP     C115988   5.932   6.755   2.188 -0.0891  0.1232  0.0648
    2TTP     C215989   5.959   6.633   2.243 -0.2199  0.1414  0.1699
    2TTP     C315990   6.077   6.635   2.323 -0.1898  0.0709  0.1264
    2TTP     C415991   6.288   6.636   2.465 -0.1379 -0.0540  0.0507
    2TTP    C1715992   6.261   6.758   2.411 -0.0069 -0.0722 -0.0544
    2TTP    C1815993   6.143   6.756   2.331 -0.0371 -0.0017 -0.0110
    2TTP    C3215994   5.895   6.496   2.231  0.0893  0.1600 -0.0476
    2TTP    C3315995   5.746   6.490   2.280 -0.2140  0.1316 -0.0270
    2TTP    C3415996   5.682   6.363   2.219 -0.7247 -0.4903 -0.5418
    2TTP    C3515997   5.559   6.305   2.278  0.5346 -0.9110  1.2205
    2TTP    C3615998   5.505   6.187   2.196 -0.2128  0.4269 -0.5446
    2TTP    C3715999   5.420   6.095   2.291 -0.4512  0.0425  0.0956
    2TTP    C3816000   5.372   5.975   2.215  0.0996  0.3782  0.1095
    2TTP    C3916001   5.296   5.872   2.287 -0.2530  0.2098  0.0067
    2TTP    C4016002   5.250   5.766   2.184 -0.2283  0.0452 -0.1241
    2TTP    C4116003   5.137   5.681   2.243 -0.2582 -0.0126  0.7196
    2TTP    C4216004   5.087   5.576   2.143  0.3501  0.2610 -0.4900
    3TTP     S116005   6.942   6.767   2.768 -0.0658 -0.1690 -0.3028
    3TTP     S516006   6.929   7.179   2.646  0.1363 -0.0104  0.2043
    3TTP     C116007   7.086   7.149   2.734  0.2271 -0.2544 -0.0367
    3TTP     C216008   7.099   7.020   2.777  0.1702 -0.3179 -0.2075
    3TTP     C316009   6.986   6.940   2.742  0.0526 -0.1758 -0.1543
    3TTP     C416010   6.785   6.796   2.680 -0.1566  0.0751 -0.0618
    3TTP    C1716011   6.772   6.925   2.637 -0.0995  0.1386  0.1089
    3TTP    C1816012   6.885   7.005   2.672  0.0179 -0.0035  0.0556
    3TTP    C3216013   7.217   6.960   2.848 -0.1825  0.3529 -0.2184
    3TTP    C3316014   7.280   6.835   2.795 -0.8539  0.2349  0.1408
    3TTP    C3416015   7.374   6.769   2.899  0.2759 -0.2216  0.1391
    3TTP    C3516016   7.500   6.708   2.847  0.1038 -0.6093  0.3650
    3TTP    C3616017   7.574   6.650   2.961  0.0694  0.3069  0.5066
    3TTP    C3716018   7.712   6.594   2.923 -0.5340 -0.2199  0.1516
    3TTP    C3816019   7.777   6.539   3.052  0.1604 -0.5545 -0.1207
    3TTP    C3916020   7.910   6.482   3.033 -0.0198  0.4898 -0.7857
    3TTP    C4016021   7.989   6.432   3.160  0.9167 -0.3025 -0.0446
    3TTP    C4116022   7.981   6.532   3.281  0.9461  0.7518 -0.5482
    3TTP    C4216023   8.051   6.485   3.410 -0.0671  0.0825  0.0388
    4BIM     F116024   5.535   7.415   1.903  0.5304  0.0451 -0.4215
    4BIM     F216025   5.400   7.252   1.732 -0.1721 -0.1131  0.2713
    4BIM     O116026   5.838   7.053   2.169  0.6596  0.1395 -0.4396
    4BIM     N516027   5.421   6.761   1.675 -1.0896 -0.2735  1.2544
    4BIM     N616028   5.685   6.511   1.917 -0.8472 -0.1680  1.1005
    4BIM    C1916029   5.816   6.769   2.100  0.0344  0.0216  0.2158
    4BIM    C2016030   5.745   6.867   2.040  0.0293  0.0043  0.1933
    4BIM    C2116031   5.762   7.010   2.081  0.3618  0.0678 -0.1532
    4BIM    C2216032   5.671   7.089   1.996  0.2632  0.0287 -0.0842
    4BIM    C2316033   5.651   7.227   1.997  0.4823  0.0638 -0.3249
    4BIM    C2416034   5.560   7.279   1.907  0.3287  0.0147 -0.1978
    4BIM    C2516035   5.490   7.195   1.819 -0.0331 -0.0671  0.1592
    4BIM    C2616036   5.509   7.058   1.817 -0.2534 -0.1023  0.4008
    4BIM    C2716037   5.601   7.003   1.908 -0.1028 -0.0533  0.2771
    4BIM    C2816038   5.644   6.863   1.931 -0.2608 -0.0718  0.4618
    4BIM    C2916039   5.599   6.751   1.865 -0.6094 -0.1453  0.8144
    4BIM    C3016040   5.501   6.757   1.761 -0.8723 -0.2155  1.0550
    4BIM    C3116041   5.647   6.620   1.894 -0.7381 -0.1572  0.9698
    5BIM     F116042   7.198   7.940   2.542  0.5115 -0.0639 -0.1599
    5BIM     F216043   7.433   7.934   2.678  0.2600 -0.1779  0.2741
    5BIM     O116044   7.030   7.429   2.606  0.1696  0.0041 -0.5096
    5BIM     N516045   7.652   7.561   2.920 -0.3453 -0.2937  0.6486
    5BIM     N616046   7.474   7.164   2.942 -0.5618 -0.2177  0.2879
    5BIM    C1916047   7.195   7.242   2.759 -0.1921 -0.0809 -0.2193
    5BIM    C2016048   7.228   7.371   2.737 -0.0962 -0.0936 -0.1483
    5BIM    C2116049   7.138   7.461   2.658  0.0889 -0.0476 -0.3076
    5BIM    C2216050   7.204   7.593   2.654  0.1544 -0.0758 -0.1765
    5BIM    C2316051   7.158   7.708   2.591  0.3194 -0.0507 -0.2519
    5BIM    C2416052   7.237   7.822   2.601  0.3512 -0.0861 -0.0966
    5BIM    C2516053   7.358   7.819   2.672  0.2214 -0.1448  0.1268
    5BIM    C2616054   7.405   7.703   2.734  0.0565 -0.1702  0.2033
    5BIM    C2716055   7.326   7.588   2.725  0.0218 -0.1349  0.0485
    5BIM    C2816056   7.346   7.451   2.779 -0.1374 -0.1484  0.0746
    5BIM    C2916057   7.453   7.408   2.854 -0.2930 -0.2013  0.2686
    5BIM    C3016058   7.562   7.492   2.890 -0.3213 -0.2519  0.4768
    5BIM    C3116059   7.464   7.274   2.902 -0.4400 -0.2100  0.2781
    1BTD     S216060   8.131   1.515   4.076 -0.0278 -0.1291 -0.0606
    1BTD     N116061   8.263   1.599   4.165 -0.2658 -0.3013  0.4607
    1BTD     N216062   8.031   1.663   4.056  0.2799  0.0218 -0.5422
    1BTD     N316063   8.064   2.116   4.178  0.4771  0.0183 -0.5820
    1BTD     N416064   8.350   2.037   4.311 -0.1957 -0.3798  0.6541
    1BTD     C516065   8.305   1.828   4.240 -0.2213 -0.3375  0.5467
    1BTD     C616066   8.227   1.726   4.175 -0.1118 -0.2406  0.2596
    1BTD     C716067   8.097   1.762   4.114  0.1938 -0.0598 -0.3021
    1BTD     C816068   8.052   1.898   4.121  0.3748  0.0151 -0.5480
    1BTD    C1516069   8.131   1.995   4.186  0.2583 -0.0846 -0.2514
    1BTD    C1616070   8.256   1.960   4.244 -0.0359 -0.2588  0.2896
    1BTD    C4316071   8.369   2.180   4.289  0.0516  0.1967  0.6518
    1BTD    C4416072   8.438   2.270   4.392  0.1764 -1.0820 -0.0998
    1BTD    C4516073   8.358   2.283   4.518  0.5373 -0.3452 -0.5843
    1BTD    C4616074   8.417   2.341   4.651  0.1556  0.2102  0.6980
    1BTD    C4716075   8.485   2.407   4.326 -0.3522  0.3938  0.1042
    1BTD    C4816076   8.566   2.406   4.199  0.4826 -0.1719  0.8209
    1BTD    C4916077   8.703   2.343   4.211  0.4224 -0.4964 -0.0010
    1BTD    C5016078   8.789   2.415   4.312 -0.6742  0.5226  0.2401
    1BTD    C7516079   8.059   2.208   4.296  0.6108 -0.2726 -0.1559
    1BTD    C7616080   8.015   2.354   4.283  0.0771 -0.1396  0.3066
    1BTD    C7716081   8.127   2.424   4.203 -0.2292 -0.0203 -0.0627
    1BTD    C7816082   8.123   2.576   4.158  0.3712 -0.2200 -1.3343
    1BTD    C7916083   7.974   2.401   4.423  0.1904 -0.1316 -0.2663
    1BTD    C8016084   7.917   2.545   4.439 -0.0303  0.1166 -0.2190
    1BTD    C8116085   7.799   2.572   4.353  0.7811  0.3073  0.6213
    1BTD    C8216086   7.727   2.700   4.375 -0.1612 -0.3942 -0.1392
    2TTP     S116087   8.566   1.707   4.326 -0.1314 -0.0920  0.0473
    2TTP     S516088   8.694   2.086   4.484  0.0281 -0.1262  0.0007
    2TTP     C116089   8.827   1.965   4.510  0.0145 -0.1560 -0.0695
    2TTP     C216090   8.795   1.840   4.462 -0.0353 -0.1472 -0.0592
    2TTP     C316091   8.665   1.837   4.404 -0.0648 -0.1166  0.0043
    2TTP     C416092   8.433   1.829   4.300 -0.1178 -0.0622  0.1174
    2TTP    C1716093   8.464   1.953   4.347 -0.0677 -0.0710  0.1073
    2TTP    C1816094   8.595   1.956   4.406 -0.0386 -0.1016  0.0435
    2TTP    C3216095   8.875   1.715   4.457 -0.0228  0.6418 -0.1100
    2TTP    C3316096   8.816   1.592   4.532 -0.6188 -0.0326  0.3506
    2TTP    C3416097   8.899   1.459   4.553 -0.6237 -0.2443 -0.6242
    2TTP    C3516098   9.004   1.486   4.666 -0.4613 -0.0881  0.1683
    2TTP    C3616099   9.108   1.374   4.706  0.7513  0.4014 -0.0213
    2TTP    C3716100   9.052   1.239   4.759 -0.0828  0.0481  0.6461
    2TTP    C3816101   9.153   1.142   4.818  0.5434 -0.2591 -0.8524
    2TTP    C3916102   9.079   1.012   4.865 -0.6673 -0.3770 -0.2717
    2TTP    C4016103   9.161   0.902   4.943  0.1476 -0.5622  0.2636
    2TTP    C4116104   9.061   0.793   4.974 -0.4072 -0.0822 -0.5816
    2TTP    C4216105   9.124   0.683   5.056  0.4773  0.0685  0.5475
    3TTP     S116106   7.785   1.929   3.969 -0.0964 -0.1145  0.0484
    3TTP     S516107   7.796   2.352   4.046  0.2724 -0.0827 -0.1749
    3TTP     C116108   7.645   2.314   3.951  0.2054 -0.0115 -0.0974
    3TTP     C216109   7.633   2.181   3.922  0.0877 -0.0171 -0.0238
    3TTP     C316110   7.742   2.105   3.973  0.0459 -0.0778 -0.0260
    3TTP     C416111   7.935   1.967   4.064 -0.0296 -0.1856 -0.0291
    3TTP    C1716112   7.947   2.099   4.094  0.0883 -0.1800 -0.1025
    3TTP    C1816113   7.838   2.176   4.042  0.1299 -0.1193 -0.1004
    3TTP    C3216114   7.515   2.101   3.857 -0.4851 -1.2107  0.0950
    3TTP    C3316115   7.544   1.993   3.752 -0.4882  0.2557 -0.5552
    3TTP    C3416116   7.424   1.915   3.700  0.4756 -0.3327  0.1403
    3TTP    C3516117   7.332   2.011   3.619 -0.4838 -0.6648 -0.5379
    3TTP    C3616118   7.224   1.942   3.544  0.1486 -0.1753 -0.4794
    3TTP    C3716119   7.262   1.852   3.426  0.5495  0.0147  0.2151
    3TTP    C3816120   7.146   1.781   3.346 -0.1123 -0.4748  0.4644
    3TTP    C3916121   7.211   1.712   3.228  0.4541  0.4246  0.7201
    3TTP    C4016122   7.122   1.599   3.164  0.1984  0.0134  0.1249
    3TTP    C4116123   6.976   1.641   3.122 -0.8424 -0.1293 -0.5059
    3TTP    C4216124   6.875   1.527   3.134  0.1160  0.2683  0.7095
    4BIM     F116125   9.190   2.621   4.845  0.0045  0.1181 -0.2508
    4BIM     F216126   9.419   2.476   4.867 -0.1311 -0.0293  0.2292
    4BIM     O116127   8.857   2.253   4.628  0.1073  0.2066 -0.5590
    4BIM     N516128   9.511   2.006   4.743 -0.2530 -0.1782  0.6998
    4BIM     N616129   9.205   1.748   4.569 -0.1454 -0.0794  0.3622
    4BIM    C1916130   8.957   1.985   4.572  0.0139  0.0971 -0.2098
    4BIM    C2016131   9.032   2.083   4.626 -0.0069  0.0806 -0.1510
    4BIM    C2116132   8.973   2.218   4.652  0.0441  0.1400 -0.3408
    4BIM    C2216133   9.081   2.300   4.710  0.0052  0.1034 -0.2164
    4BIM    C2316134   9.074   2.433   4.751  0.0305  0.1357 -0.3172
    4BIM    C2416135   9.190   2.490   4.803 -0.0167  0.0898 -0.1630
    4BIM    C2516136   9.308   2.415   4.814 -0.0866  0.0139  0.0841
    4BIM    C2616137   9.315   2.282   4.774 -0.1118 -0.0188  0.1861
    4BIM    C2716138   9.199   2.223   4.721 -0.0653  0.0268  0.0329
    4BIM    C2816139   9.174   2.086   4.669 -0.0751  0.0098  0.0829
    4BIM    C2916140   9.265   1.983   4.663 -0.1366 -0.0585  0.3036
    4BIM    C3016141   9.400   1.996   4.707 -0.2005 -0.1241  0.5207
    4BIM    C3116142   9.231   1.854   4.612 -0.1411 -0.0696  0.3346
    5BIM     F116143   7.563   3.126   3.990  0.1647 -0.0485  0.1922
    5BIM     F216144   7.299   3.096   3.930  0.1651  0.0889  0.1208
    5BIM     O116145   7.730   2.611   3.979 -0.0521 -0.1157  0.0154
    5BIM     N516146   7.040   2.685   3.835  0.0108  0.2387 -0.1079
    5BIM     N616147   7.224   2.289   3.838 -0.1585  0.1585 -0.2316
    5BIM    C1916148   7.538   2.400   3.917 -0.1289 -0.0082 -0.1156
    5BIM    C2016149   7.506   2.530   3.922 -0.0744  0.0033 -0.0684
    5BIM    C2116150   7.611   2.633   3.955 -0.0374 -0.0546 -0.0021
    5BIM    C2216151   7.543   2.764   3.952  0.0188 -0.0245  0.0371
    5BIM    C2316152   7.598   2.889   3.976  0.0671 -0.0581  0.1016
    5BIM    C2416153   7.514   2.999   3.968  0.1156 -0.0186  0.1286
    5BIM    C2516154   7.378   2.983   3.936  0.1156  0.0522  0.0916
    5BIM    C2616155   7.322   2.859   3.913  0.0677  0.0861  0.0272
    5BIM    C2716156   7.406   2.746   3.921  0.0180  0.0470 -0.0009
    5BIM    C2816157   7.378   2.602   3.901 -0.0391  0.0669 -0.0671
    5BIM    C2916158   7.257   2.546   3.869 -0.0561  0.1318 -0.1176
    5BIM    C3016159   7.138   2.623   3.850 -0.0193  0.1904 -0.1121
    5BIM    C3116160   7.239   2.405   3.852 -0.1125  0.1462 -0.1801
    1BTD     S216161   4.718   7.585   3.870 -0.1106  0.0767 -0.0733
    1BTD     N116162   4.582   7.486   3.806 -0.0801 -0.0590  0.0700
    1BTD     N216163   4.820   7.444   3.914  0.1345  0.1812 -0.3029
    1BTD     N316164   4.783   6.976   3.886  0.6889  0.1484 -0.5121
    1BTD     N416165   4.490   7.029   3.753  0.4244 -0.1477 -0.0526
    1BTD     C516166   4.538   7.247   3.780  0.1866 -0.1018  0.0005
    1BTD     C616167   4.618   7.359   3.819  0.1017 -0.0215 -0.0543
    1BTD     C716168   4.751   7.335   3.880  0.2218  0.1129 -0.2629
    1BTD     C816169   4.797   7.200   3.898  0.4208  0.1606 -0.4066
    1BTD    C1516170   4.715   7.093   3.858  0.4975  0.0784 -0.3462
    1BTD    C1616171   4.587   7.116   3.799  0.3819 -0.0509 -0.1451
    1BTD    C4316172   4.517   6.893   3.696  0.6371  0.3789  0.5474
    1BTD    C4416173   4.414   6.783   3.702  0.0651 -0.1807  0.2678
    1BTD    C4516174   4.442   6.673   3.596 -0.5683 -0.6112 -0.7370
    1BTD    C4616175   4.331   6.580   3.555  0.5296 -0.4513  0.3158
    1BTD    C4716176   4.366   6.724   3.835  0.1613 -0.1998 -0.2957
    1BTD    C4816177   4.304   6.816   3.944  0.1654 -0.3281  0.2033
    1BTD    C4916178   4.289   6.751   4.078 -0.1510 -0.7618  0.1238
    1BTD    C5016179   4.217   6.846   4.170  0.5048 -0.0459 -0.5204
    1BTD    C7516180   4.722   6.843   3.923 -0.0546  0.8450 -0.5500
    1BTD    C7616181   4.786   6.700   3.917 -0.1798  0.2509 -0.3172
    1BTD    C7716182   4.816   6.667   3.775  0.4902 -0.0452  0.5557
    1BTD    C7816183   4.915   6.555   3.754 -0.5037  0.6709  0.0921
    1BTD    C7916184   4.716   6.586   3.995 -0.2907  0.3122 -0.3985
    1BTD    C8016185   4.700   6.599   4.147  1.0706  1.2004 -0.3655
    1BTD    C8116186   4.827   6.604   4.235  0.6830  0.4704 -0.4893
    1BTD    C8216187   4.936   6.494   4.214 -0.0078 -0.0597 -0.6405
    2TTP     S116188   4.273   7.347   3.668 -0.0539 -0.1007 -0.1724
    2TTP     S516189   4.148   6.939   3.618  0.1268 -0.1583 -0.1585
    2TTP     C116190   4.011   7.048   3.569  0.1034 -0.2198 -0.2311
    2TTP     C216191   4.041   7.180   3.582  0.0461 -0.2056 -0.2396
    2TTP     C316192   4.174   7.200   3.631  0.0188 -0.1459 -0.1892
    2TTP     C416193   4.410   7.238   3.717 -0.0304 -0.0390 -0.0998
    2TTP    C1716194   4.380   7.105   3.705  0.0268 -0.0532 -0.0913
    2TTP    C1816195   4.247   7.085   3.656  0.0541 -0.1134 -0.1417
    2TTP    C3216196   3.951   7.303   3.554 -0.8983  0.0636 -0.9039
    2TTP    C3316197   3.971   7.369   3.413 -0.5383 -0.0618 -0.0383
    2TTP    C3416198   3.884   7.484   3.372  0.2583  0.5793  0.4101
    2TTP    C3516199   3.747   7.450   3.321  0.9292  1.1946 -0.5148
    2TTP    C3616200   3.651   7.572   3.298  0.1320  0.4662  0.9865
    2TTP    C3716201   3.509   7.535   3.246 -0.4126 -0.4756 -0.0438
    2TTP    C3816202   3.426   7.451   3.344  0.6146 -0.4060 -0.1516
    2TTP    C3916203   3.358   7.518   3.467  0.8021  0.1664  0.2484
    2TTP    C4016204   3.307   7.410   3.557 -0.2574  0.1967  0.1782
    2TTP    C4116205   3.290   7.453   3.698 -0.1731  0.4913 -0.0847
    2TTP    C4216206   3.246   7.334   3.791  0.1231 -0.2507 -0.1442
    3TTP     S116207   5.072   7.199   4.020  0.1646  0.0370  0.1247
    3TTP     S516208   5.081   6.769   4.008  0.0591  0.0415 -0.1359
    3TTP     C116209   5.240   6.828   4.073 -0.0024 -0.0429  0.0968
    3TTP     C216210   5.247   6.965   4.080  0.0263 -0.0492  0.1910
    3TTP     C316211   5.127   7.027   4.035  0.0985  0.0124  0.0827
    3TTP     C416212   4.913   7.139   3.956  0.2263  0.1215 -0.1081
    3TTP    C1716213   4.906   7.003   3.948  0.1974  0.1278 -0.2023
    3TTP    C1816214   5.027   6.941   3.993  0.1255  0.0663 -0.0940
    3TTP    C3216215   5.357   7.058   4.134 -0.6758  0.3713 -0.4238
    3TTP    C3316216   5.452   7.125   4.032  1.2652 -0.7553  0.1629
    3TTP    C3416217   5.541   7.238   4.082 -0.4244  0.0448  0.1238
    3TTP    C3516218   5.482   7.361   4.152 -0.1363  0.1944  0.0805
    3TTP    C3616219   5.570   7.463   4.237  0.3178 -0.3302  0.7002
    3TTP    C3716220   5.493   7.590   4.289 -0.2230  0.0720  0.2594
    3TTP    C3816221   5.401   7.671   4.193 -0.4924  0.1877 -0.8409
    3TTP    C3916222   5.359   7.811   4.239  0.3724  0.1482 -0.1077
    3TTP    C4016223   5.468   7.917   4.265 -0.7795 -0.7061  0.1134
    3TTP    C4116224   5.404   8.053   4.296 -0.2221  0.1484  0.6820
    3TTP    C4216225   5.500   8.162   4.337 -0.1452 -0.8235 -0.5772
    4BIM     F116226   3.696   6.338   3.290  0.1448  0.0458 -0.1385
    4BIM     F216227   3.456   6.463   3.264  0.0079 -0.1459  0.1929
    4BIM     O116228   4.003   6.744   3.476 -0.0002  0.2077 -0.2520
    4BIM     N516229   3.329   6.931   3.359 -0.2922 -0.3061  0.5882
    4BIM     N616230   3.616   7.223   3.510 -0.3781 -0.1409  0.4328
    4BIM    C1916231   3.882   7.007   3.517 -0.1825  0.0818  0.0242
    4BIM    C2016232   3.814   6.900   3.472 -0.1407  0.0486  0.0398
    4BIM    C2116233   3.883   6.768   3.453 -0.0469  0.1179 -0.1079
    4BIM    C2216234   3.781   6.674   3.402 -0.0219  0.0579 -0.0477
    4BIM    C2316235   3.798   6.540   3.370  0.0587  0.0898 -0.1396
    4BIM    C2416236   3.687   6.471   3.324  0.0669  0.0196 -0.0553
    4BIM    C2516237   3.563   6.535   3.310 -0.0038 -0.0792  0.1154
    4BIM    C2616238   3.546   6.670   3.342 -0.0843 -0.1115  0.2077
    4BIM    C2716239   3.657   6.741   3.389 -0.0939 -0.0412  0.1246
    4BIM    C2816240   3.672   6.882   3.431 -0.1696 -0.0510  0.1853
    4BIM    C2916241   3.574   6.978   3.433 -0.2511 -0.1361  0.3455
    4BIM    C3016242   3.439   6.952   3.392 -0.2735 -0.2292  0.4785
    4BIM    C3116243   3.598   7.112   3.475 -0.3205 -0.1384  0.3926
    5BIM     F116244   5.430   6.027   4.030 -0.0448 -0.2151  0.1384
    5BIM     F216245   5.681   6.088   4.115 -0.0198 -0.1863  0.0424
    5BIM     O116246   5.202   6.518   4.025 -0.1110 -0.2446  0.2514
    5BIM     N516247   5.880   6.525   4.232 -0.0309 -0.1662 -0.0147
    5BIM     N616248   5.651   6.897   4.211 -0.0877 -0.1950  0.0931
    5BIM    C1916249   5.361   6.750   4.103 -0.1104 -0.2276  0.2002
    5BIM    C2016250   5.408   6.624   4.102 -0.0950 -0.2213  0.1755
    5BIM    C2116251   5.320   6.510   4.060 -0.0962 -0.2308  0.2046
    5BIM    C2216252   5.403   6.388   4.069 -0.0768 -0.2204  0.1663
    5BIM    C2316253   5.365   6.257   4.040 -0.0709 -0.2240  0.1750
    5BIM    C2416254   5.461   6.158   4.057 -0.0517 -0.2123  0.1325
    5BIM    C2516255   5.590   6.190   4.100 -0.0387 -0.1975  0.0832
    5BIM    C2616256   5.629   6.320   4.129 -0.0446 -0.1938  0.0743
    5BIM    C2716257   5.533   6.422   4.113 -0.0638 -0.2056  0.1166
    5BIM    C2816258   5.542   6.568   4.135 -0.0745 -0.2055  0.1204
    5BIM    C2916259   5.652   6.639   4.178 -0.0671 -0.1931  0.0803
    5BIM    C3016260   5.777   6.576   4.208 -0.0472 -0.1785  0.0283
    5BIM    C3116261   5.651   6.780   4.196 -0.0783 -0.1941  0.0877
    1BTD     S216262   4.851   4.642   1.785 -0.0181 -0.0237  0.0737
    1BTD     N116263   4.911   4.585   1.944  0.1547 -0.1802 -0.0471
    1BTD     N216264   4.713   4.526   1.779 -0.1296  0.1012  0.1899
    1BTD     N316265   4.543   4.186   2.055 -0.0445  0.0736  0.2085
    1BTD     N416266   4.786   4.259   2.258  0.3058 -0.2732 -0.0834
    1BTD     C516267   4.843   4.414   2.106  0.2294 -0.2246 -0.0626
    1BTD     C616268   4.830   4.487   1.983  0.1221 -0.1336  0.0028
    1BTD     C716269   4.719   4.454   1.890 -0.0370  0.0238  0.1355
    1BTD     C816270   4.627   4.349   1.925 -0.0809  0.0825  0.1961
    1BTD    C1516271   4.644   4.280   2.047  0.0279 -0.0107  0.1284
    1BTD    C1616272   4.751   4.312   2.136  0.1812 -0.1624  0.0006
    1BTD    C4316273   4.778   4.117   2.295  0.0540 -0.4522  0.1971
    1BTD    C4416274   4.758   4.072   2.444 -0.1510 -0.9747  0.3251
    1BTD    C4516275   4.659   4.143   2.546 -0.4747  0.1086 -0.0539
    1BTD    C4616276   4.649   4.296   2.559  0.0466 -0.2136  0.3064
    1BTD    C4716277   4.761   3.920   2.459  0.4788 -0.6209 -0.1481
    1BTD    C4816278   4.884   3.850   2.403  0.4856  0.7037 -0.1156
    1BTD    C4916279   5.019   3.892   2.453 -0.0861  0.0053 -0.3162
    1BTD    C5016280   5.127   3.811   2.384  0.8721  0.2692 -0.3915
    1BTD    C7516281   4.481   4.120   2.173 -0.1836 -0.5545 -0.3949
    1BTD    C7616282   4.343   4.150   2.235 -1.0250  0.0003 -0.2073
    1BTD    C7716283   4.329   4.284   2.305 -0.3417  0.2629  0.6387
    1BTD    C7816284   4.187   4.332   2.329  0.6612  0.1448  0.2534
    1BTD    C7916285   4.283   4.028   2.310  0.1687  0.4664  0.4414
    1BTD    C8016286   4.360   3.975   2.428 -0.0676  0.4533  0.0389
    1BTD    C8116287   4.296   3.859   2.492  0.6329  0.0350 -0.7571
    1BTD    C8216288   4.375   3.800   2.613 -0.0549 -0.4728  1.0104
    2TTP     S116289   5.090   4.515   2.254  0.2930 -0.1410 -0.2355
    2TTP     S516290   5.022   4.223   2.562 -0.1308  0.2432  0.0380
    2TTP     C116291   5.174   4.316   2.602  0.0317  0.0282 -0.0751
    2TTP     C216292   5.204   4.412   2.510  0.1723 -0.1031 -0.1662
    2TTP     C316293   5.108   4.415   2.403  0.1566 -0.0387 -0.1500
    2TTP     C416294   4.939   4.423   2.214  0.1307  0.0741 -0.1224
    2TTP    C1716295   4.909   4.327   2.307 -0.0098  0.2053 -0.0313
    2TTP    C1816296   5.005   4.324   2.413  0.0058  0.1410 -0.0475
    2TTP    C3216297   5.321   4.512   2.524 -0.0935  0.0854 -0.5924
    2TTP    C3316298   5.279   4.654   2.553  0.3076 -0.0650 -0.0458
    2TTP    C3416299   5.378   4.739   2.626 -0.0082  0.3355 -0.2396
    2TTP    C3516300   5.327   4.875   2.674  0.0384  0.4300 -0.5669
    2TTP    C3616301   5.191   4.881   2.746 -0.9403  0.2851 -0.6163
    2TTP    C3716302   5.147   5.012   2.801 -0.1973  0.0777 -0.2819
    2TTP    C3816303   5.008   4.998   2.856  0.7030 -1.1189 -0.0517
    2TTP    C3916304   4.946   5.143   2.884 -0.0193 -0.2738  0.0911
    2TTP    C4016305   5.028   5.251   2.959  0.0310  0.1368 -0.2347
    2TTP    C4116306   4.948   5.378   2.954  0.4354 -0.5279 -0.1735
    2TTP    C4216307   5.011   5.497   3.026  0.1665  0.0058 -0.5595
    3TTP     S116308   4.403   4.354   1.723  0.4437 -0.0145 -0.2653
    3TTP     S516309   4.217   4.032   1.939  0.0486  0.4730  0.1245
    3TTP     C116310   4.110   4.077   1.799 -0.0453  0.6383  0.2484
    3TTP     C216311   4.161   4.179   1.724  0.0710  0.4976  0.1354
    3TTP     C316312   4.287   4.226   1.774  0.2387  0.2540 -0.0532
    3TTP     C416313   4.510   4.309   1.863  0.5378 -0.1798 -0.3893
    3TTP    C1716314   4.459   4.207   1.938  0.4214 -0.0391 -0.2762
    3TTP    C1816315   4.333   4.161   1.888  0.2536  0.2044 -0.0876
    3TTP    C3216316   4.101   4.242   1.592  0.5182  1.1299  0.0762
    3TTP    C3316317   4.117   4.380   1.533  0.2050  0.8574 -0.4424
    3TTP    C3416318   4.048   4.402   1.401 -0.3601  0.4355 -0.1019
    3TTP    C3516319   4.044   4.550   1.349  0.4039  0.0976 -0.7553
    3TTP    C3616320   4.166   4.636   1.377  0.1792  0.3487  0.1418
    3TTP    C3716321   4.134   4.773   1.311 -0.5998  0.7711 -0.7088
    3TTP    C3816322   4.243   4.869   1.341 -0.9394  0.8317 -0.0443
    3TTP    C3916323   4.244   5.008   1.272 -0.3752 -0.8233  0.1070
    3TTP    C4016324   4.362   5.098   1.324  0.4508  0.5144 -0.1076
    3TTP    C4116325   4.368   5.223   1.243  0.1945 -0.3482  0.1482
    3TTP    C4216326   4.499   5.302   1.279  0.2499  0.3702  0.2614
    4BIM     F116327   5.205   3.698   3.151  0.1529 -0.2743 -0.0684
    4BIM     F216328   5.465   3.761   3.198  0.0894 -0.0453 -0.0193
    4BIM     O116329   5.072   4.076   2.787 -0.1519 -0.2991  0.0161
    4BIM     N516330   5.746   4.121   3.006 -0.2191  0.2661  0.1117
    4BIM     N616331   5.590   4.404   2.712 -0.4447  0.2006  0.1678
    4BIM    C1916332   5.274   4.271   2.702 -0.3208 -0.0893  0.0931
    4BIM    C2016333   5.297   4.173   2.792 -0.2416 -0.0920  0.0699
    4BIM    C2116334   5.188   4.077   2.830 -0.1576 -0.2033  0.0307
    4BIM    C2216335   5.247   3.984   2.929 -0.0844 -0.1756  0.0133
    4BIM    C2316336   5.184   3.878   2.994  0.0060 -0.2509 -0.0229
    4BIM    C2416337   5.260   3.805   3.084  0.0628 -0.2046 -0.0331
    4BIM    C2516338   5.395   3.837   3.108  0.0299 -0.0868 -0.0077
    4BIM    C2616339   5.458   3.943   3.044 -0.0602 -0.0110  0.0285
    4BIM    C2716340   5.382   4.019   2.952 -0.1187 -0.0563  0.0393
    4BIM    C2816341   5.419   4.136   2.869 -0.2167 -0.0001  0.0751
    4BIM    C2916342   5.541   4.198   2.864 -0.2733  0.1148  0.1069
    4BIM    C3016343   5.653   4.155   2.942 -0.2434  0.1976  0.1094
    4BIM    C3116344   5.567   4.311   2.780 -0.3673  0.1614  0.1402
    5BIM     F116345   3.622   3.482   2.100 -0.2293  0.2271  0.2447
    5BIM     F216346   3.451   3.528   1.894  0.1729 -0.1549 -0.1782
    5BIM     O116347   4.010   3.844   1.992 -0.2226  0.3186  0.5722
    5BIM     N516348   3.481   3.850   1.520  0.7557 -0.6385 -0.5527
    5BIM     N616349   3.819   4.124   1.477  0.6799 -0.4900 -0.2116
    5BIM    C1916350   3.984   4.016   1.757  0.1640 -0.0137  0.2845
    5BIM    C2016351   3.893   3.923   1.792  0.1466 -0.0218  0.2186
    5BIM    C2116352   3.914   3.838   1.914 -0.0575  0.1552  0.3762
    5BIM    C2216353   3.797   3.749   1.923 -0.0219  0.0961  0.2520
    5BIM    C2316354   3.771   3.652   2.020 -0.1655  0.2106  0.3284
    5BIM    C2416355   3.654   3.579   2.008 -0.0955  0.1223  0.1801
    5BIM    C2516356   3.566   3.603   1.902  0.1117 -0.0744 -0.0378
    5BIM    C2616357   3.591   3.699   1.805  0.2558 -0.1896 -0.1151
    5BIM    C2716358   3.709   3.774   1.815  0.1878 -0.1028  0.0327
    5BIM    C2816359   3.765   3.882   1.730  0.2996 -0.1829  0.0035
    5BIM    C2916360   3.708   3.934   1.616  0.5057 -0.3709 -0.1865
    5BIM    C3016361   3.583   3.888   1.564  0.6424 -0.5174 -0.3873
    5BIM    C3116362   3.769   4.038   1.540  0.6003 -0.4355 -0.1993
    1BTD     S216363   9.099   8.574   8.987 -0.1296 -0.0495  0.0260
    1BTD     N116364   9.121   8.396   9.004 -0.1650 -0.0644 -0.0825
    1BTD     N216365   9.255   8.615   9.066 -0.1371 -0.1276  0.0813
    1BTD     N316366   9.612   8.380   9.259 -0.2146 -0.3138 -0.0017
    1BTD     N416367   9.447   8.109   9.183 -0.2494 -0.2358 -0.2041
    1BTD     C516368   9.293   8.249   9.098 -0.2089 -0.1547 -0.1433
    1BTD     C616369   9.237   8.378   9.065 -0.1793 -0.1235 -0.0722
    1BTD     C716370   9.312   8.501   9.099 -0.1638 -0.1588  0.0193
    1BTD     C816371   9.440   8.489   9.166 -0.1776 -0.2236  0.0355
    1BTD    C1516372   9.490   8.361   9.196 -0.2062 -0.2522 -0.0361
    1BTD    C1616373   9.418   8.243   9.163 -0.2213 -0.2180 -0.1245
    1BTD    C4316374   9.583   8.055   9.193 -0.0448 -0.2989  0.0188
    1BTD    C4416375   9.623   7.925   9.261 -0.7387  0.3426 -0.4970
    1BTD    C4516376   9.603   7.906   9.411  0.4526  0.4541  0.1776
    1BTD    C4616377   9.458   7.906   9.453 -0.0633 -0.3709 -0.3160
    1BTD    C4716378   9.776   7.914   9.213  0.4153  0.2596 -0.4955
    1BTD    C4816379   9.851   7.783   9.239 -0.7959 -0.9793 -0.2539
    1BTD    C4916380   9.788   7.654   9.182  0.0946  0.0181  0.4693
    1BTD    C5016381   9.861   7.527   9.221  0.0004 -0.5818  0.2061
    1BTD    C7516382   9.661   8.305   9.376 -0.3366 -0.1530  1.1400
    1BTD    C7616383   9.799   8.306   9.424 -0.7332 -0.1268 -0.8836
    1BTD    C7716384   9.800   8.232   9.559 -0.1706  0.3743  0.4363
    1BTD    C7816385   9.720   8.283   9.678  0.2084 -0.1742  0.1090
    1BTD    C7916386   9.904   8.253   9.332 -0.6243  0.6005  0.1307
    1BTD    C8016387  10.048   8.254   9.388 -1.0598  0.2764  0.0772
    1BTD    C8116388  10.162   8.218   9.284 -0.2801  0.2673 -0.1533
    1BTD    C8216389  10.300   8.208   9.353 -0.6263  0.1871  0.1383
    2TTP     S116390   9.098   8.020   9.025  0.0046 -0.1606  0.0674
    2TTP     S516391   9.404   7.740   9.139  0.1543 -0.0637 -0.0951
    2TTP     C116392   9.259   7.647   9.080  0.2274 -0.1058 -0.2085
    2TTP     C216393   9.156   7.728   9.041  0.1853 -0.1383 -0.1647
    2TTP     C316394   9.187   7.867   9.057  0.0942 -0.1309 -0.0403
    2TTP     C416395   9.242   8.113   9.084 -0.0684 -0.1183  0.1810
    2TTP    C1716396   9.345   8.033   9.122 -0.0265 -0.0860  0.1374
    2TTP    C1816397   9.314   7.894   9.107  0.0648 -0.0932  0.0129
    2TTP    C3216398   9.025   7.691   8.976  0.0660  0.7064 -0.6480
    2TTP    C3316399   9.012   7.728   8.826  0.1430 -0.4729 -0.3734
    2TTP    C3416400   8.864   7.702   8.776 -0.5243  0.7140  0.2723
    2TTP    C3516401   8.847   7.715   8.622 -0.2280 -0.9933 -0.4232
    2TTP    C3616402   8.693   7.731   8.592 -0.7771 -1.3833 -0.4187
    2TTP    C3716403   8.628   7.863   8.627 -0.4339  0.0428  0.0613
    2TTP    C3816404   8.509   7.894   8.534  0.0621  0.2819  0.3727
    2TTP    C3916405   8.426   8.007   8.597  0.2869 -0.1339 -0.0328
    2TTP    C4016406   8.312   8.046   8.508  0.6054 -0.4118 -0.2330
    2TTP    C4116407   8.249   8.182   8.546  0.2269  0.8468  0.2305
    2TTP    C4216408   8.152   8.201   8.428 -0.0615  0.2940 -0.9735
    3TTP     S116409   9.566   8.760   9.178  0.0975  0.3302 -0.1735
    3TTP     S516410   9.933   8.568   9.295 -0.0318  0.2024  0.0257
    3TTP     C116411   9.968   8.742   9.254  0.0640  0.1693 -0.0335
    3TTP     C216412   9.857   8.811   9.216  0.1096  0.2067 -0.0978
    3TTP     C316413   9.740   8.730   9.217  0.0705  0.2630 -0.1037
    3TTP     C416414   9.530   8.586   9.219  0.0016  0.3633 -0.1144
    3TTP    C1716415   9.641   8.516   9.257 -0.0440  0.3261 -0.0496
    3TTP    C1816416   9.759   8.598   9.256 -0.0048  0.2697 -0.0443
    3TTP    C3216417   9.834   8.952   9.178 -0.0100 -0.0287 -0.0630
    3TTP    C3316418   9.766   9.052   9.272  0.3586 -0.3342 -0.0292
    3TTP    C3416419   9.756   9.203   9.221 -0.2009  0.3524 -0.2986
    3TTP    C3516420   9.709   9.317   9.313  0.8703  0.3254 -0.0628
    3TTP    C3616421   9.601   9.310   9.419  0.7171 -0.7594  0.0247
    3TTP    C3716422   9.468   9.262   9.368 -0.5047  0.3866  0.1079
    3TTP    C3816423   9.373   9.198   9.476 -0.2163  0.0775 -0.5624
    3TTP    C3916424   9.339   9.271   9.608 -0.1908  0.7602  0.0191
    3TTP    C4016425   9.244   9.186   9.700 -0.4721  0.0925  0.3905
    3TTP    C4116426   9.214   9.244   9.835  0.0506  0.2680  0.1604
    3TTP    C4216427   9.161   9.380   9.857  0.3218  0.2553  0.5018
    4BIM     F116428   9.708   7.040   9.401  0.0346 -0.0645 -0.2220
    4BIM     F216429   9.546   6.861   9.275 -0.2224  0.0030  0.0103
    4BIM     O116430   9.479   7.507   9.253  0.1712  0.0401 -0.1037
    4BIM     N516431   9.150   6.937   8.988 -0.4952  0.1744  0.4294
    4BIM     N616432   9.004   7.339   8.898 -0.3366  0.2420  0.4747
    4BIM    C1916433   9.243   7.503   9.080 -0.0260  0.1415  0.1605
    4BIM    C2016434   9.307   7.392   9.122 -0.0503  0.1125  0.1218
    4BIM    C2116435   9.428   7.402   9.211  0.0560  0.0607 -0.0160
    4BIM    C2216436   9.472   7.264   9.237 -0.0031  0.0399 -0.0250
    4BIM    C2316437   9.580   7.224   9.315  0.0577 -0.0073 -0.1333
    4BIM    C2416438   9.603   7.087   9.326 -0.0189 -0.0186 -0.1185
    4BIM    C2516439   9.519   6.995   9.261 -0.1514  0.0162  0.0011
    4BIM    C2616440   9.411   7.035   9.183 -0.2124  0.0632  0.1099
    4BIM    C2716441   9.387   7.173   9.171 -0.1369  0.0755  0.0968
    4BIM    C2816442   9.282   7.248   9.098 -0.1709  0.1215  0.1917
    4BIM    C2916443   9.181   7.193   9.022 -0.2918  0.1640  0.3197
    4BIM    C3016444   9.164   7.053   9.004 -0.4032  0.1696  0.3796
    4BIM    C3116445   9.084   7.274   8.954 -0.3157  0.2068  0.4041
    5BIM     F116446  10.735   8.441   9.257  0.1378  0.1233 -0.3808
    5BIM     F216447  10.827   8.688   9.323  0.0446 -0.0799  0.5288
    5BIM     O116448  10.204   8.537   9.217  0.1868  0.2317 -0.7734
    5BIM     N516449  10.582   9.112   9.390 -0.0545 -0.2937  1.5564
    5BIM     N616450  10.148   9.138   9.345  0.0025 -0.1681  1.0664
    5BIM    C1916451  10.103   8.808   9.266  0.1151  0.0765 -0.0439
    5BIM    C2016452  10.233   8.774   9.273  0.1064  0.0572  0.0193
    5BIM    C2116453  10.277   8.633   9.247  0.1451  0.1411 -0.3726
    5BIM    C2216454  10.424   8.631   9.263  0.1238  0.0939 -0.1864
    5BIM    C2316455  10.509   8.522   9.249  0.1458  0.1411 -0.4203
    5BIM    C2416456  10.645   8.544   9.270  0.1182  0.0810 -0.1712
    5BIM    C2516457  10.692   8.672   9.304  0.0703 -0.0233  0.2980
    5BIM    C2616458  10.607   8.781   9.319  0.0480 -0.0713  0.5331
    5BIM    C2716459  10.470   8.760   9.298  0.0753 -0.0114  0.2863
    5BIM    C2816460  10.355   8.853   9.305  0.0628 -0.0384  0.4315
    5BIM    C2916461  10.360   8.987   9.336  0.0190 -0.1333  0.8647
    5BIM    C3016462  10.482   9.055   9.366 -0.0213 -0.2213  1.2434
    5BIM    C3116463  10.243   9.069   9.341  0.0102 -0.1516  0.9732
    1BTD     S216464   9.312   7.569   9.521  0.0933 -0.0334  0.0816
    1BTD     N116465   9.171   7.507   9.427  0.0226 -0.1651  0.2720
    1BTD     N216466   9.218   7.695   9.607  0.1645  0.1090 -0.0470
    1BTD     N316467   8.771   7.841   9.614  0.1833  0.1616  0.0346
    1BTD     N416468   8.715   7.609   9.392  0.0083 -0.1761  0.4280
    1BTD     C516469   8.934   7.563   9.411  0.0174 -0.1668  0.3488
    1BTD     C616470   9.067   7.580   9.463  0.0546 -0.0994  0.2317
    1BTD     C716471   9.093   7.685   9.564  0.1340  0.0540  0.0532
    1BTD     C816472   8.984   7.768   9.608  0.1724  0.1324  0.0005
    1BTD    C1516473   8.855   7.748   9.555  0.1336  0.0621  0.1189
    1BTD    C1616474   8.830   7.647   9.458  0.0573 -0.0857  0.2912
    1BTD    C4316475   8.591   7.685   9.362  0.2350 -0.4867 -0.1183
    1BTD    C4416476   8.584   7.765   9.234 -0.3600 -0.4137  0.1621
    1BTD    C4516477   8.687   7.881   9.229  0.1765 -0.1521  0.5351
    1BTD    C4616478   8.682   7.974   9.102  0.4579  0.0229  0.2823
    1BTD    C4716479   8.436   7.817   9.209 -0.7300  0.1386  0.0417
    1BTD    C4816480   8.332   7.715   9.182  0.2036 -0.0008  0.8734
    1BTD    C4916481   8.201   7.766   9.150  0.0905 -0.2506 -0.4988
    1BTD    C5016482   8.100   7.652   9.143  0.1961 -0.2286 -0.2368
    1BTD    C7516483   8.622   7.826   9.634 -0.3947  0.1446  0.1725
    1BTD    C7616484   8.525   7.946   9.644 -0.4665  0.0264  0.1580
    1BTD    C7716485   8.379   7.902   9.659 -0.6772  0.2999  0.4507
    1BTD    C7816486   8.342   7.829   9.780 -0.1104 -0.0226 -0.3766
    1BTD    C7916487   8.558   8.029   9.518  0.1259 -0.1642  0.8502
    1BTD    C8016488   8.471   8.156   9.487 -0.1092 -0.0601 -0.4252
    1BTD    C8116489   8.520   8.228   9.364 -0.3518  0.3032  0.0356
    1BTD    C8216490   8.409   8.325   9.319 -0.0594  0.3256 -0.5504
    2TTP     S116491   8.908   7.310   9.235  0.0741  0.0710 -0.3286
    2TTP     S516492   8.486   7.388   9.200  0.0927  0.4034  0.1597
    2TTP     C116493   8.524   7.232   9.114 -0.0825  0.5149 -0.1239
    2TTP     C216494   8.656   7.199   9.120 -0.0985  0.4188 -0.2913
    2TTP     C316495   8.733   7.295   9.192  0.0269  0.2537 -0.2017
    2TTP     C416496   8.870   7.467   9.320  0.2494 -0.0407 -0.0446
    2TTP    C1716497   8.738   7.500   9.314  0.2652  0.0556  0.1228
    2TTP    C1816498   8.661   7.403   9.242  0.1400  0.2208  0.0331
    2TTP    C3216499   8.726   7.075   9.064 -0.6844  0.4508 -0.5687
    2TTP    C3316500   8.734   7.070   8.917 -0.6673  0.8342  0.3316
    2TTP    C3416501   8.820   6.952   8.868 -0.0524  0.3415  0.2087
    2TTP    C3516502   8.808   6.923   8.713  0.1107 -0.1542 -0.6681
    2TTP    C3616503   8.876   6.790   8.681  0.2971  0.3542 -0.0955
    2TTP    C3716504   8.865   6.766   8.533  0.1972  0.0772  1.0769
    2TTP    C3816505   8.979   6.819   8.446  0.0682 -0.1940  0.4244
    2TTP    C3916506   8.973   6.777   8.294 -0.4651  0.0527 -0.7504
    2TTP    C4016507   9.113   6.769   8.232  0.1278 -0.8880 -0.0921
    2TTP    C4116508   9.148   6.724   8.095 -1.1029  0.5291 -0.0992
    2TTP    C4216509   9.110   6.821   7.981 -0.6385 -0.4208 -0.6478
    3TTP     S116510   9.091   7.959   9.809  0.0822  0.2225  0.1050
    3TTP     S516511   8.698   8.129   9.850  0.0751  0.2294  0.0065
    3TTP     C116512   8.813   8.220   9.959 -0.0030  0.0570  0.2351
    3TTP     C216513   8.941   8.173   9.952 -0.0055  0.0443  0.2790
    3TTP     C316514   8.953   8.063   9.861  0.0546  0.1712  0.1336
    3TTP     C416515   8.976   7.868   9.700  0.1607  0.3951 -0.1236
    3TTP    C1716516   8.848   7.915   9.707  0.1631  0.4074 -0.1674
    3TTP    C1816517   8.836   8.025   9.797  0.1032  0.2811 -0.0221
    3TTP    C3216518   9.059   8.216  10.039 -0.3892 -0.0050  0.2725
    3TTP    C3316519   9.173   8.280   9.971 -0.5635  0.4954 -0.1342
    3TTP    C3416520   9.306   8.296  10.049 -0.9807 -0.1194  0.0059
    3TTP    C3516521   9.402   8.175  10.069  0.2100  0.3612  0.4931
    3TTP    C3616522   9.448   8.103   9.940 -0.2738 -0.6633  0.1441
    3TTP    C3716523   9.563   8.003   9.929 -0.1693  0.0023  0.7583
    3TTP    C3816524   9.705   8.050   9.974  0.3068  0.1327 -0.1602
    3TTP    C3916525   9.824   7.958   9.980 -0.3487 -0.2856 -0.6346
    3TTP    C4016526   9.825   7.853  10.086  0.2060 -0.1454  0.0300
    3TTP    C4116527   9.969   7.806  10.106 -0.1670  0.1178 -0.1355
    3TTP    C4216528   9.986   7.667  10.175  0.1192 -0.1271  0.1066
    4BIM     F116529   7.725   7.310   8.940 -0.1345 -0.1969  0.1922
    4BIM     F216530   7.726   7.055   8.845  0.0392 -0.0464 -0.2153
    4BIM     O116531   8.244   7.367   9.085 -0.1845 -0.0914  0.3293
    4BIM     N516532   8.097   6.729   8.812  0.2537  0.2450 -0.7038
    4BIM     N616533   8.502   6.825   8.944  0.1798  0.2971 -0.5143
    4BIM    C1916534   8.429   7.144   9.046 -0.0362  0.0898 -0.0110
    4BIM    C2016535   8.298   7.139   9.013 -0.0303  0.0572 -0.0298
    4BIM    C2116536   8.209   7.258   9.036 -0.1094 -0.0366  0.1523
    4BIM    C2216537   8.075   7.220   8.990 -0.0803 -0.0499  0.0792
    4BIM    C2316538   7.959   7.297   8.991 -0.1307 -0.1266  0.1924
    4BIM    C2416539   7.843   7.239   8.942 -0.0887 -0.1235  0.0892
    4BIM    C2516540   7.844   7.107   8.893  0.0008 -0.0460 -0.1207
    4BIM    C2616541   7.959   7.030   8.891  0.0513  0.0308 -0.2348
    4BIM    C2716542   8.077   7.087   8.941  0.0100  0.0288 -0.1328
    4BIM    C2816543   8.215   7.032   8.953  0.0443  0.0980 -0.2081
    4BIM    C2916544   8.256   6.906   8.916  0.1292  0.1832 -0.4058
    4BIM    C3016545   8.169   6.809   8.859  0.1974  0.2168 -0.5689
    4BIM    C3116546   8.391   6.862   8.932  0.1566  0.2453 -0.4644
    5BIM     F116547   8.143   8.679  10.100  0.0041 -0.0715 -0.2513
    5BIM     F216548   8.268   8.781  10.319  0.0291  0.2048 -0.3928
    5BIM     O116549   8.526   8.348   9.907 -0.0112 -0.3006  0.1102
    5BIM     N516550   8.721   8.691  10.497  0.0541  0.4389 -0.3386
    5BIM     N616551   8.995   8.412  10.303  0.0372  0.2041 -0.0276
    5BIM    C1916552   8.782   8.328  10.049  0.0073 -0.1178  0.1034
    5BIM    C2016553   8.680   8.407  10.088  0.0105 -0.0713  0.0180
    5BIM    C2116554   8.552   8.412  10.011  0.0002 -0.1717  0.0278
    5BIM    C2216555   8.464   8.507  10.081  0.0067 -0.0865 -0.0792
    5BIM    C2316556   8.335   8.545  10.046  0.0012 -0.1330 -0.1097
    5BIM    C2416557   8.271   8.637  10.128  0.0088 -0.0329 -0.2157
    5BIM    C2516558   8.336   8.689  10.241  0.0219  0.1096 -0.2885
    5BIM    C2616559   8.465   8.652  10.276  0.0272  0.1569 -0.2586
    5BIM    C2716560   8.531   8.559  10.194  0.0196  0.0570 -0.1516
    5BIM    C2816561   8.667   8.500  10.204  0.0222  0.0722 -0.0947
    5BIM    C2916562   8.761   8.525  10.300  0.0341  0.1948 -0.1383
    5BIM    C3016563   8.739   8.616  10.408  0.0453  0.3288 -0.2483
    5BIM    C3116564   8.889   8.463  10.301  0.0355  0.1993 -0.0772
    1BTD     S216565   3.555   0.571   9.056  0.1836  0.1068  0.0713
    1BTD     N116566   3.443   0.578   8.915  0.3349 -0.2983 -0.0713
    1BTD     N216567   3.688   0.659   8.973  0.0620  0.3765  0.1595
    1BTD     N316568   3.757   0.850   8.550  0.0877  0.1944  0.0815
    1BTD     N416569   3.456   0.750   8.479  0.4238 -0.6371 -0.2027
    1BTD     C516570   3.453   0.669   8.688  0.3772 -0.4651 -0.1364
    1BTD     C616571   3.507   0.642   8.819  0.2894 -0.2160 -0.0470
    1BTD     C716572   3.645   0.687   8.851  0.1367  0.1618  0.0820
    1BTD     C816573   3.721   0.757   8.751  0.0795  0.2714  0.1156
    1BTD    C1516574   3.664   0.782   8.625  0.1696  0.0182  0.0249
    1BTD    C1616575   3.531   0.738   8.594  0.3167 -0.3457 -0.0998
    1BTD    C4316576   3.472   0.863   8.385  0.5869 -0.3120  0.0399
    1BTD    C4416577   3.441   0.839   8.232  0.1996 -0.6998 -0.3152
    1BTD    C4516578   3.455   0.971   8.157  0.1728 -1.0774  0.6849
    1BTD    C4616579   3.356   1.086   8.188  0.3270  0.2436 -0.1585
    1BTD    C4716580   3.502   0.714   8.178 -0.6013  0.3728  0.3508
    1BTD    C4816581   3.469   0.673   8.039  0.4442  0.4089 -0.1003
    1BTD    C4916582   3.504   0.518   8.030  0.2905 -0.6687  0.1847
    1BTD    C5016583   3.386   0.423   8.060  0.1908  0.0225 -0.3330
    1BTD    C7516584   3.789   0.822   8.407  0.1758 -0.1651 -0.8068
    1BTD    C7616585   3.837   0.939   8.316 -0.7944 -0.5880  0.4693
    1BTD    C7716586   3.754   1.077   8.327  0.1134  0.1637 -0.2222
    1BTD    C7816587   3.826   1.203   8.284  0.3710 -0.1278  0.2181
    1BTD    C7916588   3.857   0.888   8.166  0.7041  0.0111  0.1886
    1BTD    C8016589   3.959   0.775   8.148  0.2294 -0.4992  0.2056
    1BTD    C8116590   3.974   0.735   8.001  0.6732 -0.0141  0.0696
    1BTD    C8216591   3.862   0.660   7.930 -0.4020  0.2570 -0.6036
    2TTP     S116592   3.163   0.583   8.678  0.2586 -0.0381  0.2564
    2TTP     S516593   3.135   0.745   8.280 -0.1351 -0.0403  0.2828
    2TTP     C116594   2.969   0.688   8.332 -0.0742 -0.0885  0.4261
    2TTP     C216595   2.968   0.635   8.457  0.0508 -0.0906  0.4265
    2TTP     C316596   3.098   0.637   8.518  0.1034 -0.0543  0.3135
    2TTP     C416597   3.328   0.640   8.627  0.1976  0.0100  0.1130
    2TTP    C1716598   3.329   0.693   8.501  0.0725  0.0122  0.1127
    2TTP    C1816599   3.199   0.691   8.440  0.0203 -0.0241  0.2258
    2TTP    C3216600   2.854   0.582   8.536  0.4137 -0.1733 -0.3447
    2TTP    C3316601   2.832   0.433   8.526 -0.0185  0.0788 -0.7484
    2TTP    C3416602   2.702   0.366   8.585 -0.1452 -0.1623  0.4117
    2TTP    C3516603   2.680   0.377   8.737  0.0843  0.1021  0.5259
    2TTP    C3616604   2.544   0.324   8.774  0.2403  0.5325  0.0554
    2TTP    C3716605   2.519   0.176   8.750  0.0037  0.5561  0.1225
    2TTP    C3816606   2.370   0.141   8.759  0.3356 -0.5669  0.1585
    2TTP    C3916607   2.276   0.159   8.637  0.0518 -0.0441 -0.1658
    2TTP    C4016608   2.309   0.077   8.509 -0.0932 -0.0812  0.0384
    2TTP    C4116609   2.215   0.078   8.389  0.0059 -0.1595 -0.3557
    2TTP    C4216610   2.208   0.207   8.315  0.0215 -0.2990 -0.1857
    3TTP     S116611   3.983   0.843   8.871 -0.0797  0.0332 -0.1531
    3TTP     S516612   4.092   1.023   8.496  0.2713 -0.1647 -0.1473
    3TTP     C116613   4.230   1.043   8.612  0.1851 -0.1545 -0.0460
    3TTP     C216614   4.205   0.988   8.734  0.0718 -0.0927 -0.0417
    3TTP     C316615   4.075   0.929   8.741  0.0486 -0.0513 -0.1187
    3TTP     C416616   3.844   0.823   8.755  0.0064  0.0229 -0.2544
    3TTP    C1716617   3.870   0.878   8.632  0.1200 -0.0388 -0.2586
    3TTP    C1816618   3.999   0.937   8.625  0.1429 -0.0802 -0.1822
    3TTP    C3216619   4.311   0.975   8.848 -0.4131 -0.0115  0.2493
    3TTP    C3316620   4.282   1.050   8.974  0.3708 -0.4299 -0.2319
    3TTP    C3416621   4.413   1.070   9.043  0.2564  0.2886 -0.3928
    3TTP    C3516622   4.401   1.140   9.182 -0.3522  0.5596 -0.0408
    3TTP    C3616623   4.534   1.173   9.251  0.1379  0.6542  0.3167
    3TTP    C3716624   4.629   1.272   9.183  0.2620 -0.0192  0.6100
    3TTP    C3816625   4.578   1.405   9.121 -0.0726 -0.0097 -0.4349
    3TTP    C3916626   4.687   1.496   9.068 -0.7698  0.5754  0.2504
    3TTP    C4016627   4.624   1.622   9.011  0.0896 -0.3173  1.0494
    3TTP    C4116628   4.705   1.707   8.909 -0.3373  0.6446 -0.5122
    3TTP    C4216629   4.711   1.647   8.770 -0.2241  0.0721 -0.2647
    4BIM     F116630   2.749   0.962   7.583 -0.1750  0.2422  0.0844
    4BIM     F216631   2.491   0.897   7.641 -0.0652 -0.2097  0.0647
    4BIM     O116632   2.998   0.815   8.040  0.1011  0.3602 -0.0277
    4BIM     N516633   2.299   0.696   8.050  0.2895 -0.7754 -0.0432
    4BIM     N616634   2.546   0.594   8.396  0.4831 -0.5921 -0.1266
    4BIM    C1916635   2.841   0.699   8.258  0.3041 -0.0297 -0.0859
    4BIM    C2016636   2.788   0.739   8.141  0.2304 -0.0417 -0.0572
    4BIM    C2116637   2.876   0.797   8.033  0.1278  0.1663 -0.0284
    4BIM    C2216638   2.787   0.830   7.920  0.0663  0.0937 -0.0010
    4BIM    C2316639   2.822   0.886   7.798 -0.0339  0.2271  0.0309
    4BIM    C2416640   2.721   0.907   7.706 -0.0763  0.1204  0.0524
    4BIM    C2516641   2.588   0.873   7.736 -0.0194 -0.1124  0.0424
    4BIM    C2616642   2.552   0.817   7.858  0.0805 -0.2465  0.0106
    4BIM    C2716643   2.654   0.795   7.952  0.1246 -0.1416 -0.0116
    4BIM    C2816644   2.649   0.738   8.089  0.2277 -0.2341 -0.0465
    4BIM    C2916645   2.537   0.692   8.155  0.3058 -0.4556 -0.0656
    4BIM    C3016646   2.407   0.695   8.097  0.2966 -0.6307 -0.0529
    4BIM    C3116647   2.543   0.639   8.287  0.4029 -0.5294 -0.0989
    5BIM     F116648   4.522   1.580   8.051  0.1742 -0.2571 -0.3130
    5BIM     F216649   4.765   1.561   8.171  0.0013  0.1498  0.1104
    5BIM     O116650   4.229   1.247   8.362  0.0374 -0.2404 -0.4237
    5BIM     N516651   4.907   1.297   8.564 -0.3452  0.7467  0.6402
    5BIM     N616652   4.629   1.040   8.783 -0.4171  0.6777  0.4687
    5BIM    C1916653   4.357   1.111   8.586 -0.1763  0.1543 -0.0587
    5BIM    C2016654   4.421   1.195   8.504 -0.1352  0.1342 -0.0470
    5BIM    C2116655   4.348   1.262   8.390 -0.0244 -0.0740 -0.2420
    5BIM    C2216656   4.447   1.346   8.321 -0.0051 -0.0406 -0.1743
    5BIM    C2316657   4.426   1.427   8.209  0.0864 -0.1881 -0.2992
    5BIM    C2416658   4.535   1.498   8.161  0.0863 -0.1195 -0.1992
    5BIM    C2516659   4.661   1.488   8.223 -0.0031  0.0902  0.0192
    5BIM    C2616660   4.682   1.408   8.334 -0.0945  0.2381  0.1447
    5BIM    C2716661   4.573   1.335   8.384 -0.0961  0.1717  0.0463
    5BIM    C2816662   4.562   1.242   8.499 -0.1795  0.2875  0.1330
    5BIM    C2916663   4.664   1.206   8.585 -0.2788  0.4967  0.3407
    5BIM    C3016664   4.797   1.256   8.573 -0.3150  0.6334  0.5047
    5BIM    C3116665   4.644   1.115   8.694 -0.3544  0.5951  0.4098
    1BTD     S216666   9.184   1.354   2.151 -0.2302 -0.1511  0.0106
    1BTD     N116667   9.079   1.348   2.005 -0.6490 -0.0159  0.3032
    1BTD     N216668   9.207   1.532   2.146  0.2079 -0.2108 -0.2062
    1BTD     N316669   9.064   1.886   1.872  0.3450 -0.0883 -0.1198
    1BTD     N416670   8.906   1.659   1.699 -0.7107  0.1518  0.5079
    1BTD     C516671   8.991   1.513   1.848 -0.6685  0.0688  0.4025
    1BTD     C616672   9.067   1.473   1.963 -0.4508 -0.0219  0.2280
    1BTD     C716673   9.139   1.576   2.041  0.0288 -0.1310 -0.0571
    1BTD     C816674   9.130   1.714   2.001  0.2668 -0.1439 -0.1536
    1BTD    C1516675   9.055   1.749   1.888  0.0399 -0.0529  0.0245
    1BTD    C1616676   8.986   1.649   1.812 -0.4222  0.0523  0.2992
    1BTD    C4316677   8.929   1.753   1.587 -0.6235 -0.4925  0.0819
    1BTD    C4416678   8.838   1.795   1.469  0.6936  0.2294 -0.0723
    1BTD    C4516679   8.905   1.875   1.355 -0.8835  0.1882 -0.5181
    1BTD    C4616680   9.037   1.820   1.306 -0.7915 -0.3871  0.4862
    1BTD    C4716681   8.706   1.858   1.514 -0.5087 -0.5457  0.2237
    1BTD    C4816682   8.595   1.870   1.403 -0.4344  0.5232  0.4627
    1BTD    C4916683   8.464   1.945   1.430  0.6883  0.3153  0.0366
    1BTD    C5016684   8.391   1.987   1.304 -0.2177 -0.6050  0.0071
    1BTD    C7516685   8.981   1.981   1.792 -0.4835 -0.7526  0.4949
    1BTD    C7616686   8.866   2.063   1.861 -0.5211  0.0632  0.0454
    1BTD    C7716687   8.801   2.164   1.763  0.5241  0.2232  0.1706
    1BTD    C7816688   8.881   2.276   1.688  0.0200  0.4391  0.5835
    1BTD    C7916689   8.781   1.961   1.932 -0.2223 -0.2139  0.1469
    1BTD    C8016690   8.667   2.028   2.012 -0.1377 -0.2666  0.0433
    1BTD    C8116691   8.584   1.919   2.086  0.6638  0.0618 -0.1872
    1BTD    C8216692   8.506   1.972   2.206  0.3865 -0.5433 -0.1413
    2TTP     S116693   8.832   1.277   1.735 -0.3580  0.0969 -0.2115
    2TTP     S516694   8.671   1.536   1.432  0.0260  0.3098 -0.2344
    2TTP     C116695   8.597   1.372   1.413 -0.1552  0.3955 -0.2726
    2TTP     C216696   8.642   1.282   1.505 -0.2842  0.3348 -0.2678
    2TTP     C316697   8.737   1.340   1.595 -0.2451  0.2184 -0.2337
    2TTP     C416698   8.907   1.442   1.755 -0.1767  0.0111 -0.1733
    2TTP    C1716699   8.861   1.532   1.662 -0.0476  0.0718 -0.1781
    2TTP    C1816700   8.766   1.474   1.573 -0.0868  0.1882 -0.2122
    2TTP    C3216701   8.584   1.137   1.530 -0.4578 -0.3470 -0.1113
    2TTP    C3316702   8.501   1.120   1.652  0.5883 -0.1124  0.6629
    2TTP    C3416703   8.370   1.207   1.682 -0.3152  0.2033 -0.5377
    2TTP    C3516704   8.266   1.217   1.574 -0.0791  0.4164 -0.3038
    2TTP    C3616705   8.198   1.080   1.552 -0.2175  0.1803 -0.3295
    2TTP    C3716706   8.070   1.099   1.474  0.3925 -0.3211 -0.5370
    2TTP    C3816707   7.968   0.984   1.481 -0.0134  0.2537  0.2157
    2TTP    C3916708   7.847   0.996   1.391 -0.3375 -0.4943 -0.9416
    2TTP    C4016709   7.860   0.997   1.238 -0.6676 -0.1753 -0.9027
    2TTP    C4116710   7.911   0.866   1.187  0.5749 -0.2141 -0.5414
    2TTP    C4216711   7.990   0.860   1.059  0.0219  0.1699  0.9389
    3TTP     S116712   9.294   1.895   2.186 -0.0680  0.2558  0.2962
    3TTP     S516713   9.178   2.235   1.950  0.2933  0.0596 -0.1681
    3TTP     C116714   9.275   2.293   2.092  0.1638  0.1688 -0.1236
    3TTP     C216715   9.317   2.192   2.173  0.0446  0.2359  0.0224
    3TTP     C316716   9.274   2.064   2.126  0.0510  0.2034  0.1044
    3TTP     C416717   9.197   1.836   2.044  0.0615  0.1465  0.2518
    3TTP    C1716718   9.155   1.938   1.963  0.1809  0.0795  0.1058
    3TTP    C1816719   9.199   2.065   2.010  0.1740  0.1120  0.0238
    3TTP    C3216720   9.395   2.195   2.300 -0.1994 -0.1400 -1.0045
    3TTP    C3316721   9.326   2.150   2.431 -0.7721 -0.1214  0.0624
    3TTP    C3416722   9.433   2.100   2.528  0.7304 -0.0395 -0.0405
    3TTP    C3516723   9.375   2.045   2.656 -0.4834  0.2227 -1.5500
    3TTP    C3616724   9.475   1.999   2.768  0.6711  0.1781 -0.3108
    3TTP    C3716725   9.589   1.904   2.729 -0.1131  0.1221  0.1407
    3TTP    C3816726   9.679   1.875   2.843  0.1950 -0.2046 -0.0111
    3TTP    C3916727   9.768   1.755   2.839 -0.3049 -0.0057 -0.1935
    3TTP    C4016728   9.850   1.735   2.965  0.7315 -0.0061 -0.0212
    3TTP    C4116729   9.956   1.630   2.965 -0.3052 -0.2230 -0.7883
    3TTP    C4216730   9.917   1.488   2.936 -0.2011 -0.0783  0.0781
    4BIM     F116731   8.004   1.820   1.086  0.0374 -0.0122 -0.0867
    4BIM     F216732   7.950   1.615   0.916 -0.0764 -0.0268 -0.0325
    4BIM     O116733   8.405   1.606   1.381  0.1287 -0.0446 -0.2342
    4BIM     N516734   8.157   1.167   0.883 -0.1750 -0.0706 -0.0598
    4BIM     N616735   8.480   1.041   1.147 -0.0806 -0.0930 -0.1861
    4BIM    C1916736   8.495   1.334   1.324  0.0525 -0.0699 -0.2349
    4BIM    C2016737   8.396   1.396   1.256  0.0339 -0.0613 -0.1999
    4BIM    C2116738   8.355   1.536   1.292  0.0758 -0.0485 -0.2021
    4BIM    C2216739   8.246   1.572   1.199  0.0417 -0.0414 -0.1588
    4BIM    C2316740   8.177   1.693   1.194  0.0613 -0.0291 -0.1450
    4BIM    C2416741   8.077   1.704   1.097  0.0206 -0.0244 -0.1024
    4BIM    C2516742   8.049   1.598   1.010 -0.0379 -0.0319 -0.0746
    4BIM    C2616743   8.119   1.478   1.015 -0.0582 -0.0442 -0.0880
    4BIM    C2716744   8.220   1.464   1.112 -0.0176 -0.0491 -0.1311
    4BIM    C2816745   8.310   1.351   1.143 -0.0246 -0.0616 -0.1553
    4BIM    C2916746   8.314   1.229   1.080 -0.0756 -0.0715 -0.1393
    4BIM    C3016747   8.228   1.195   0.972 -0.1302 -0.0710 -0.0957
    4BIM    C3116748   8.406   1.126   1.117 -0.0780 -0.0833 -0.1651
    5BIM     F116749   9.340   2.971   1.634  0.3636  0.1102 -0.1314
    5BIM     F216750   9.414   3.107   1.857 -0.1993  0.1452  0.0364
    5BIM     O116751   9.268   2.474   1.836  0.3901  0.0206 -0.3414
    5BIM     N516752   9.469   2.949   2.323 -0.9890  0.1317  0.1279
    5BIM     N616753   9.398   2.534   2.436 -0.8545  0.0545 -0.0700
    5BIM    C1916754   9.314   2.428   2.122 -0.1377  0.0221 -0.2557
    5BIM    C2016755   9.329   2.548   2.062 -0.1228  0.0433 -0.2095
    5BIM    C2116756   9.304   2.563   1.915  0.1569  0.0409 -0.2583
    5BIM    C2216757   9.329   2.705   1.883  0.0978  0.0675 -0.1882
    5BIM    C2316758   9.319   2.767   1.759  0.2904  0.0750 -0.2007
    5BIM    C2416759   9.348   2.903   1.753  0.1843  0.1013 -0.1239
    5BIM    C2516760   9.386   2.973   1.868 -0.1053  0.1193 -0.0376
    5BIM    C2616761   9.396   2.911   1.992 -0.2990  0.1119 -0.0246
    5BIM    C2716762   9.367   2.774   2.000 -0.1957  0.0854 -0.1015
    5BIM    C2816763   9.369   2.680   2.115 -0.3424  0.0712 -0.1111
    5BIM    C2916764   9.401   2.711   2.245 -0.6278  0.0821 -0.0420
    5BIM    C3016765   9.438   2.842   2.287 -0.8254  0.1093  0.0512
    5BIM    C3116766   9.399   2.613   2.349 -0.7510  0.0669 -0.0579
    1BTD     S216767   2.531   7.546   2.809  0.1636  0.2496 -0.2836
    1BTD     N116768   2.419   7.682   2.776  0.1110  0.2096 -0.2713
    1BTD     N216769   2.403   7.420   2.805  0.1692  0.2327 -0.0190
    1BTD     N316770   1.939   7.410   2.735  0.0858  0.1259  0.5427
    1BTD     N416771   1.959   7.734   2.700  0.0140  0.0975  0.2318
    1BTD     C516772   2.178   7.705   2.737  0.0612  0.1515 -0.0049
    1BTD     C616773   2.298   7.630   2.764  0.1009  0.1869 -0.0805
    1BTD     C716774   2.289   7.483   2.780  0.1334  0.1998  0.0608
    1BTD     C816775   2.161   7.419   2.768  0.1248  0.1767  0.2704
    1BTD    C1516776   2.046   7.496   2.741  0.0855  0.1420  0.3377
    1BTD    C1616777   2.055   7.638   2.726  0.0541  0.1297  0.2015
    1BTD    C4316778   1.852   7.726   2.601 -1.4463  0.1968 -0.2075
    1BTD    C4416779   1.730   7.816   2.602 -0.7712  0.5468 -0.5898
    1BTD    C4516780   1.674   7.839   2.460  0.3616  0.0380  0.6688
    1BTD    C4616781   1.589   7.730   2.402 -0.2064  0.1714  0.0152
    1BTD    C4716782   1.637   7.775   2.721  0.2032  0.6753  0.4387
    1BTD    C4816783   1.524   7.871   2.749 -0.5275 -0.3704  0.0017
    1BTD    C4916784   1.438   7.826   2.864 -0.5421 -0.5507 -0.3445
    1BTD    C5016785   1.331   7.931   2.913  0.1466 -0.1607 -0.0357
    1BTD    C7516786   1.796   7.447   2.741  0.1638  0.0254  0.2608
    1BTD    C7616787   1.690   7.378   2.648 -0.6122  0.5867 -0.3340
    1BTD    C7716788   1.551   7.434   2.667  0.0750  0.2508 -0.9113
    1BTD    C7816789   1.487   7.437   2.806  0.7057  0.0004  0.8517
    1BTD    C7916790   1.726   7.386   2.498  0.0616  0.0174  0.2365
    1BTD    C8016791   1.675   7.263   2.412 -0.5122 -0.9679  0.3717
    1BTD    C8116792   1.629   7.306   2.277  0.0256 -0.1699  0.2150
    1BTD    C8216793   1.480   7.353   2.285 -0.2648 -0.0136 -0.0814
    2TTP     S116794   2.246   7.997   2.758  0.0059  0.0837 -0.2344
    2TTP     S516795   1.825   8.077   2.788  0.0151 -0.0293  0.2118
    2TTP     C116796   1.916   8.230   2.824  0.0106  0.0160  0.0319
    2TTP     C216797   2.051   8.215   2.817  0.0075  0.0534 -0.1165
    2TTP     C316798   2.088   8.081   2.783  0.0085  0.0479 -0.0935
    2TTP     C416799   2.155   7.843   2.722  0.0104  0.0385 -0.0545
    2TTP    C1716800   2.020   7.859   2.729  0.0135  0.0009  0.0940
    2TTP    C1816801   1.983   7.993   2.763  0.0125  0.0068  0.0709
    2TTP    C3216802   2.163   8.317   2.838 -0.3480  0.2115 -0.2214
    2TTP    C3316803   2.207   8.393   2.707  0.2093  0.0938 -0.0012
    2TTP    C3416804   2.327   8.486   2.710  0.6949 -0.3538  0.0470
    2TTP    C3516805   2.339   8.585   2.823  0.4751  0.2646 -0.4311
    2TTP    C3616806   2.463   8.677   2.816  0.8932  0.6884  0.1438
    2TTP    C3716807   2.589   8.619   2.884 -0.2425 -0.2071 -0.0812
    2TTP    C3816808   2.713   8.700   2.850  0.2861 -0.3705 -0.0434
    2TTP    C3916809   2.844   8.648   2.911 -0.1071 -0.1456  0.4153
    2TTP    C4016810   2.973   8.728   2.880  0.2298 -0.4175 -0.1296
    2TTP    C4116811   3.084   8.702   2.971  0.3757  0.5874  0.4340
    2TTP    C4216812   3.206   8.791   2.950 -0.2475  0.2249 -0.1173
    3TTP     S116813   2.188   7.112   2.793 -0.2334  0.1955  0.1176
    3TTP     S516814   1.766   7.078   2.720 -0.1436 -0.3945 -0.1383
    3TTP     C116815   1.835   6.911   2.740  0.0966 -0.3033 -0.2032
    3TTP     C216816   1.970   6.911   2.763  0.0830 -0.1158 -0.1280
    3TTP     C316817   2.023   7.044   2.767 -0.1176 -0.0372 -0.0164
    3TTP     C416818   2.119   7.279   2.773 -0.4736  0.1044  0.1825
    3TTP    C1716819   1.984   7.279   2.750 -0.4600 -0.0832  0.1073
    3TTP    C1816820   1.931   7.146   2.746 -0.2594 -0.1618 -0.0043
    3TTP    C3216821   2.060   6.793   2.783  0.2000 -0.0036 -0.3352
    3TTP    C3316822   2.140   6.776   2.909  0.0598 -0.3326  0.0222
    3TTP    C3416823   2.194   6.632   2.906 -0.1178 -0.0876 -0.2410
    3TTP    C3516824   2.258   6.586   3.035 -0.7235 -0.0486 -0.0224
    3TTP    C3616825   2.283   6.441   3.058  0.3698  0.4733 -0.1598
    3TTP    C3716826   2.170   6.367   3.133 -0.2527 -0.7444  0.1529
    3TTP    C3816827   2.040   6.329   3.060 -0.3914 -0.2996  0.2410
    3TTP    C3916828   2.050   6.279   2.912 -0.2575 -0.0690 -0.1868
    3TTP    C4016829   1.923   6.230   2.850 -0.1680 -0.7145 -0.0847
    3TTP    C4116830   1.958   6.164   2.722  0.2189 -0.0985  0.1467
    3TTP    C4216831   1.843   6.084   2.653  0.0057 -0.4477 -0.5626
    4BIM     F116832   1.140   8.511   2.773  0.0206 -0.0317 -0.1293
    4BIM     F216833   1.230   8.753   2.859  0.0791 -0.0081 -0.2582
    4BIM     O116834   1.602   8.228   2.767 -0.0468 -0.1450  0.0157
    4BIM     N516835   1.687   8.900   2.978  0.1151 -0.0546 -0.3401
    4BIM     N616836   2.030   8.630   2.955  0.0507 -0.1478 -0.2009
    4BIM    C1916837   1.851   8.359   2.846 -0.0149 -0.1623 -0.0559
    4BIM    C2016838   1.732   8.421   2.845 -0.0002 -0.1347 -0.0874
    4BIM    C2116839   1.608   8.347   2.802 -0.0182 -0.1276 -0.0471
    4BIM    C2216840   1.496   8.443   2.812  0.0047 -0.0961 -0.0967
    4BIM    C2316841   1.362   8.420   2.783 -0.0010 -0.0792 -0.0834
    4BIM    C2416842   1.275   8.526   2.800  0.0245 -0.0495 -0.1387
    4BIM    C2516843   1.321   8.651   2.844  0.0546 -0.0376 -0.2051
    4BIM    C2616844   1.455   8.675   2.873  0.0604 -0.0539 -0.2187
    4BIM    C2716845   1.545   8.568   2.857  0.0350 -0.0839 -0.1633
    4BIM    C2816846   1.691   8.560   2.879  0.0331 -0.1073 -0.1602
    4BIM    C2916847   1.774   8.661   2.922  0.0576 -0.1042 -0.2146
    4BIM    C3016848   1.726   8.792   2.953  0.0892 -0.0770 -0.2834
    4BIM    C3116849   1.914   8.643   2.940  0.0537 -0.1283 -0.2067
    5BIM     F116850   1.040   6.756   2.797  0.1166  0.0459  0.2248
    5BIM     F216851   1.083   6.521   2.667 -0.0082  0.1611 -0.0267
    5BIM     O116852   1.546   6.945   2.835  0.2142 -0.2495  0.4024
    5BIM     N516853   1.505   6.317   2.507 -0.1182  0.1163 -0.2618
    5BIM     N616854   1.892   6.513   2.564 -0.0167 -0.1376 -0.0722
    5BIM    C1916855   1.767   6.788   2.725  0.1296 -0.2442  0.2252
    5BIM    C2016856   1.638   6.749   2.720  0.1099 -0.1744  0.1903
    5BIM    C2116857   1.530   6.836   2.779  0.1563 -0.1822  0.2870
    5BIM    C2216858   1.403   6.765   2.757  0.1194 -0.0949  0.2175
    5BIM    C2316859   1.275   6.806   2.794  0.1417 -0.0699  0.2668
    5BIM    C2416860   1.169   6.722   2.763  0.0977  0.0167  0.1824
    5BIM    C2516861   1.192   6.600   2.696  0.0335  0.0759  0.0528
    5BIM    C2616862   1.319   6.559   2.658  0.0108  0.0515  0.0030
    5BIM    C2716863   1.427   6.643   2.689  0.0546 -0.0359  0.0870
    5BIM    C2816864   1.572   6.629   2.664  0.0462 -0.0825  0.0652
    5BIM    C2916865   1.635   6.523   2.601 -0.0098 -0.0471 -0.0493
    5BIM    C3016866   1.563   6.411   2.550 -0.0692  0.0428 -0.1656
    5BIM    C3116867   1.776   6.518   2.581 -0.0133 -0.0970 -0.0612
    1BTD     S216868   5.905   8.562   8.796 -0.2799 -0.4400 -0.2382
    1BTD     N116869   5.913   8.742   8.795  0.0206 -0.4544 -0.4594
    1BTD     N216870   5.748   8.554   8.709 -0.4462 -0.2789  0.0403
    1BTD     N316871   5.444   8.861   8.526 -0.2426  0.0236  0.2084
    1BTD     N416872   5.647   9.093   8.632  0.3325 -0.1929 -0.4077
    1BTD     C516873   5.772   8.922   8.709  0.1765 -0.3152 -0.4249
    1BTD     C616874   5.804   8.784   8.732 -0.0166 -0.3438 -0.3211
    1BTD     C716875   5.712   8.679   8.684 -0.2780 -0.2458 -0.0417
    1BTD     C816876   5.592   8.717   8.615 -0.3331 -0.1237  0.1206
    1BTD    C1516877   5.564   8.854   8.594 -0.1380 -0.0996  0.0112
    1BTD    C1616878   5.653   8.955   8.641  0.1139 -0.1941 -0.2587
    1BTD    C4316879   5.585   9.167   8.518 -0.2289  0.8067 -0.5841
    1BTD    C4416880   5.546   9.311   8.530  0.0401 -0.2940  0.3284
    1BTD    C4516881   5.423   9.315   8.622  0.3038 -0.1410  0.0153
    1BTD    C4616882   5.388   9.456   8.680 -0.8592  0.1752  0.2338
    1BTD    C4716883   5.528   9.366   8.382  0.2449 -0.2570 -0.1930
    1BTD    C4816884   5.505   9.512   8.346 -0.0315 -0.3941  1.3122
    1BTD    C4916885   5.620   9.613   8.362  0.0516  0.2890 -0.8962
    1BTD    C5016886   5.583   9.741   8.310  0.9154 -0.2382  0.2276
    1BTD    C7516887   5.338   8.963   8.547  0.1614 -0.3936 -0.0644
    1BTD    C7616888   5.212   9.003   8.464 -0.1873  0.1452  0.0029
    1BTD    C7716889   5.115   9.091   8.550 -0.9061 -0.2624 -0.0857
    1BTD    C7816890   5.028   9.021   8.650 -0.1112 -0.0207  0.3716
    1BTD    C7916891   5.267   9.071   8.343  0.2705  0.5585  0.5231
    1BTD    C8016892   5.159   9.096   8.236 -0.3106 -0.6182 -0.2627
    1BTD    C8116893   5.218   9.151   8.110  0.2646  0.6490 -0.1467
    1BTD    C8216894   5.265   9.290   8.110 -0.2540 -0.6969  0.7024
    2TTP     S116895   5.981   9.088   8.839  0.0103 -0.0206 -0.4849
    2TTP     S516896   5.775   9.445   8.716 -0.5909 -0.0582  0.3867
    2TTP     C116897   5.919   9.493   8.817 -0.3023 -0.0411 -0.0252
    2TTP     C216898   5.991   9.385   8.861 -0.0997 -0.0286 -0.3188
    2TTP     C316899   5.935   9.261   8.816 -0.1651 -0.0319 -0.2289
    2TTP     C416900   5.837   9.040   8.738 -0.2786 -0.0374 -0.0732
    2TTP    C1716901   5.766   9.148   8.694 -0.4810 -0.0500  0.2205
    2TTP    C1816902   5.821   9.271   8.738 -0.4158 -0.0470  0.1307
    2TTP    C3216903   6.116   9.382   8.947  0.2656  0.7350  0.0604
    2TTP    C3316904   6.246   9.424   8.877 -0.1841 -0.2404  0.0583
    2TTP    C3416905   6.362   9.427   8.976 -0.4048  0.2876  1.5082
    2TTP    C3516906   6.504   9.430   8.920  0.3546  0.5372 -0.4232
    2TTP    C3616907   6.626   9.416   9.014  0.3519 -0.1231  0.0803
    2TTP    C3716908   6.627   9.309   9.120  0.1601 -0.0679  0.5238
    2TTP    C3816909   6.750   9.300   9.215  0.1644 -0.5789 -0.2316
    2TTP    C3916910   6.757   9.423   9.302  0.3681  0.3137 -0.3627
    2TTP    C4016911   6.885   9.424   9.380 -0.5619 -0.1940  0.8417
    2TTP    C4116912   6.911   9.528   9.476 -0.6336  0.2346 -0.5446
    2TTP    C4216913   6.828   9.531   9.601  0.1243 -0.4318  0.9858
    3TTP     S116914   5.446   8.467   8.540  0.0393 -0.0405  0.2659
    3TTP     S516915   5.120   8.704   8.390  0.2013 -0.0684 -0.1316
    3TTP     C116916   5.070   8.530   8.388  0.0628 -0.0346  0.2101
    3TTP     C216917   5.168   8.446   8.434  0.0045 -0.0246  0.3529
    3TTP     C316918   5.285   8.517   8.473  0.0674 -0.0422  0.1976
    3TTP     C416919   5.496   8.641   8.543  0.1780 -0.0741 -0.0758
    3TTP    C1716920   5.398   8.725   8.496  0.2362 -0.0847 -0.2187
    3TTP    C1816921   5.280   8.654   8.457  0.1734 -0.0665 -0.0634
    3TTP    C3216922   5.159   8.289   8.440  0.4205 -0.1569  0.4413
    3TTP    C3316923   5.199   8.218   8.568  0.3662  0.7776 -0.1646
    3TTP    C3416924   5.217   8.066   8.540  0.6630 -0.0760  0.7924
    3TTP    C3516925   5.223   7.986   8.664 -0.3400 -0.2332 -0.8899
    3TTP    C3616926   5.237   7.831   8.649  0.1178 -0.1220  0.1650
    3TTP    C3716927   5.304   7.770   8.771  0.0802  0.0047  0.2150
    3TTP    C3816928   5.304   7.617   8.767 -0.3467  0.8427  0.6581
    3TTP    C3916929   5.385   7.548   8.877 -0.1095  0.2091  0.3632
    3TTP    C4016930   5.407   7.399   8.861 -0.1292 -0.0618  0.1789
    3TTP    C4116931   5.487   7.344   8.974  0.4900  0.2089  0.2366
    3TTP    C4216932   5.551   7.208   8.958  0.4554 -0.0880  0.3892
    4BIM     F116933   5.828  10.241   8.491 -0.0058  0.0003 -0.1864
    4BIM     F216934   5.913  10.347   8.727 -0.0335  0.1411 -0.2391
    4BIM     O116935   5.869   9.711   8.596  0.0353  0.0629  0.1156
    4BIM     N516936   6.065  10.122   9.141 -0.0443  0.3881 -0.1004
    4BIM     N616937   6.080   9.686   9.175 -0.0068  0.4087  0.1459
    4BIM    C1916938   5.965   9.624   8.859  0.0230  0.2197  0.1716
    4BIM    C2016939   5.952   9.753   8.823  0.0139  0.1984  0.0982
    4BIM    C2116940   5.902   9.790   8.686  0.0210  0.1167  0.0732
    4BIM    C2216941   5.899   9.937   8.681  0.0077  0.1135 -0.0098
    4BIM    C2316942   5.860  10.018   8.574  0.0086  0.0498 -0.0579
    4BIM    C2416943   5.866  10.155   8.593 -0.0055  0.0608 -0.1348
    4BIM    C2516944   5.909  10.210   8.714 -0.0199  0.1334 -0.1623
    4BIM    C2616945   5.949  10.130   8.821 -0.0207  0.1972 -0.1142
    4BIM    C2716946   5.943   9.991   8.804 -0.0066  0.1872 -0.0362
    4BIM    C2816947   5.978   9.880   8.897 -0.0033  0.2423  0.0291
    4BIM    C2916948   6.024   9.892   9.025 -0.0143  0.3192  0.0257
    4BIM    C3016949   6.047  10.018   9.088 -0.0309  0.3568 -0.0436
    4BIM    C3116950   6.055   9.779   9.107 -0.0103  0.3680  0.0920
    5BIM     F116951   4.358   8.897   8.199  0.0736  0.0134 -0.2694
    5BIM     F216952   4.269   8.657   8.107  0.0836 -0.0701 -0.0622
    5BIM     O116953   4.852   8.763   8.375  0.0722  0.1819 -0.1369
    5BIM     N516954   4.494   8.216   8.101  0.0968 -0.0696  0.3300
    5BIM     N616955   4.898   8.160   8.257  0.0937  0.0789  0.3917
    5BIM    C1916956   4.943   8.486   8.350  0.0812  0.1624  0.1080
    5BIM    C2016957   4.822   8.529   8.309  0.0812  0.1233  0.0665
    5BIM    C2116958   4.782   8.673   8.326  0.0764  0.1366 -0.0606
    5BIM    C2216959   4.646   8.686   8.271  0.0776  0.0846 -0.0756
    5BIM    C2316960   4.567   8.800   8.265  0.0744  0.0768 -0.1786
    5BIM    C2416961   4.441   8.788   8.209  0.0765  0.0244 -0.1709
    5BIM    C2516962   4.395   8.664   8.162  0.0816 -0.0186 -0.0646
    5BIM    C2616963   4.473   8.549   8.168  0.0848 -0.0107  0.0384
    5BIM    C2716964   4.602   8.560   8.224  0.0827  0.0422  0.0329
    5BIM    C2816965   4.708   8.459   8.246  0.0851  0.0639  0.1245
    5BIM    C2916966   4.702   8.325   8.213  0.0901  0.0348  0.2408
    5BIM    C3016967   4.587   8.265   8.151  0.0938 -0.0224  0.2894
    5BIM    C3116968   4.810   8.235   8.237  0.0919  0.0594  0.3231
    1BTD     S216969   6.808   6.923   6.736  0.2868  0.0550 -0.1322
    1BTD     N116970   6.981   6.973   6.742  0.2346  0.2340 -0.1189
    1BTD     N216971   6.745   7.090   6.720  0.1080 -0.0012 -0.0200
    1BTD     N316972   6.928   7.522   6.697 -0.3512  0.2078  0.2322
    1BTD     N416973   7.218   7.377   6.724 -0.1949  0.4976  0.1105
    1BTD     C516974   7.101   7.186   6.732  0.0085  0.3680  0.0024
    1BTD     C616975   6.982   7.105   6.732  0.0937  0.2424 -0.0360
    1BTD     C716976   6.850   7.171   6.719  0.0228  0.1106  0.0193
    1BTD     C816977   6.844   7.314   6.708 -0.1298  0.1113  0.1101
    1BTD    C1516978   6.963   7.389   6.709 -0.2091  0.2370  0.1448
    1BTD    C1616979   7.090   7.326   6.721 -0.1408  0.3638  0.0916
    1BTD    C4316980   7.255   7.498   6.648  0.2761 -0.3193  0.3807
    1BTD    C4416981   7.385   7.573   6.685 -0.1076  0.5492  0.4984
    1BTD    C4516982   7.387   7.619   6.832  0.1272 -0.8076  0.1991
    1BTD    C4616983   7.520   7.675   6.890  0.4873 -0.0356  0.0129
    1BTD    C4716984   7.420   7.692   6.584 -0.2335  0.3172  0.5416
    1BTD    C4816985   7.444   7.664   6.432 -0.1400 -0.2857 -0.6881
    1BTD    C4916986   7.546   7.568   6.383 -0.7186 -0.2024 -0.0739
    1BTD    C5016987   7.688   7.631   6.371 -0.7091  0.2426 -0.2972
    1BTD    C7516988   6.993   7.625   6.775 -0.3421 -0.7371  0.7356
    1BTD    C7616989   6.978   7.778   6.738  1.2731  0.4066 -0.2105
    1BTD    C7716990   7.041   7.811   6.604 -0.3820  0.6182 -0.1942
    1BTD    C7816991   6.996   7.940   6.546  0.1555  0.2052  0.3840
    1BTD    C7916992   6.984   7.873   6.856 -0.3677 -0.3655 -1.0416
    1BTD    C8016993   7.129   7.900   6.917  0.6202  0.9862  0.0946
    1BTD    C8116994   7.127   7.964   7.054  0.4955  0.0226  0.6214
    1BTD    C8216995   7.121   8.115   7.024 -0.7735 -0.6541 -0.4650
    2TTP     S116996   7.344   7.006   6.758  0.1423 -0.2094  0.0992
    2TTP     S516997   7.598   7.351   6.793 -0.2933  0.1094  0.1355
    2TTP     C116998   7.701   7.202   6.810 -0.1413  0.2393  0.3629
    2TTP     C216999   7.628   7.086   6.801  0.0020  0.1484  0.3653
    2TTP     C317000   7.489   7.112   6.779 -0.0027 -0.0269  0.1872
    2TTP     C417001   7.242   7.155   6.740 -0.0097 -0.3393 -0.1283
    2TTP    C1717002   7.314   7.271   6.749 -0.1531 -0.2484 -0.1305
    2TTP    C1817003   7.453   7.245   6.771 -0.1482 -0.0730  0.0473
    2TTP    C3217004   7.688   6.947   6.832 -0.4572 -0.3506 -0.3005
    2TTP    C3317005   7.666   6.826   6.747  0.1408 -0.4181 -0.4731
    2TTP    C3417006   7.739   6.820   6.612 -0.0911  0.2428 -0.4811
    2TTP    C3517007   7.894   6.822   6.628  0.4634 -0.5354 -0.2136
    2TTP    C3617008   7.963   6.841   6.494 -1.2662 -0.4393  0.5350
    2TTP    C3717009   8.117   6.825   6.502  0.6304  0.2681 -0.1900
    2TTP    C3817010   8.186   6.953   6.551  0.2999  0.2808 -0.5335
    2TTP    C3917011   8.337   6.976   6.542 -0.7090  0.5196 -0.4312
    2TTP    C4017012   8.370   7.122   6.543  0.6766  0.1604  0.8751
    2TTP    C4117013   8.519   7.139   6.530  0.5828 -0.1722 -0.4457
    2TTP    C4217014   8.560   7.288   6.537  0.4311  0.5596  0.5061
    3TTP     S117015   6.555   7.407   6.674  0.0723  0.0224 -0.0427
    3TTP     S517016   6.693   7.811   6.627  0.4227 -0.1224 -0.2612
    3TTP     C117017   6.512   7.809   6.607  0.4064  0.0439 -0.1290
    3TTP     C217018   6.459   7.684   6.621  0.2973  0.0982 -0.0539
    3TTP     C317019   6.559   7.586   6.647  0.2224  0.0108 -0.0978
    3TTP     C417020   6.736   7.409   6.693  0.0885 -0.1438 -0.1749
    3TTP    C1717021   6.789   7.534   6.680  0.1977 -0.1983 -0.2501
    3TTP    C1817022   6.689   7.633   6.654  0.2724 -0.1107 -0.2060
    3TTP    C3217023   6.307   7.637   6.604  0.1464 -0.0667 -0.0022
    3TTP    C3317024   6.258   7.495   6.556  0.6453 -0.5225 -0.3841
    3TTP    C3417025   6.109   7.458   6.561  0.5828 -0.2164  0.2503
    3TTP    C3517026   6.012   7.555   6.488  0.0781  0.1831 -0.6505
    3TTP    C3617027   5.873   7.483   6.490  0.0234  0.1869  0.0554
    3TTP    C3717028   5.752   7.564   6.439 -0.7452 -0.2794 -0.0164
    3TTP    C3817029   5.632   7.476   6.428 -0.0158 -0.0591  0.1070
    3TTP    C3917030   5.510   7.555   6.390 -0.2932  0.4296  0.8308
    3TTP    C4017031   5.385   7.474   6.342 -0.2529 -0.5960  0.2275
    3TTP    C4117032   5.382   7.366   6.238 -0.1724  0.1085 -0.3610
    3TTP    C4217033   5.380   7.423   6.097 -0.0337 -0.2087 -0.5682
    4BIM     F117034   8.209   7.701   6.412  0.1359 -0.1237  0.0210
    4BIM     F217035   8.414   7.602   6.559  0.0746 -0.1066  0.1169
    4BIM     O117036   7.794   7.409   6.602  0.0066  0.1086  0.0970
    4BIM     N517037   8.414   7.250   6.908 -0.1049  0.0836  0.3090
    4BIM     N617038   8.049   7.042   7.027 -0.1936  0.2618  0.3490
    4BIM    C1917039   7.844   7.211   6.811 -0.0975  0.2076  0.2156
    4BIM    C2017040   7.940   7.288   6.757 -0.0627  0.1484  0.1928
    4BIM    C2117041   7.907   7.388   6.650 -0.0099  0.1001  0.1315
    4BIM    C2217042   8.033   7.454   6.614  0.0179  0.0415  0.1206
    4BIM    C2317043   8.053   7.555   6.520  0.0682 -0.0165  0.0699
    4BIM    C2417044   8.182   7.602   6.503  0.0860 -0.0654  0.0698
    4BIM    C2517045   8.288   7.551   6.580  0.0549 -0.0565  0.1194
    4BIM    C2617046   8.269   7.451   6.674  0.0045  0.0011  0.1701
    4BIM    C2717047   8.139   7.401   6.692 -0.0143  0.0513  0.1709
    4BIM    C2817048   8.086   7.297   6.783 -0.0651  0.1173  0.2172
    4BIM    C2917049   8.158   7.223   6.874 -0.1066  0.1445  0.2724
    4BIM    C3017050   8.299   7.238   6.892 -0.1054  0.1110  0.2923
    4BIM    C3117051   8.098   7.124   6.958 -0.1543  0.2089  0.3141
    5BIM     F117052   6.599   8.619   6.695 -0.1107  0.0260 -0.1864
    5BIM     F217053   6.344   8.651   6.605 -0.2170  0.0029  0.1030
    5BIM     O117054   6.648   8.080   6.680 -0.0601  0.0334 -0.2925
    5BIM     N517055   6.012   8.312   6.465 -0.3337 -0.0250  0.4437
    5BIM     N617056   6.102   7.884   6.471 -0.2728 -0.0145  0.3023
    5BIM    C1917057   6.421   7.919   6.588 -0.1438  0.0140 -0.0537
    5BIM    C2017058   6.419   8.053   6.596 -0.1521  0.0129 -0.0384
    5BIM    C2117059   6.539   8.129   6.644 -0.1073  0.0231 -0.1663
    5BIM    C2217060   6.503   8.272   6.640 -0.1301  0.0196 -0.1119
    5BIM    C2317061   6.583   8.381   6.675 -0.1040  0.0260 -0.1905
    5BIM    C2417062   6.526   8.507   6.662 -0.1342  0.0201 -0.1154
    5BIM    C2517063   6.395   8.523   6.616 -0.1888  0.0082  0.0337
    5BIM    C2617064   6.315   8.415   6.580 -0.2153  0.0014  0.1130
    5BIM    C2717065   6.370   8.286   6.592 -0.1854  0.0072  0.0386
    5BIM    C2817066   6.314   8.152   6.564 -0.2012  0.0029  0.0899
    5BIM    C2917067   6.187   8.126   6.517 -0.2514 -0.0083  0.2294
    5BIM    C3017068   6.092   8.228   6.488 -0.2964 -0.0174  0.3467
    5BIM    C3117069   6.141   7.993   6.492 -0.2626 -0.0118  0.2686
    1BTD     S217070   0.111   6.364   5.402 -0.0832 -0.2084  0.1841
    1BTD     N117071   0.050   6.196   5.382 -0.0037 -0.1642 -0.4462
    1BTD     N217072  -0.048   6.442   5.372 -0.1638 -0.1744  0.6804
    1BTD     N317073  -0.483   6.296   5.273 -0.1848 -0.0252  0.5536
    1BTD     N417074  -0.362   5.994   5.285  0.0126 -0.0128 -0.8347
    1BTD     C517075  -0.167   6.094   5.331  0.0024 -0.0852 -0.6322
    1BTD     C617076  -0.079   6.206   5.355 -0.0396 -0.1284 -0.2637
    1BTD     C717077  -0.134   6.343   5.349 -0.1292 -0.1340  0.3670
    1BTD     C817078  -0.274   6.362   5.321 -0.1724 -0.0966  0.5974
    1BTD    C1517079  -0.356   6.250   5.298 -0.1289 -0.0549  0.2202
    1BTD    C1617080  -0.303   6.118   5.303 -0.0424 -0.0495 -0.3874
    1BTD    C4317081  -0.493   5.957   5.226 -1.1416 -0.1361  0.1863
    1BTD    C4417082  -0.518   5.969   5.072 -0.3005  0.5092 -0.4107
    1BTD    C4517083  -0.427   5.883   4.982  0.1833 -0.2734 -0.4069
    1BTD    C4617084  -0.445   5.730   4.982 -0.2566  0.5342  0.6780
    1BTD    C4717085  -0.668   5.974   5.042 -0.8919  0.0047 -1.0439
    1BTD    C4817086  -0.701   6.012   4.896 -0.3050 -0.4021 -0.3120
    1BTD    C4917087  -0.845   6.032   4.869 -0.3083  0.6588 -0.8021
    1BTD    C5017088  -0.885   6.066   4.722 -0.3522  0.0075 -0.4062
    1BTD    C7517089  -0.620   6.237   5.299  0.3465 -0.2879 -0.0525
    1BTD    C7617090  -0.676   6.248   5.441  0.1900  0.6514 -0.6621
    1BTD    C7717091  -0.576   6.189   5.539  0.1652  0.0954 -0.5234
    1BTD    C7817092  -0.608   6.203   5.689 -0.2957 -0.0216  0.3917
    1BTD    C7917093  -0.822   6.204   5.455  0.2236 -0.9036 -0.2249
    1BTD    C8017094  -0.919   6.286   5.368  0.0216 -0.6552  0.1321
    1BTD    C8117095  -1.071   6.244   5.371 -1.0309  0.3842 -0.3181
    1BTD    C8217096  -1.097   6.111   5.298 -0.4389 -0.2384 -0.3034
    2TTP     S117097  -0.029   5.836   5.417  0.0618 -0.0172  0.2046
    2TTP     S517098  -0.390   5.617   5.334  0.1073  0.0577 -0.1980
    2TTP     C117099  -0.265   5.501   5.400 -0.0583  0.0708  0.1447
    2TTP     C217100  -0.147   5.562   5.429 -0.0823  0.0483  0.2891
    2TTP     C317101  -0.150   5.702   5.401  0.0296  0.0203  0.1343
    2TTP     C417102  -0.153   5.952   5.351  0.2275 -0.0304 -0.1382
    2TTP    C1717103  -0.272   5.891   5.322  0.2513 -0.0077 -0.2825
    2TTP    C1817104  -0.269   5.751   5.350  0.1397  0.0204 -0.1278
    2TTP    C3217105  -0.024   5.491   5.480  0.2131 -0.2407  0.5406
    2TTP    C3317106   0.093   5.462   5.384 -0.1642 -0.1331 -0.4281
    2TTP    C3417107   0.206   5.404   5.464  0.4114  0.0360 -0.5632
    2TTP    C3517108   0.322   5.364   5.382 -0.0527  0.2138 -0.5703
    2TTP    C3617109   0.438   5.317   5.472 -0.0397  0.1844 -0.0868
    2TTP    C3717110   0.570   5.285   5.402  0.3476  0.2829 -0.1298
    2TTP    C3817111   0.630   5.388   5.312 -0.6575 -0.2679  0.6046
    2TTP    C3917112   0.754   5.336   5.237 -0.7941  0.1902 -0.0398
    2TTP    C4017113   0.833   5.436   5.144 -0.1228  0.7792 -0.2299
    2TTP    C4117114   0.955   5.389   5.061  0.6961  0.0702 -0.7241
    2TTP    C4217115   1.055   5.302   5.127  0.6636 -0.5138 -0.5053
    3TTP     S117116  -0.324   6.652   5.259 -0.0795  0.1752 -0.2069
    3TTP     S517117  -0.733   6.553   5.167 -0.0651 -0.1683  0.0906
    3TTP     C117118  -0.705   6.728   5.126 -0.2582 -0.1287  0.1258
    3TTP     C217119  -0.577   6.769   5.152 -0.2747 -0.0204  0.0360
    3TTP     C317120  -0.497   6.664   5.205 -0.1342  0.0354 -0.0637
    3TTP     C417121  -0.352   6.477   5.300  0.1137  0.1357 -0.2419
    3TTP    C1717122  -0.480   6.436   5.274  0.1299  0.0272 -0.1523
    3TTP    C1817123  -0.560   6.542   5.221 -0.0103 -0.0285 -0.0523
    3TTP    C3217124  -0.519   6.910   5.147 -0.6070 -0.5305 -0.4533
    3TTP    C3317125  -0.449   6.940   5.015  0.6135  0.4658 -0.2403
    3TTP    C3417126  -0.377   7.071   4.992 -0.1988 -0.5309 -0.4616
    3TTP    C3517127  -0.270   7.115   5.095 -0.5918  0.1224  0.0012
    3TTP    C3617128  -0.167   7.021   5.145 -0.6443  0.6199  0.2661
    3TTP    C3717129  -0.063   7.090   5.232  0.1266 -0.0508  0.2326
    3TTP    C3817130   0.044   6.990   5.274  0.6325 -0.0271 -0.1260
    3TTP    C3917131   0.149   7.048   5.366 -0.1591  0.4325  0.0661
    3TTP    C4017132   0.233   6.947   5.443  0.3871  0.8903  0.3578
    3TTP    C4117133   0.300   6.823   5.370  0.0175 -0.3756  0.4121
    3TTP    C4217134   0.359   6.739   5.482 -0.1216 -0.0842 -0.4806
    4BIM     F117135  -0.911   5.001   5.451 -0.1669  0.1134  0.3235
    4BIM     F217136  -0.747   4.792   5.393 -0.3223 -0.0573  0.4994
    4BIM     O117137  -0.556   5.410   5.458  0.1073 -0.1137 -0.2133
    4BIM     N517138  -0.259   4.781   5.315 -0.3510 -0.4646  0.3697
    4BIM     N617139  -0.014   5.143   5.332 -0.1051 -0.6076 -0.0852
    4BIM    C1917140  -0.273   5.354   5.405  0.0560 -0.3574 -0.2361
    4BIM    C2017141  -0.369   5.260   5.406 -0.0069 -0.2936 -0.1079
    4BIM    C2117142  -0.512   5.296   5.433  0.0250 -0.1688 -0.1050
    4BIM    C2217143  -0.589   5.171   5.426 -0.0606 -0.1256  0.0508
    4BIM    C2317144  -0.726   5.154   5.445 -0.0668 -0.0148  0.1080
    4BIM    C2417145  -0.776   5.025   5.433 -0.1557  0.0059  0.2594
    4BIM    C2517146  -0.692   4.917   5.403 -0.2358 -0.0824  0.3498
    4BIM    C2617147  -0.555   4.933   5.385 -0.2306 -0.1931  0.2933
    4BIM    C2717148  -0.502   5.063   5.396 -0.1409 -0.2155  0.1402
    4BIM    C2817149  -0.364   5.113   5.382 -0.1109 -0.3222  0.0465
    4BIM    C2917150  -0.252   5.039   5.353 -0.1686 -0.4275  0.0937
    4BIM    C3017151  -0.256   4.897   5.332 -0.2689 -0.4476  0.2452
    4BIM    C3117152  -0.122   5.096   5.342 -0.1335 -0.5258 -0.0051
    5BIM     F117153  -1.522   6.694   5.083  0.0465 -0.0706  0.1340
    5BIM     F217154  -1.513   6.890   4.894  0.0229  0.0192  0.2258
    5BIM     O117155  -0.997   6.649   5.208  0.0973 -0.3517 -0.1793
    5BIM     N517156  -1.127   7.138   4.711  0.0253 -0.0520  0.1342
    5BIM     N617157  -0.718   7.063   4.846  0.0694 -0.2897 -0.1291
    5BIM    C1917158  -0.802   6.820   5.072  0.0928 -0.3656 -0.2031
    5BIM    C2017159  -0.935   6.823   5.048  0.0808 -0.2985 -0.1277
    5BIM    C2117160  -1.029   6.732   5.122  0.0844 -0.2958 -0.1206
    5BIM    C2217161  -1.164   6.762   5.072  0.0691 -0.2146 -0.0308
    5BIM    C2317162  -1.284   6.703   5.111  0.0658 -0.1838  0.0066
    5BIM    C2417163  -1.400   6.748   5.049  0.0504 -0.1049  0.0931
    5BIM    C2517164  -1.395   6.849   4.952  0.0380 -0.0587  0.1400
    5BIM    C2617165  -1.276   6.908   4.912  0.0410 -0.0890  0.1032
    5BIM    C2717166  -1.158   6.864   4.974  0.0567 -0.1688  0.0160
    5BIM    C2817167  -1.016   6.906   4.955  0.0637 -0.2185 -0.0420
    5BIM    C2917168  -0.970   7.002   4.868  0.0553 -0.1950 -0.0200
    5BIM    C3017169  -1.056   7.077   4.782  0.0389 -0.1165  0.0647
    5BIM    C3117170  -0.832   7.035   4.857  0.0634 -0.2471 -0.0801
    1BTD     S217171   3.487   1.662   9.280 -0.2073  0.2017 -0.0362
    1BTD     N117172   3.328   1.595   9.330 -0.2245  0.2463 -0.0303
    1BTD     N217173   3.430   1.715   9.118 -0.1775  0.1463 -0.0648
    1BTD     N317174   3.027   1.700   8.878 -0.1481  0.1137 -0.1125
    1BTD     N417175   2.901   1.552   9.139 -0.2058  0.2370 -0.0694
    1BTD     C517176   3.106   1.574   9.227 -0.2140  0.2400 -0.0513
    1BTD     C617177   3.245   1.614   9.229 -0.2080  0.2190 -0.0489
    1BTD     C717178   3.302   1.681   9.110 -0.1818  0.1630 -0.0684
    1BTD     C817179   3.218   1.705   8.996 -0.1629  0.1308 -0.0892
    1BTD    C1517180   3.083   1.664   8.999 -0.1696  0.1530 -0.0906
    1BTD    C1617181   3.028   1.600   9.113 -0.1949  0.2070 -0.0722
    1BTD    C4317182   2.772   1.617   9.094 -0.2744  0.4355  0.2670
    1BTD    C4417183   2.630   1.551   9.082  0.3976  0.1575  0.9207
    1BTD    C4517184   2.521   1.659   9.072  0.4924 -0.7074  0.1597
    1BTD    C4617185   2.508   1.756   9.188 -0.0038 -0.8917  0.2678
    1BTD    C4717186   2.635   1.446   8.976 -0.1529  0.3578  0.0129
    1BTD    C4817187   2.504   1.378   8.930  0.2242  0.1891 -0.5169
    1BTD    C4917188   2.530   1.255   8.848  0.3944  0.1778  0.6282
    1BTD    C5017189   2.592   1.135   8.924 -0.3632 -0.3209  0.4599
    1BTD    C7517190   2.911   1.626   8.819 -0.6058  0.4696 -0.2805
    1BTD    C7617191   2.815   1.692   8.723  0.4382 -1.1217  0.6133
    1BTD    C7717192   2.714   1.597   8.658 -0.2269  0.3467 -0.2381
    1BTD    C7817193   2.763   1.461   8.606 -0.0006 -0.3508  0.0661
    1BTD    C7917194   2.747   1.822   8.769 -0.1253  0.1952 -0.8993
    1BTD    C8017195   2.653   1.909   8.680 -0.3278 -0.2839 -0.4765
    1BTD    C8117196   2.570   2.002   8.777  0.0369 -0.2169  0.4716
    1BTD    C8217197   2.446   2.056   8.710 -0.2513  0.3919 -0.4850
    2TTP     S117198   3.055   1.376   9.454 -0.1405 -0.0526  0.0592
    2TTP     S517199   2.657   1.318   9.302 -0.0552  0.0295 -0.1967
    2TTP     C117200   2.685   1.200   9.438 -0.1297 -0.0485 -0.2483
    2TTP     C217201   2.809   1.211   9.493 -0.1605 -0.0784 -0.1729
    2TTP     C317202   2.887   1.313   9.430 -0.1263 -0.0409 -0.0708
    2TTP     C417203   3.028   1.493   9.318 -0.0659  0.0254  0.1109
    2TTP    C1717204   2.903   1.482   9.263 -0.0352  0.0553  0.0354
    2TTP    C1817205   2.825   1.381   9.326 -0.0695  0.0178 -0.0668
    2TTP    C3217206   2.871   1.141   9.615 -0.0065 -0.6469 -0.4856
    2TTP    C3317207   2.833   1.219   9.742  0.2004 -0.1709 -0.4047
    2TTP    C3417208   2.904   1.164   9.866 -0.4655 -0.4282  0.3608
    2TTP    C3517209   2.863   1.239   9.989  0.1267 -0.4677  0.2277
    2TTP    C3617210   2.905   1.174  10.119 -0.2074  0.1833  0.0776
    2TTP    C3717211   2.792   1.172  10.223  0.0955  0.0340 -0.4701
    2TTP    C3817212   2.847   1.117  10.359  0.3962 -0.7578 -0.1053
    2TTP    C3917213   2.739   1.110  10.476  0.0824  0.3942  0.6703
    2TTP    C4017214   2.693   1.236  10.551 -0.7380 -0.1120 -0.0939
    2TTP    C4117215   2.804   1.319  10.611 -1.2825 -1.0146 -0.5908
    2TTP    C4217216   2.749   1.430  10.706  0.4037 -0.1227  0.3681
    3TTP     S117217   3.377   1.842   8.776  0.0761  0.0412 -0.1594
    3TTP     S517218   3.022   1.854   8.535 -0.1110  0.3422  0.1299
    3TTP     C117219   3.158   1.927   8.440 -0.0916  0.0938 -0.0372
    3TTP     C217220   3.276   1.928   8.509 -0.0325 -0.0138 -0.1361
    3TTP     C317221   3.263   1.871   8.639 -0.0007  0.0961 -0.0842
    3TTP     C417222   3.241   1.769   8.871  0.0567  0.2897  0.0074
    3TTP    C1717223   3.123   1.768   8.802 -0.0023  0.3973  0.1065
    3TTP    C1817224   3.136   1.825   8.672 -0.0342  0.2874  0.0544
    3TTP    C3217225   3.408   1.989   8.460 -0.5244  0.7670  0.2381
    3TTP    C3317226   3.521   1.885   8.450  0.6048  0.0862 -0.2836
    3TTP    C3417227   3.641   1.913   8.368  0.2850  0.3552 -0.3552
    3TTP    C3517228   3.745   2.002   8.434 -0.3525  0.3876 -0.0861
    3TTP    C3617229   3.839   2.056   8.334 -0.5785  0.3984  0.0918
    3TTP    C3717230   3.988   2.082   8.377  0.1526  0.2580  0.0591
    3TTP    C3817231   4.093   1.967   8.366 -0.4705  0.2961  0.0782
    3TTP    C3917232   4.224   2.016   8.422  0.1611  0.5224 -0.1486
    3TTP    C4017233   4.341   1.915   8.428  0.2345 -0.4310  0.1356
    3TTP    C4117234   4.463   1.974   8.498 -0.0119  0.1677 -0.0827
    3TTP    C4217235   4.581   1.883   8.491 -0.3826  0.6862 -0.2989
    4BIM     F117236   1.944   0.909   9.207 -0.0561 -0.4444  0.0184
    4BIM     F217237   1.966   0.719   9.402 -0.0774 -0.2280  0.2320
    4BIM     O117238   2.411   1.176   9.272 -0.2367 -0.1306  0.0281
    4BIM     N517239   2.329   0.638   9.727 -0.2369  0.3068  0.5467
    4BIM     N617240   2.689   0.885   9.739 -0.3737  0.5084  0.5114
    4BIM    C1917241   2.597   1.090   9.481 -0.3213  0.1877  0.2362
    4BIM    C2017242   2.479   1.030   9.457 -0.2750  0.1003  0.2253
    4BIM    C2117243   2.388   1.080   9.348 -0.2334 -0.0624  0.1156
    4BIM    C2217244   2.269   0.993   9.349 -0.1885 -0.1238  0.1326
    4BIM    C2317245   2.158   1.001   9.266 -0.1408 -0.2701  0.0551
    4BIM    C2417246   2.057   0.907   9.286 -0.1041 -0.3019  0.0907
    4BIM    C2517247   2.069   0.810   9.386 -0.1153 -0.1903  0.2009
    4BIM    C2617248   2.179   0.802   9.469 -0.1628 -0.0441  0.2789
    4BIM    C2717249   2.282   0.896   9.451 -0.2004 -0.0097  0.2444
    4BIM    C2817250   2.412   0.914   9.521 -0.2540  0.1324  0.3054
    4BIM    C2917251   2.460   0.839   9.625 -0.2792  0.2679  0.4156
    4BIM    C3017252   2.388   0.728   9.681 -0.2558  0.2888  0.4871
    4BIM    C3117253   2.586   0.864   9.687 -0.3310  0.3994  0.4673
    5BIM     F117254   2.545   2.232   7.995 -0.2362 -0.2053  0.2894
    5BIM     F217255   2.712   2.240   7.780 -0.3767  0.0552  0.1886
    5BIM     O117256   2.878   2.039   8.376  0.1329 -0.2497 -0.0548
    5BIM     N517257   3.188   2.113   7.742 -0.3157  0.3981 -0.2016
    5BIM     N617258   3.415   1.961   8.083  0.0010  0.3110 -0.4504
    5BIM    C1917259   3.156   1.978   8.306  0.1298 -0.0165 -0.2735
    5BIM    C2017260   3.065   2.026   8.218  0.0424 -0.0156 -0.1831
    5BIM    C2117261   2.925   2.055   8.262  0.0504 -0.1395 -0.0734
    5BIM    C2217262   2.853   2.106   8.143 -0.0585 -0.1038  0.0067
    5BIM    C2317263   2.721   2.146   8.135 -0.0910 -0.1859  0.1187
    5BIM    C2417264   2.675   2.191   8.011 -0.1986 -0.1298  0.1782
    5BIM    C2517265   2.761   2.195   7.900 -0.2707  0.0045  0.1260
    5BIM    C2617266   2.894   2.155   7.908 -0.2390  0.0870  0.0141
    5BIM    C2717267   2.942   2.109   8.032 -0.1303  0.0319 -0.0472
    5BIM    C2817268   3.075   2.060   8.074 -0.0712  0.0915 -0.1657
    5BIM    C2917269   3.187   2.049   7.994 -0.1137  0.2211 -0.2447
    5BIM    C3017270   3.187   2.084   7.856 -0.2246  0.3179 -0.2208
    5BIM    C3117271   3.312   2.000   8.044 -0.0504  0.2698 -0.3574
    1BTD     S217272   0.603   4.250   2.765  0.4039 -0.4598 -0.1791
    1BTD     N117273   0.595   4.075   2.725  0.2879 -0.4085 -0.3812
    1BTD     N217274   0.444   4.289   2.692  0.2845 -0.3272  0.1482
    1BTD     N317275   0.104   4.053   2.470 -0.1683  0.0358  0.4503
    1BTD     N417276   0.291   3.789   2.510 -0.1642 -0.0646 -0.2019
    1BTD     C517277   0.434   3.928   2.612  0.0518 -0.2277 -0.2798
    1BTD     C617278   0.480   4.055   2.662  0.1721 -0.3008 -0.2035
    1BTD     C717279   0.395   4.175   2.644  0.1702 -0.2553  0.0928
    1BTD     C817280   0.269   4.162   2.576  0.0481 -0.1390  0.2980
    1BTD    C1517281   0.228   4.036   2.529 -0.0672 -0.0706  0.2138
    1BTD    C1617282   0.310   3.920   2.547 -0.0654 -0.1144 -0.0718
    1BTD    C4317283   0.165   3.727   2.472 -0.1171 -0.3446 -1.0801
    1BTD    C4417284   0.154   3.616   2.379 -0.5088  0.6918  0.3958
    1BTD    C4517285   0.010   3.563   2.371  0.0867  0.4667 -0.1129
    1BTD    C4617286  -0.037   3.485   2.492 -0.6098  0.1925 -0.1808
    1BTD    C4717287   0.206   3.655   2.231  0.6729 -0.1980 -0.0067
    1BTD    C4817288   0.207   3.537   2.122 -0.0279 -1.1407 -0.5267
    1BTD    C4917289   0.301   3.422   2.144 -0.7071 -0.2471 -0.0551
    1BTD    C5017290   0.285   3.309   2.055  0.0345 -0.2336  0.6498
    1BTD    C7517291   0.062   3.985   2.337 -0.3270 -0.2006  0.4046
    1BTD    C7617292  -0.074   3.962   2.278 -0.3145  0.5847  0.1726
    1BTD    C7717293  -0.182   3.892   2.376 -0.3256 -0.3154  1.4196
    1BTD    C7817294  -0.330   3.884   2.328 -0.9537 -0.8581 -0.2862
    1BTD    C7917295  -0.067   3.909   2.129  0.2618 -0.1145  0.3681
    1BTD    C8017296   0.001   3.991   2.028 -1.1343 -0.1534  1.4906
    1BTD    C8117297  -0.081   4.113   1.987  0.0984  1.0025  0.2705
    1BTD    C8217298  -0.027   4.180   1.861 -0.1419 -0.5925 -0.4454
    2TTP     S117299   0.635   3.715   2.681  0.1060 -0.2839 -0.0703
    2TTP     S517300   0.353   3.424   2.538 -0.0202 -0.0066 -0.3878
    2TTP     C117301   0.488   3.337   2.622 -0.1509 -0.1458 -0.3203
    2TTP     C217302   0.584   3.421   2.671 -0.1197 -0.2397 -0.2182
    2TTP     C317303   0.553   3.558   2.644  0.0087 -0.2050 -0.1897
    2TTP     C417304   0.499   3.802   2.597  0.2367 -0.1446 -0.1379
    2TTP    C1717305   0.404   3.718   2.548  0.2055 -0.0507 -0.2398
    2TTP    C1817306   0.435   3.581   2.575  0.0771 -0.0855 -0.2685
    2TTP    C3217307   0.717   3.385   2.743 -0.7250  0.0204 -0.0887
    2TTP    C3317308   0.847   3.435   2.673 -0.0805  0.2042 -0.7995
    2TTP    C3417309   0.861   3.395   2.523 -0.0672 -0.9322 -0.2306
    2TTP    C3517310   0.995   3.448   2.467 -0.2278 -0.3970  0.4335
    2TTP    C3617311   1.051   3.387   2.338  0.2957 -0.3157 -0.1477
    2TTP    C3717312   0.953   3.391   2.222  0.2609  0.2409  0.7211
    2TTP    C3817313   0.995   3.303   2.104  0.3793 -0.4089 -0.2910
    2TTP    C3917314   0.891   3.280   1.993 -0.1043 -0.2902  0.0820
    2TTP    C4017315   0.942   3.181   1.886  0.3324 -0.6184  0.5152
    2TTP    C4117316   0.835   3.147   1.786 -0.0004  0.4277 -0.0005
    2TTP    C4217317   0.894   3.035   1.696 -0.1859 -0.6140 -0.2991
    3TTP     S117318   0.124   4.427   2.582  0.1568  0.1903 -0.1052
    3TTP     S517319  -0.223   4.245   2.405  0.0601 -0.0368  0.3160
    3TTP     C117320  -0.263   4.417   2.446  0.0515 -0.0129  0.2072
    3TTP     C217321  -0.158   4.484   2.503  0.0806  0.0587  0.0708
    3TTP     C317322  -0.042   4.401   2.516  0.1111  0.0973  0.0471
    3TTP     C417323   0.164   4.254   2.541  0.1656  0.1664  0.0036
    3TTP    C1717324   0.059   4.188   2.484  0.1362  0.0949  0.1400
    3TTP    C1817325  -0.056   4.271   2.470  0.1056  0.0563  0.1637
    3TTP    C3217326  -0.160   4.617   2.569  0.0199  0.2925  0.2876
    3TTP    C3317327  -0.073   4.725   2.515  0.3015 -0.6483  0.4825
    3TTP    C3417328  -0.072   4.844   2.610 -0.2396 -0.3974 -0.1140
    3TTP    C3517329   0.044   4.936   2.587  0.0530 -0.0898 -0.1852
    3TTP    C3617330   0.046   5.056   2.680 -0.3534  0.2238 -0.3446
    3TTP    C3717331   0.131   5.176   2.639 -0.0728  0.4035  0.1097
    3TTP    C3817332   0.115   5.241   2.496 -0.0889  0.4732 -1.1600
    3TTP    C3917333   0.178   5.372   2.475  0.5480 -0.1083 -0.3917
    3TTP    C4017334   0.325   5.363   2.434  0.8964  0.1337 -0.0254
    3TTP    C4117335   0.381   5.498   2.373  0.3770  0.0204 -0.4512
    3TTP    C4217336   0.529   5.477   2.344 -0.0769  0.7240 -0.0668
    4BIM     F117337   0.174   2.689   2.223 -0.0871  0.0072 -0.2900
    4BIM     F217338   0.253   2.531   2.431 -0.0506 -0.0426 -0.3415
    4BIM     O117339   0.360   3.171   2.384 -0.1955 -0.0029 -0.1339
    4BIM     N517340   0.498   2.649   2.844 -0.0754 -0.1215 -0.3043
    4BIM     N617341   0.628   3.058   2.928 -0.1675 -0.1193 -0.1719
    4BIM    C1917342   0.501   3.192   2.640 -0.1992 -0.0541 -0.1276
    4BIM    C2017343   0.451   3.077   2.591 -0.1733 -0.0496 -0.1649
    4BIM    C2117344   0.380   3.074   2.459 -0.1733 -0.0226 -0.1655
    4BIM    C2217345   0.339   2.934   2.437 -0.1417 -0.0247 -0.2108
    4BIM    C2317346   0.270   2.882   2.327 -0.1305 -0.0048 -0.2273
    4BIM    C2417347   0.242   2.747   2.328 -0.0997 -0.0114 -0.2714
    4BIM    C2517348   0.283   2.666   2.435 -0.0810 -0.0371 -0.2979
    4BIM    C2617349   0.352   2.717   2.545 -0.0920 -0.0570 -0.2817
    4BIM    C2717350   0.381   2.854   2.546 -0.1231 -0.0508 -0.2370
    4BIM    C2817351   0.452   2.939   2.645 -0.1418 -0.0671 -0.2099
    4BIM    C2917352   0.506   2.896   2.764 -0.1317 -0.0933 -0.2238
    4BIM    C3017353   0.502   2.761   2.808 -0.1008 -0.1087 -0.2680
    4BIM    C3117354   0.573   2.985   2.854 -0.1514 -0.1074 -0.1952
    5BIM     F117355  -1.024   4.185   2.232 -0.2780 -0.1655  0.3010
    5BIM     F217356  -1.107   4.440   2.282 -0.0997  0.0310 -0.3877
    5BIM     O117357  -0.497   4.226   2.350 -0.3283 -0.3241  0.5815
    5BIM     N517358  -0.852   4.834   2.437  0.1218  0.2005 -1.1778
    5BIM     N617359  -0.423   4.815   2.519  0.0465  0.0371 -0.8199
    5BIM    C1917360  -0.390   4.483   2.439 -0.1754 -0.1926  0.0232
    5BIM    C2017361  -0.519   4.463   2.408 -0.1695 -0.1605 -0.0205
    5BIM    C2117362  -0.566   4.328   2.363 -0.2511 -0.2326  0.2792
    5BIM    C2217363  -0.711   4.341   2.337 -0.2215 -0.1731  0.1425
    5BIM    C2317364  -0.799   4.242   2.293 -0.2739 -0.2074  0.3234
    5BIM    C2417365  -0.932   4.278   2.275 -0.2309 -0.1370  0.1383
    5BIM    C2517366  -0.974   4.409   2.301 -0.1386 -0.0357 -0.2165
    5BIM    C2617367  -0.887   4.508   2.344 -0.0865 -0.0011 -0.3986
    5BIM    C2717368  -0.753   4.474   2.363 -0.1290 -0.0712 -0.2156
    5BIM    C2817369  -0.636   4.554   2.407 -0.0930 -0.0595 -0.3299
    5BIM    C2917370  -0.637   4.687   2.442 -0.0057  0.0284 -0.6595
    5BIM    C3017371  -0.755   4.768   2.439  0.0641  0.1228 -0.9433
    5BIM    C3117372  -0.519   4.757   2.484  0.0224  0.0327 -0.7458
    1BTD     S217373   6.578   4.312   5.695  0.0229  0.1902  0.1301
    1BTD     N117374   6.711   4.429   5.724 -0.1409  0.2561  0.6406
    1BTD     N217375   6.673   4.169   5.750  0.2092  0.0842 -0.4543
    1BTD     N317376   7.106   4.091   5.913  0.2935 -0.0124 -0.7230
    1BTD     N417377   7.153   4.412   5.881 -0.1379  0.1993  0.6261
    1BTD     C517378   6.941   4.416   5.806 -0.1342  0.2239  0.6169
    1BTD     C617379   6.814   4.360   5.770 -0.0527  0.1986  0.3635
    1BTD     C717380   6.792   4.214   5.785  0.1433  0.1026 -0.2494
    1BTD     C817381   6.899   4.132   5.835  0.2480  0.0364 -0.5784
    1BTD    C1517382   7.022   4.192   5.869  0.1624  0.0641 -0.3124
    1BTD    C1617383   7.043   4.332   5.855 -0.0263  0.1568  0.2782
    1BTD    C4317384   7.245   4.393   5.991 -0.2587  1.0304 -0.5282
    1BTD    C4417385   7.395   4.432   5.991  0.8153 -0.6995  0.5081
    1BTD    C4517386   7.472   4.447   6.123 -0.2511 -0.0705  0.4308
    1BTD    C4617387   7.404   4.531   6.229 -0.1806 -0.4117 -0.1789
    1BTD    C4717388   7.466   4.369   5.877 -0.1053 -0.0884  0.0375
    1BTD    C4817389   7.594   4.430   5.845 -0.5571  0.1052 -0.3707
    1BTD    C4917390   7.685   4.345   5.747  0.6085 -0.2302 -0.9114
    1BTD    C5017391   7.685   4.391   5.604 -0.4220 -0.0979  0.8523
    1BTD    C7517392   7.251   4.093   5.888  0.2329 -0.5005 -0.3670
    1BTD    C7617393   7.364   4.012   5.959  0.0941  0.0454 -0.3300
    1BTD    C7717394   7.401   4.044   6.105 -0.3990  0.0300  0.1514
    1BTD    C7817395   7.298   4.056   6.221  0.5503 -0.2473 -0.7546
    1BTD    C7917396   7.479   3.977   5.854 -0.0760 -0.4247  0.0514
    1BTD    C8017397   7.591   3.890   5.895 -0.2266  0.3741 -0.1404
    1BTD    C8117398   7.561   3.754   5.955 -0.0290  0.0225  0.0302
    1BTD    C8217399   7.679   3.698   6.034 -0.4099  0.3594  0.0077
    2TTP     S117400   6.941   4.708   5.734  0.0219  0.0647  0.1652
    2TTP     S517401   7.350   4.744   5.861  0.0204  0.2329  0.1220
    2TTP     C117402   7.294   4.905   5.797 -0.0910  0.2429  0.2423
    2TTP     C217403   7.165   4.903   5.754 -0.0973  0.1915  0.2629
    2TTP     C317404   7.105   4.775   5.770 -0.0139  0.1426  0.1842
    2TTP     C417405   6.996   4.546   5.798  0.1333  0.0548  0.0448
    2TTP    C1717406   7.126   4.548   5.841  0.1397  0.1062  0.0244
    2TTP    C1817407   7.186   4.677   5.825  0.0565  0.1552  0.1031
    2TTP    C3217408   7.082   5.018   5.694 -0.9397  0.7418  0.3736
    2TTP    C3317409   6.955   5.065   5.763 -0.5166  0.3035 -0.9106
    2TTP    C3417410   6.865   5.143   5.671  0.0096  0.1748 -0.4604
    2TTP    C3517411   6.904   5.281   5.629 -0.5820  0.0347 -0.6731
    2TTP    C3617412   6.829   5.354   5.513  0.1368  0.6377 -0.5165
    2TTP    C3717413   6.697   5.434   5.537 -1.0335  0.7103 -0.6036
    2TTP    C3817414   6.632   5.459   5.406  1.1881 -1.4631 -0.3188
    2TTP    C3917415   6.512   5.557   5.426  0.0572 -0.3494  0.2599
    2TTP    C4017416   6.383   5.507   5.485  0.0698  0.0166 -0.6391
    2TTP    C4117417   6.305   5.417   5.398  0.2837  0.1072  0.1984
    2TTP    C4217418   6.181   5.356   5.470 -0.1969 -0.2703 -0.1314
    3TTP     S117419   6.805   3.836   5.859 -0.2437  0.0120  0.1589
    3TTP     S517420   7.189   3.742   6.029 -0.1045  0.1598 -0.0714
    3TTP     C117421   7.091   3.589   6.019 -0.0980  0.1437  0.1026
    3TTP     C217422   6.966   3.609   5.966 -0.1404  0.0971  0.1841
    3TTP     C317423   6.944   3.746   5.931 -0.1800  0.0725  0.1118
    3TTP     C417424   6.903   3.989   5.869 -0.2503  0.0283 -0.0150
    3TTP    C1717425   7.027   3.969   5.922 -0.2080  0.0747 -0.0966
    3TTP    C1817426   7.050   3.832   5.957 -0.1686  0.0994 -0.0244
    3TTP    C3217427   6.855   3.507   5.953  0.0559 -0.1999  0.3910
    3TTP    C3317428   6.721   3.541   6.030  0.0506 -0.6111  0.1331
    3TTP    C3417429   6.619   3.431   5.984  0.6397  0.2958  0.2448
    3TTP    C3517430   6.483   3.446   6.051  0.5204  0.2225 -0.7447
    3TTP    C3617431   6.379   3.333   6.051 -0.6399 -0.6009 -0.0884
    3TTP    C3717432   6.262   3.375   6.145  0.5976  0.1042  0.0596
    3TTP    C3817433   6.147   3.267   6.146 -0.8610 -0.2784  0.4282
    3TTP    C3917434   6.033   3.277   6.242  0.7151 -0.5055 -0.1565
    3TTP    C4017435   5.933   3.396   6.228  0.1040 -0.3662 -0.4351
    3TTP    C4117436   5.876   3.429   6.093 -1.2114  0.3881  0.0122
    3TTP    C4217437   5.813   3.562   6.076 -0.1885 -0.0240  0.0426
    4BIM     F117438   8.096   5.016   5.682 -0.1762  0.0771 -0.1243
    4BIM     F217439   8.059   5.282   5.728 -0.0603 -0.0281  0.6012
    4BIM     O117440   7.587   4.835   5.720 -0.2619  0.1984 -0.6716
    4BIM     N517441   7.645   5.535   5.821  0.0451 -0.0926  1.2540
    4BIM     N617442   7.254   5.340   5.842 -0.0455  0.0232  0.6801
    4BIM    C1917443   7.371   5.025   5.778 -0.1816  0.1411 -0.1730
    4BIM    C2017444   7.501   5.060   5.766 -0.1647  0.1147 -0.0637
    4BIM    C2117445   7.606   4.956   5.736 -0.2084  0.1470 -0.3363
    4BIM    C2217446   7.735   5.028   5.731 -0.1754  0.1057 -0.1271
    4BIM    C2317447   7.861   4.974   5.706 -0.1972  0.1159 -0.2615
    4BIM    C2417448   7.968   5.062   5.705 -0.1575  0.0700 -0.0102
    4BIM    C2517449   7.949   5.199   5.729 -0.0979  0.0160  0.3635
    4BIM    C2617450   7.824   5.253   5.754 -0.0758  0.0055  0.4995
    4BIM    C2717451   7.714   5.166   5.755 -0.1154  0.0515  0.2494
    4BIM    C2817452   7.569   5.191   5.777 -0.1062  0.0548  0.3030
    4BIM    C2917453   7.510   5.312   5.804 -0.0541  0.0106  0.6301
    4BIM    C3017454   7.584   5.434   5.813  0.0004 -0.0461  0.9720
    4BIM    C3117455   7.370   5.327   5.825 -0.0496  0.0179  0.6559
    5BIM     F117456   7.724   3.311   6.465 -0.1305  0.0550  0.3488
    5BIM     F217457   7.652   3.058   6.395  0.1937  0.0941 -0.1395
    5BIM     O117458   7.340   3.600   6.215 -0.1510  0.0785  0.4077
    5BIM     N517459   7.274   2.900   6.117  0.6454  0.1670 -0.7998
    5BIM     N617460   6.988   3.176   5.936  0.5641  0.1774 -0.6554
    5BIM    C1917461   7.134   3.460   6.060  0.1515  0.1241 -0.0382
    5BIM    C2017462   7.234   3.398   6.126  0.1439  0.1167 -0.0340
    5BIM    C2117463   7.336   3.476   6.203 -0.0161  0.0930  0.2025
    5BIM    C2217464   7.429   3.378   6.262  0.0192  0.0905  0.1420
    5BIM    C2317465   7.540   3.403   6.342 -0.0907  0.0715  0.3015
    5BIM    C2417466   7.613   3.293   6.385 -0.0286  0.0732  0.2015
    5BIM    C2517467   7.576   3.163   6.349  0.1385  0.0934 -0.0500
    5BIM    C2617468   7.465   3.137   6.269  0.2489  0.1124 -0.2102
    5BIM    C2717469   7.390   3.247   6.224  0.1882  0.1110 -0.1125
    5BIM    C2817470   7.268   3.254   6.139  0.2717  0.1279 -0.2306
    5BIM    C2917471   7.201   3.148   6.084  0.4356  0.1497 -0.4754
    5BIM    C3017472   7.241   3.012   6.102  0.5504  0.1592 -0.6529
    5BIM    C3117473   7.084   3.164   6.003  0.5053  0.1649 -0.5730
    1BTD     S217474   8.237   9.066   5.692 -0.1094  0.1633 -0.1307
    1BTD     N117475   8.242   8.893   5.741 -0.1047  0.1764 -0.0849
    1BTD     N217476   8.402   9.103   5.750 -0.0880  0.1678 -0.1955
    1BTD     N317477   8.750   8.868   5.959 -0.0350  0.2019 -0.2453
    1BTD     N417478   8.553   8.609   5.948 -0.0558  0.2120 -0.1091
    1BTD     C517479   8.407   8.748   5.850 -0.0789  0.1948 -0.0992
    1BTD     C617480   8.361   8.873   5.796 -0.0880  0.1838 -0.1186
    1BTD     C717481   8.451   8.991   5.801 -0.0787  0.1791 -0.1805
    1BTD     C817482   8.582   8.977   5.859 -0.0606  0.1860 -0.2199
    1BTD    C1517483   8.622   8.852   5.910 -0.0523  0.1974 -0.1989
    1BTD    C1617484   8.536   8.739   5.905 -0.0612  0.2015 -0.1393
    1BTD    C4317485   8.622   8.576   6.072 -0.3890  0.0993 -0.0803
    1BTD    C4417486   8.663   8.444   6.126  0.0880  0.3525 -0.2700
    1BTD    C4517487   8.726   8.442   6.262 -0.3709  0.7418  0.2428
    1BTD    C4617488   8.633   8.480   6.371  0.0107  0.0274  0.0896
    1BTD    C4717489   8.763   8.385   6.017  0.0952 -0.0415 -0.8505
    1BTD    C4817490   8.819   8.238   6.049 -0.1658  0.2428  0.1470
    1BTD    C4917491   8.888   8.165   5.927  0.0974 -0.7501  0.4346
    1BTD    C5017492   8.997   8.246   5.865  0.0868  0.0497 -0.0240
    1BTD    C7517493   8.855   8.762   5.955 -0.5214 -0.0686  0.1006
    1BTD    C7617494   8.978   8.759   6.051  0.1583  0.3267 -1.0827
    1BTD    C7717495   8.940   8.756   6.199  0.3651  0.1552 -0.4272
    1BTD    C7817496   9.036   8.800   6.313 -0.5405 -0.0443  0.0328
    1BTD    C7917497   9.090   8.654   6.021  0.4239 -0.2730  0.2722
    1BTD    C8017498   9.146   8.669   5.883  0.0017 -0.4787 -0.1109
    1BTD    C8117499   9.222   8.552   5.831 -0.9716 -0.0188 -0.0426
    1BTD    C8217500   9.237   8.557   5.678 -0.1528  0.1526  0.2281
    2TTP     S117501   8.195   8.534   5.801  0.1611 -0.2393  0.1132
    2TTP     S517502   8.467   8.241   5.959  0.5786  0.2134  0.2385
    2TTP     C117503   8.318   8.155   5.898  0.6242 -0.0072  0.4355
    2TTP     C217504   8.225   8.241   5.846  0.4978 -0.1600  0.4083
    2TTP     C317505   8.268   8.377   5.852  0.3607 -0.1085  0.2311
    2TTP     C417506   8.343   8.620   5.862  0.1152 -0.0188 -0.0837
    2TTP    C1717507   8.436   8.534   5.914  0.2418  0.1340 -0.0565
    2TTP    C1817508   8.393   8.398   5.908  0.3791  0.0825  0.1208
    2TTP    C3217509   8.084   8.212   5.788  0.5318  1.1588 -0.0849
    2TTP    C3317510   8.052   8.236   5.640 -0.7957 -0.4385  0.2482
    2TTP    C3417511   8.147   8.165   5.539 -0.0988 -0.7447 -0.1923
    2TTP    C3517512   8.145   8.016   5.548  0.2556  0.2335 -0.0405
    2TTP    C3617513   8.023   7.940   5.494 -0.3901  0.6623  0.2649
    2TTP    C3717514   8.048   7.788   5.507  0.0325  0.4276  0.9761
    2TTP    C3817515   7.937   7.691   5.464  0.5635  0.1654  0.1677
    2TTP    C3917516   7.800   7.697   5.546 -0.4059  0.3090 -0.6941
    2TTP    C4017517   7.825   7.657   5.692  0.2545  0.5737 -0.1016
    2TTP    C4117518   7.701   7.641   5.776 -0.3699  0.3478  0.0002
    2TTP    C4217519   7.743   7.570   5.909 -0.8065  0.0647  0.5230
    3TTP     S117520   8.729   9.244   5.855 -0.0194  0.0750  0.5532
    3TTP     S517521   9.072   9.055   6.033  0.3524 -0.0622 -0.2939
    3TTP     C117522   9.108   9.232   6.013  0.1996  0.0077  0.0301
    3TTP     C217523   9.004   9.301   5.957  0.0756  0.0536  0.3108
    3TTP     C317524   8.893   9.216   5.927  0.0973  0.0362  0.2800
    3TTP     C417525   8.694   9.066   5.875  0.1338  0.0050  0.2292
    3TTP    C1717526   8.798   8.998   5.931  0.2575 -0.0408 -0.0515
    3TTP    C1817527   8.909   9.082   5.960  0.2358 -0.0231 -0.0207
    3TTP    C3217528   8.997   9.456   5.927 -0.4267 -0.2371 -0.5053
    3TTP    C3317529   8.955   9.511   5.792  0.6294 -0.0705  0.5286
    3TTP    C3417530   8.920   9.660   5.776 -0.2359 -0.1444  0.0356
    3TTP    C3517531   9.027   9.757   5.807  0.2293 -0.4962  0.2377
    3TTP    C3617532   8.964   9.894   5.828  0.4307 -0.6696  0.3045
    3TTP    C3717533   9.066  10.008   5.858 -0.4153 -0.3868 -0.5039
    3TTP    C3817534   9.009  10.142   5.908 -0.2834  0.6753  0.0982
    3TTP    C3917535   8.901  10.148   6.018  0.1965 -0.2575  0.0945
    3TTP    C4017536   8.941  10.078   6.148 -0.1760  0.1968 -0.6105
    3TTP    C4117537   9.035  10.155   6.247  0.4564  0.6323  0.1285
    3TTP    C4217538   9.135  10.074   6.328  0.8449  0.1878  0.2204
    4BIM     F117539   8.705   7.512   6.232  0.0715 -0.0783 -0.1960
    4BIM     F217540   8.462   7.392   6.260  0.0925 -0.0973 -0.0895
    4BIM     O117541   8.564   7.972   5.984 -0.0911 -0.0184  0.0069
    4BIM     N517542   8.013   7.548   6.124  0.0069 -0.0819  0.2079
    4BIM     N617543   7.952   7.932   5.925 -0.1242 -0.0314  0.3450
    4BIM    C1917544   8.282   8.021   5.923 -0.1286 -0.0154  0.1805
    4BIM    C2017545   8.327   7.910   5.984 -0.0885 -0.0297  0.1253
    4BIM    C2117546   8.474   7.892   6.012 -0.0715 -0.0303  0.0371
    4BIM    C2217547   8.488   7.761   6.079 -0.0274 -0.0476 -0.0055
    4BIM    C2317548   8.605   7.701   6.124  0.0014 -0.0541 -0.0886
    4BIM    C2417549   8.593   7.577   6.185  0.0413 -0.0709 -0.1149
    4BIM    C2517550   8.468   7.515   6.199  0.0524 -0.0807 -0.0599
    4BIM    C2617551   8.351   7.575   6.154  0.0238 -0.0744  0.0226
    4BIM    C2717552   8.360   7.701   6.093 -0.0172 -0.0573  0.0507
    4BIM    C2817553   8.257   7.789   6.035 -0.0541 -0.0465  0.1335
    4BIM    C2917554   8.121   7.765   6.030 -0.0563 -0.0517  0.2040
    4BIM    C3017555   8.062   7.646   6.082 -0.0215 -0.0683  0.2060
    4BIM    C3117556   8.029   7.857   5.972 -0.0937 -0.0405  0.2811
    5BIM     F117557   9.821   9.003   6.354  0.0458  0.0162  0.1034
    5BIM     F217558   9.931   9.233   6.260  0.1464 -0.1137 -0.0968
    5BIM     O117559   9.310   9.058   6.184  0.1132  0.0064 -0.1023
    5BIM     N517560   9.726   9.603   6.003  0.3383 -0.3073 -0.5310
    5BIM     N617561   9.304   9.600   5.890  0.3707 -0.2890 -0.6512
    5BIM    C1917562   9.234   9.297   6.034  0.2326 -0.1214 -0.3666
    5BIM    C2017563   9.358   9.274   6.080  0.2122 -0.1137 -0.3068
    5BIM    C2117564   9.389   9.149   6.157  0.1500 -0.0465 -0.1708
    5BIM    C2217565   9.532   9.156   6.192  0.1419 -0.0560 -0.1361
    5BIM    C2317566   9.607   9.063   6.263  0.0916 -0.0076 -0.0197
    5BIM    C2417567   9.741   9.091   6.285  0.0942 -0.0285 -0.0092
    5BIM    C2517568   9.798   9.210   6.236  0.1460 -0.0957 -0.1123
    5BIM    C2617569   9.724   9.304   6.165  0.1962 -0.1440 -0.2288
    5BIM    C2717570   9.588   9.276   6.142  0.1943 -0.1237 -0.2412
    5BIM    C2817571   9.483   9.354   6.072  0.2396 -0.1621 -0.3504
    5BIM    C2917572   9.499   9.476   6.010  0.2961 -0.2294 -0.4690
    5BIM    C3017573   9.624   9.545   6.007  0.3195 -0.2720 -0.5027
    5BIM    C3117574   9.392   9.543   5.944  0.3369 -0.2615 -0.5686
    1BTD     S217575   8.843   0.554   0.641  0.1259 -0.2341 -0.1938
    1BTD     N117576   8.942   0.704   0.654 -0.0622 -0.1451  0.2416
    1BTD     N217577   8.963   0.450   0.728  0.2122 -0.3142 -0.4076
    1BTD     N317578   9.384   0.511   0.927  0.0477 -0.3166 -0.0569
    1BTD     N417579   9.358   0.823   0.836 -0.2906 -0.1083  0.7431
    1BTD     C517580   9.159   0.762   0.751 -0.1774 -0.1284  0.4938
    1BTD     C617581   9.053   0.671   0.719 -0.0517 -0.1780  0.2070
    1BTD     C717582   9.064   0.529   0.760  0.1020 -0.2726 -0.1564
    1BTD     C817583   9.182   0.486   0.830  0.1223 -0.3130 -0.2149
    1BTD    C1517584   9.284   0.579   0.859 -0.0040 -0.2619  0.0739
    1BTD    C1617585   9.273   0.715   0.820 -0.1523 -0.1707  0.4240
    1BTD    C4317586   9.477   0.846   0.915 -0.1271  0.0793  0.2956
    1BTD    C4417587   9.477   0.864   1.067 -0.2635 -0.3422 -0.4259
    1BTD    C4517588   9.366   0.968   1.124 -0.6983 -0.0140  0.0841
    1BTD    C4617589   9.347   0.965   1.282  0.2590  0.6496  0.1746
    1BTD    C4717590   9.614   0.856   1.135  0.0747 -0.2573  0.2713
    1BTD    C4817591   9.703   0.981   1.130 -0.2121  0.1536 -1.1670
    1BTD    C4917592   9.826   0.953   1.214  0.1817 -0.0654 -0.5773
    1BTD    C5017593   9.904   1.082   1.247 -0.2427 -0.6777 -0.0090
    1BTD    C7517594   9.527   0.530   0.925 -0.1010 -0.6994 -0.3688
    1BTD    C7617595   9.616   0.460   0.830 -0.5191  0.0792  0.5732
    1BTD    C7717596   9.596   0.516   0.686 -0.0823  0.0885  0.2721
    1BTD    C7817597   9.643   0.659   0.647  0.0493  0.2564 -0.2908
    1BTD    C7917598   9.762   0.463   0.877  0.6340 -0.1961 -0.1409
    1BTD    C8017599   9.864   0.368   0.814 -0.2162 -0.4738  0.1974
    1BTD    C8117600   9.837   0.218   0.804 -0.0166 -0.3483  0.4067
    1BTD    C8217601   9.858   0.138   0.925 -0.0514 -0.1111 -0.2169
    2TTP     S117602   9.117   1.006   0.588 -0.0811  0.0425  0.1713
    2TTP     S517603   9.516   1.134   0.683 -0.1786  0.3020  0.2341
    2TTP     C117604   9.450   1.242   0.552 -0.2156  0.2375  0.1994
    2TTP     C217605   9.323   1.209   0.515 -0.1881  0.1536  0.1779
    2TTP     C317606   9.273   1.097   0.589 -0.1361  0.1372  0.1882
    2TTP     C417607   9.183   0.898   0.718 -0.0441  0.1070  0.2061
    2TTP    C1717608   9.310   0.931   0.755 -0.0716  0.1909  0.2275
    2TTP    C1817609   9.360   1.043   0.682 -0.1235  0.2073  0.2173
    2TTP    C3217610   9.223   1.276   0.417 -0.5919 -0.4670 -0.7240
    2TTP    C3317611   9.210   1.187   0.297  0.0644 -0.0686  0.8143
    2TTP    C3417612   9.127   1.253   0.190  0.0177  0.4828 -0.4501
    2TTP    C3517613   8.978   1.285   0.221  0.0279  0.0018  0.0855
    2TTP    C3617614   8.898   1.161   0.237  0.6684  0.2131  0.5223
    2TTP    C3717615   8.747   1.190   0.249 -0.4704 -0.8038 -0.0984
    2TTP    C3817616   8.661   1.080   0.304  0.0999 -0.3632 -0.1516
    2TTP    C3917617   8.685   1.020   0.438  0.1323  0.2518 -0.0161
    2TTP    C4017618   8.598   0.892   0.470 -0.2836 -0.5587  0.0329
    2TTP    C4117619   8.582   0.793   0.359 -0.1216 -0.2669  0.3507
    2TTP    C4217620   8.715   0.714   0.307  0.8909 -0.8654 -0.8523
    3TTP     S117621   9.165   0.190   0.885  0.1172 -0.0706  0.2015
    3TTP     S517622   9.529   0.215   1.112  0.3171  0.0051 -0.1270
    3TTP     C117623   9.470   0.043   1.116  0.5447 -0.0820 -0.3663
    3TTP     C217624   9.354   0.025   1.047  0.4969 -0.1105 -0.2789
    3TTP     C317625   9.308   0.147   0.987  0.2780 -0.0646 -0.0199
    3TTP     C417626   9.224   0.362   0.881 -0.1104  0.0164  0.4407
    3TTP    C1717627   9.340   0.380   0.950 -0.0628  0.0449  0.3534
    3TTP    C1817628   9.386   0.258   1.010  0.1562 -0.0010  0.0944
    3TTP    C3217629   9.271  -0.107   1.033  0.0758 -1.1732  0.3974
    3TTP    C3317630   9.173  -0.132   1.144  0.5777  0.6835 -0.2928
    3TTP    C3417631   9.048  -0.205   1.093  0.0333 -0.1423 -0.3239
    3TTP    C3517632   8.957  -0.109   1.015  0.6713  0.6643 -0.2807
    3TTP    C3617633   8.826  -0.165   0.972 -0.3012  0.9705  0.5177
    3TTP    C3717634   8.825  -0.294   0.896  0.2235  0.1297  0.8328
    3TTP    C3817635   8.682  -0.346   0.877 -0.3345  0.4822 -0.5151
    3TTP    C3917636   8.659  -0.477   0.802 -0.0676  0.4366 -0.1579
    3TTP    C4017637   8.660  -0.458   0.647 -0.1806  0.4477  0.0760
    3TTP    C4117638   8.648  -0.589   0.571 -0.6737  0.2240 -0.2037
    3TTP    C4217639   8.689  -0.583   0.430  0.3026 -0.1621  0.0088
    4BIM     F117640  10.156   1.654   0.656  0.1343 -0.2038 -0.1683
    4BIM     F217641  10.103   1.792   0.428 -0.0469  0.1161  0.0647
    4BIM     O117642   9.719   1.336   0.688  0.0422 -0.0748 -0.1378
    4BIM     N517643   9.715   1.763   0.121 -0.3730  0.6680  0.4213
    4BIM     N617644   9.385   1.486   0.192 -0.4084  0.7044  0.3982
    4BIM    C1917645   9.513   1.354   0.481 -0.1636  0.2767  0.0956
    4BIM    C2017646   9.625   1.429   0.482 -0.1334  0.2317  0.0788
    4BIM    C2117647   9.726   1.414   0.592 -0.0262  0.0483 -0.0439
    4BIM    C2217648   9.835   1.509   0.562 -0.0191  0.0445 -0.0302
    4BIM    C2317649   9.951   1.531   0.636  0.0654 -0.0973 -0.1193
    4BIM    C2417650  10.039   1.627   0.588  0.0538 -0.0693 -0.0848
    4BIM    C2517651  10.011   1.698   0.471 -0.0396  0.0956  0.0353
    4BIM    C2617652   9.896   1.676   0.396 -0.1242  0.2376  0.1246
    4BIM    C2717653   9.805   1.580   0.443 -0.1140  0.2118  0.0914
    4BIM    C2817654   9.675   1.533   0.389 -0.1879  0.3335  0.1632
    4BIM    C2917655   9.614   1.578   0.274 -0.2878  0.5072  0.2846
    4BIM    C3017656   9.670   1.680   0.191 -0.3343  0.5950  0.3594
    4BIM    C3117657   9.488   1.527   0.230 -0.3536  0.6147  0.3464
    5BIM     F117658  10.147  -0.097   1.570  0.3176 -0.2656 -0.7435
    5BIM     F217659  10.071  -0.358   1.590 -0.6239  0.0923  0.6010
    5BIM     O117660   9.746   0.103   1.267  0.7257 -0.2482 -1.2748
    5BIM     N517661   9.676  -0.589   1.403 -1.6863  0.6196  2.1553
    5BIM     N617662   9.378  -0.380   1.162 -1.1775  0.5608  1.4691
    5BIM    C1917663   9.531  -0.074   1.178 -0.0289  0.1001 -0.1790
    5BIM    C2017664   9.635  -0.115   1.254 -0.0947  0.0815 -0.0979
    5BIM    C2117665   9.741  -0.017   1.295  0.3107 -0.1020 -0.6858
    5BIM    C2217666   9.839  -0.094   1.376  0.1178 -0.0732 -0.4231
    5BIM    C2317667   9.955  -0.046   1.436  0.3595 -0.2038 -0.7798
    5BIM    C2417668  10.031  -0.137   1.507  0.1008 -0.1441 -0.4222
    5BIM    C2517669   9.992  -0.272   1.518 -0.3840  0.0405  0.2705
    5BIM    C2617670   9.876  -0.320   1.458 -0.6275  0.1712  0.6295
    5BIM    C2717671   9.797  -0.229   1.385 -0.3717  0.1137  0.2761
    5BIM    C2817672   9.670  -0.247   1.311 -0.5217  0.2160  0.5035
    5BIM    C2917673   9.600  -0.364   1.297 -0.9699  0.4003  1.1483
    5BIM    C3017674   9.642  -0.488   1.355 -1.3626  0.5202  1.6997
    5BIM    C3117675   9.478  -0.372   1.223 -1.0819  0.4878  1.3210
    1BTD     S217676   1.440   7.909   6.626  0.0456  0.0268 -0.0213
    1BTD     N117677   1.579   8.016   6.665  0.0577  0.0012  0.0051
    1BTD     N217678   1.337   8.043   6.562  0.0374  0.0641  0.0693
    1BTD     N317679   1.380   8.507   6.504  0.0423  0.0930  0.3021
    1BTD     N417680   1.678   8.473   6.631  0.0674  0.0153  0.2232
    1BTD     C517681   1.627   8.255   6.646  0.0624  0.0095  0.1199
    1BTD     C617682   1.544   8.139   6.631  0.0551  0.0205  0.0765
    1BTD     C717683   1.409   8.154   6.573  0.0437  0.0556  0.1124
    1BTD     C817684   1.363   8.285   6.534  0.0403  0.0780  0.1899
    1BTD    C1517685   1.448   8.395   6.550  0.0477  0.0665  0.2301
    1BTD    C1617686   1.579   8.381   6.606  0.0587  0.0324  0.1954
    1BTD    C4317687   1.708   8.601   6.554  0.0535  0.0477 -0.7340
    1BTD    C4417688   1.795   8.617   6.427  0.3316 -0.2869  0.1617
    1BTD    C4517689   1.761   8.503   6.329 -0.0952  0.0159 -0.0687
    1BTD    C4617690   1.830   8.476   6.195 -0.1482  0.2597  0.2632
    1BTD    C4717691   1.808   8.760   6.372  0.4527  0.2083  0.4862
    1BTD    C4817692   1.881   8.855   6.464 -0.3294 -0.1082  0.3992
    1BTD    C4917693   1.889   8.996   6.408 -0.4844 -0.1861 -0.1588
    1BTD    C5017694   1.923   9.094   6.525  0.3836  0.5651 -0.0208
    1BTD    C7517695   1.389   8.634   6.571  0.2124  0.3139 -0.1657
    1BTD    C7617696   1.340   8.770   6.520 -0.2059  0.3140  0.4447
    1BTD    C7717697   1.427   8.816   6.406  0.0784  0.0366  0.3540
    1BTD    C7817698   1.371   8.940   6.332 -0.3020  0.1649 -0.0648
    1BTD    C7917699   1.326   8.870   6.640 -0.0319 -0.1029  0.4092
    1BTD    C8017700   1.233   8.840   6.761  0.1594  0.0440 -0.3920
    1BTD    C8117701   1.097   8.784   6.747 -0.2379  0.1444  0.1937
    1BTD    C8217702   1.065   8.638   6.771 -0.4957 -0.0917  0.1647
    2TTP     S117703   1.900   8.180   6.753 -0.2123  0.2689  0.0920
    2TTP     S517704   2.020   8.592   6.724 -0.2670  0.2980  0.2884
    2TTP     C117705   2.162   8.494   6.781 -0.2585  0.2927  0.2573
    2TTP     C217706   2.134   8.361   6.793 -0.2410  0.2835  0.1947
    2TTP     C317707   1.998   8.332   6.758 -0.2339  0.2804  0.1692
    2TTP     C417708   1.757   8.278   6.696 -0.2207  0.2742  0.1229
    2TTP    C1717709   1.786   8.411   6.684 -0.2381  0.2839  0.1855
    2TTP    C1817710   1.922   8.441   6.719 -0.2454  0.2871  0.2111
    2TTP    C3217711   2.226   8.261   6.860  0.0782 -0.1315  0.1059
    2TTP    C3317712   2.275   8.137   6.781  0.4973  0.1626 -0.6921
    2TTP    C3417713   2.310   8.021   6.878 -0.1638 -0.2821  0.8732
    2TTP    C3517714   2.326   7.882   6.821 -0.1570 -0.1950  0.0777
    2TTP    C3617715   2.345   7.789   6.934  0.0688  0.1701  0.0851
    2TTP    C3717716   2.336   7.642   6.905 -0.0398  0.2304 -0.1830
    2TTP    C3817717   2.345   7.550   7.027  0.6763  0.1004  0.0585
    2TTP    C3917718   2.326   7.402   6.980  0.2750 -0.2400  0.7212
    2TTP    C4017719   2.312   7.293   7.087 -0.3819  0.4175 -0.0486
    2TTP    C4117720   2.212   7.310   7.199  0.6557  0.2825 -0.1564
    2TTP    C4217721   2.217   7.204   7.310 -0.1923  0.7808  0.6287
    3TTP     S117722   1.085   8.261   6.414  0.0256 -0.0947 -0.1229
    3TTP     S517723   1.078   8.686   6.349  0.0889 -0.0799 -0.0353
    3TTP     C117724   0.920   8.616   6.292  0.0401 -0.0317  0.0404
    3TTP     C217725   0.913   8.481   6.309  0.0177 -0.0331  0.0180
    3TTP     C317726   1.032   8.428   6.368  0.0382 -0.0732 -0.0601
    3TTP     C417727   1.243   8.331   6.471  0.0744 -0.1428 -0.1986
    3TTP    C1717728   1.250   8.467   6.454  0.0968 -0.1413 -0.1761
    3TTP    C1817729   1.131   8.520   6.396  0.0762 -0.1020 -0.0982
    3TTP    C3217730   0.798   8.390   6.259  0.2642 -0.1856  0.0633
    3TTP    C3317731   0.751   8.290   6.364  0.3046  0.7696  0.3740
    3TTP    C3417732   0.644   8.183   6.341  0.1563 -0.6901  0.1229
    3TTP    C3517733   0.520   8.246   6.269  0.3416  0.7120 -0.3785
    3TTP    C3617734   0.432   8.133   6.215  0.0793 -0.0271  0.0991
    3TTP    C3717735   0.315   8.171   6.128 -0.1464  0.3171  0.1211
    3TTP    C3817736   0.217   8.057   6.101 -0.2276 -0.1080 -0.2493
    3TTP    C3917737   0.085   8.113   6.047  0.3687  0.6857  0.5983
    3TTP    C4017738   0.004   8.216   6.128 -0.0437  0.0816 -0.4167
    3TTP    C4117739  -0.136   8.243   6.073  0.4097  0.8151 -0.6428
    3TTP    C4217740  -0.228   8.319   6.173 -0.1320 -0.7177  0.2164
    4BIM     F117741   2.451   9.233   7.005 -0.1151  0.1156 -0.5721
    4BIM     F217742   2.703   9.134   6.984 -0.0940 -0.1030  0.5779
    4BIM     O117743   2.158   8.796   6.877  0.0702  0.1488 -1.1162
    4BIM     N517744   2.858   8.680   6.862  0.0684 -0.3929  1.8438
    4BIM     N617745   2.579   8.358   6.767  0.2090 -0.3228  1.1867
    4BIM    C1917746   2.296   8.546   6.811  0.1562 -0.0479 -0.2106
    4BIM    C2017747   2.360   8.660   6.844  0.1087 -0.0479 -0.1187
    4BIM    C2117748   2.282   8.784   6.877  0.0665  0.0565 -0.6062
    4BIM    C2217749   2.381   8.889   6.908  0.0204  0.0279 -0.3585
    4BIM    C2317750   2.357   9.021   6.944 -0.0283  0.0975 -0.6435
    4BIM    C2417751   2.467   9.101   6.969 -0.0660  0.0513 -0.3175
    4BIM    C2517752   2.597   9.050   6.958 -0.0551 -0.0614  0.2749
    4BIM    C2617753   2.622   8.918   6.922 -0.0066 -0.1314  0.5622
    4BIM    C2717754   2.512   8.835   6.896  0.0322 -0.0861  0.2395
    4BIM    C2817755   2.504   8.693   6.857  0.0869 -0.1369  0.4102
    4BIM    C2917756   2.610   8.607   6.836  0.1124 -0.2458  0.9547
    4BIM    C3017757   2.746   8.648   6.850  0.0882 -0.3266  1.4416
    4BIM    C3117758   2.592   8.471   6.798  0.1653 -0.2878  1.0793
    5BIM     F117759   0.950   9.279   5.817 -0.2610 -0.1152 -0.0051
    5BIM     F217760   0.678   9.283   5.811 -0.2657 -0.1459  0.1873
    5BIM     O117761   1.040   8.840   6.121  0.0046 -0.1018 -0.0639
    5BIM     N517762   0.351   8.976   6.020 -0.0831 -0.1814  0.4219
    5BIM     N617763   0.476   8.632   6.258  0.1253 -0.1647  0.3371
    5BIM    C1917764   0.812   8.688   6.223  0.0944 -0.1267  0.0990
    5BIM    C2017765   0.800   8.798   6.147  0.0278 -0.1287  0.1062
    5BIM    C2117766   0.922   8.871   6.098 -0.0151 -0.1159  0.0193
    5BIM    C2217767   0.873   8.985   6.019 -0.0845 -0.1216  0.0523
    5BIM    C2317768   0.950   9.082   5.953 -0.1419 -0.1140 -0.0024
    5BIM    C2417769   0.881   9.181   5.884 -0.2022 -0.1223  0.0448
    5BIM    C2517770   0.741   9.182   5.881 -0.2045 -0.1385  0.1440
    5BIM    C2617771   0.664   9.087   5.946 -0.1474 -0.1462  0.1991
    5BIM    C2717772   0.732   8.986   6.017 -0.0859 -0.1380  0.1526
    5BIM    C2817773   0.681   8.871   6.096 -0.0170 -0.1433  0.1895
    5BIM    C2917774   0.549   8.838   6.117  0.0017 -0.1578  0.2831
    5BIM    C3017775   0.441   8.914   6.063 -0.0450 -0.1707  0.3591
    5BIM    C3117776   0.510   8.725   6.195  0.0696 -0.1614  0.3123
    1BTD     S217777   7.200   5.112   1.503 -0.0316  0.0598  0.0167
    1BTD     N117778   7.311   5.118   1.644  0.5283 -0.1224 -0.4124
    1BTD     N217779   7.169   4.935   1.516 -0.6553  0.1905  0.4217
    1BTD     N317780   7.308   4.585   1.796 -0.9146  0.1273  0.4725
    1BTD     N417781   7.484   4.810   1.954  0.5441 -0.2580 -0.5554
    1BTD     C517782   7.399   4.955   1.804  0.5190 -0.1886 -0.4747
    1BTD     C617783   7.320   4.994   1.691  0.2370 -0.0788 -0.2405
    1BTD     C717784   7.240   4.892   1.619 -0.4257  0.0963  0.2264
    1BTD     C817785   7.244   4.755   1.664 -0.7732  0.1527  0.4358
    1BTD    C1517786   7.323   4.721   1.775 -0.4777  0.0409  0.1937
    1BTD    C1617787   7.400   4.820   1.844  0.1608 -0.1278 -0.2562
    1BTD    C4317788   7.478   4.714   2.069  0.2073 -0.0524 -0.2453
    1BTD    C4417789   7.390   4.733   2.193 -0.3868  0.4114 -1.4511
    1BTD    C4517790   7.246   4.777   2.164 -0.4749  0.1935 -0.4043
    1BTD    C4617791   7.169   4.836   2.287  0.0676  0.3067  0.0973
    1BTD    C4717792   7.395   4.628   2.302  0.4769  0.8740 -0.0199
    1BTD    C4817793   7.532   4.602   2.354 -0.5335 -0.2676 -0.4100
    1BTD    C4917794   7.546   4.473   2.433 -0.2913  0.0350 -0.2977
    1BTD    C5017795   7.674   4.451   2.511 -0.3968  0.3703 -0.1453
    1BTD    C7517796   7.426   4.501   1.847  1.3402  0.2053 -0.3048
    1BTD    C7617797   7.413   4.368   1.920  0.0036 -0.0709 -0.2057
    1BTD    C7717798   7.310   4.373   2.030  0.1564  0.0701 -0.4312
    1BTD    C7817799   7.262   4.236   2.098 -0.4882 -0.0969 -0.0869
    1BTD    C7917800   7.538   4.279   1.932 -0.2419  0.2551  0.1844
    1BTD    C8017801   7.639   4.318   2.038 -0.5115 -0.2445  0.1224
    1BTD    C8117802   7.729   4.437   2.000  0.2396 -0.6795  0.0451
    1BTD    C8217803   7.798   4.501   2.120 -0.6278 -0.2798 -0.3152
    2TTP     S117804   7.583   5.185   1.882  0.1613  0.0962 -0.0223
    2TTP     S517805   7.779   4.920   2.158 -0.3115 -0.2129  0.0184
    2TTP     C117806   7.868   5.078   2.157 -0.1080 -0.3256  0.0947
    2TTP     C217807   7.812   5.170   2.072  0.0502 -0.2371  0.0867
    2TTP     C317808   7.698   5.117   2.004  0.0161 -0.0765  0.0199
    2TTP     C417809   7.494   5.026   1.882 -0.0422  0.2091 -0.0986
    2TTP    C1717810   7.549   4.935   1.968 -0.2001  0.1203 -0.0906
    2TTP    C1817811   7.664   4.987   2.035 -0.1663 -0.0402 -0.0238
    2TTP    C3217812   7.868   5.309   2.031  0.6328  0.6314 -0.6790
    2TTP    C3317813   7.802   5.433   2.101  0.0990  0.1263  0.5408
    2TTP    C3417814   7.756   5.424   2.249 -0.3432  0.0217  0.1529
    2TTP    C3517815   7.629   5.339   2.274  1.2403  0.2381  0.4672
    2TTP    C3617816   7.537   5.377   2.394 -0.0263 -0.3605  0.6006
    2TTP    C3717817   7.456   5.509   2.382  0.1820  0.5808 -0.6659
    2TTP    C3817818   7.358   5.532   2.500 -0.1830  0.0974 -0.2665
    2TTP    C3917819   7.291   5.661   2.514  0.7140 -0.0793 -0.1827
    2TTP    C4017820   7.365   5.796   2.512  0.0940 -0.1649 -0.0570
    2TTP    C4117821   7.482   5.804   2.605 -0.5903 -0.1896  0.3041
    2TTP    C4217822   7.550   5.942   2.607 -0.1001 -0.2285 -0.1593
    3TTP     S117823   7.056   4.583   1.497 -0.2459 -0.0461 -0.1310
    3TTP     S517824   7.177   4.242   1.729 -0.1714 -0.0751 -0.2124
    3TTP     C117825   7.056   4.188   1.604 -0.2953 -0.0402 -0.1087
    3TTP     C217826   7.012   4.290   1.525 -0.3254 -0.0291 -0.0775
    3TTP     C317827   7.071   4.415   1.560 -0.2521 -0.0479 -0.1343
    3TTP     C417828   7.176   4.638   1.622 -0.1221 -0.0811 -0.2347
    3TTP    C1717829   7.221   4.536   1.701 -0.0919 -0.0918 -0.2659
    3TTP    C1817830   7.161   4.411   1.666 -0.1653 -0.0733 -0.2091
    3TTP    C3217831   6.918   4.279   1.412 -0.1332 -0.1817  0.5758
    3TTP    C3317832   6.788   4.367   1.418 -0.0514  0.2944  0.7409
    3TTP    C3417833   6.696   4.348   1.290 -0.5717  0.2668 -0.3633
    3TTP    C3517834   6.745   4.396   1.161  0.6283 -0.3762  0.2471
    3TTP    C3617835   6.644   4.360   1.052 -0.2756 -0.3061 -0.1037
    3TTP    C3717836   6.658   4.405   0.903  0.2490 -0.2181  0.5858
    3TTP    C3817837   6.689   4.555   0.868  0.0228  0.8479  0.6156
    3TTP    C3917838   6.603   4.662   0.930 -0.5375 -0.4063  0.1772
    3TTP    C4017839   6.649   4.799   0.884 -0.4071 -0.0919  0.2751
    3TTP    C4117840   6.593   4.913   0.965  0.2083 -0.8375  0.1271
    3TTP    C4217841   6.643   5.044   0.907 -0.3039 -0.0135 -0.4028
    4BIM     F117842   8.393   4.695   2.665 -0.0334  0.0619  0.2520
    4BIM     F217843   8.515   4.933   2.712  0.1321  0.0405 -0.0705
    4BIM     O117844   8.007   4.843   2.316 -0.1512 -0.0831  0.3203
    4BIM     N517845   8.415   5.382   2.529  0.2866 -0.0937 -0.4853
    4BIM     N617846   8.089   5.450   2.246  0.1609 -0.2024 -0.3670
    4BIM    C1917847   7.987   5.124   2.235 -0.0349 -0.1550  0.0365
    4BIM    C2017848   8.079   5.077   2.322 -0.0117 -0.1177  0.0319
    4BIM    C2117849   8.083   4.931   2.358 -0.0751 -0.0824  0.1829
    4BIM    C2217850   8.194   4.915   2.453 -0.0291 -0.0465  0.1353
    4BIM    C2317851   8.237   4.798   2.515 -0.0615 -0.0067  0.2339
    4BIM    C2417852   8.345   4.807   2.601 -0.0058  0.0219  0.1615
    4BIM    C2517853   8.408   4.930   2.625  0.0796  0.0109 -0.0047
    4BIM    C2617854   8.366   5.047   2.564  0.1125 -0.0288 -0.1038
    4BIM    C2717855   8.257   5.040   2.476  0.0567 -0.0583 -0.0326
    4BIM    C2817856   8.188   5.145   2.396  0.0710 -0.1024 -0.1028
    4BIM    C2917857   8.220   5.278   2.392  0.1462 -0.1248 -0.2621
    4BIM    C3017858   8.327   5.335   2.467  0.2232 -0.1076 -0.3843
    4BIM    C3117859   8.148   5.372   2.312  0.1540 -0.1673 -0.3189
    5BIM     F117860   7.005   3.522   2.079 -0.1197  0.0481  0.2489
    5BIM     F217861   6.955   3.375   1.856  0.2648 -0.0891  0.2503
    5BIM     O117862   7.047   4.019   1.868 -0.3549  0.0041  0.0985
    5BIM     N517863   6.911   3.518   1.384  0.6497 -0.3181  0.1452
    5BIM     N617864   6.954   3.935   1.264  0.3884 -0.3247  0.0273
    5BIM    C1917865   7.014   4.055   1.579 -0.0712 -0.1427  0.0464
    5BIM    C2017866   7.005   3.936   1.641 -0.0271 -0.1264  0.0842
    5BIM    C2117867   7.024   3.925   1.790 -0.1810 -0.0494  0.1091
    5BIM    C2217868   7.008   3.783   1.824 -0.0843 -0.0508  0.1483
    5BIM    C2317869   7.017   3.724   1.950 -0.1676  0.0075  0.1812
    5BIM    C2417870   6.998   3.587   1.958 -0.0468 -0.0070  0.2152
    5BIM    C2517871   6.972   3.511   1.843  0.1513 -0.0778  0.2158
    5BIM    C2617872   6.963   3.569   1.717  0.2354 -0.1363  0.1831
    5BIM    C2717873   6.982   3.708   1.707  0.1154 -0.1225  0.1484
    5BIM    C2817874   6.979   3.799   1.590  0.1584 -0.1719  0.1091
    5BIM    C2917875   6.956   3.763   1.459  0.3362 -0.2455  0.0979
    5BIM    C3017876   6.932   3.628   1.418  0.5080 -0.2851  0.1239
    5BIM    C3117877   6.955   3.858   1.352  0.3638 -0.2886  0.0591
    1BTD     S217878   9.136   1.269   7.266  0.0688 -0.1019 -0.1446
    1BTD     N117879   9.103   1.433   7.200  0.1757 -0.1735 -0.3755
    1BTD     N217880   8.973   1.204   7.227 -0.0489  0.0139  0.1477
    1BTD     N317881   8.581   1.369   7.027 -0.0951  0.1207  0.3258
    1BTD     N417882   8.742   1.651   6.993  0.1817 -0.1102 -0.3189
    1BTD     C517883   8.913   1.543   7.092  0.1752 -0.1377 -0.3381
    1BTD     C617884   8.979   1.431   7.154  0.1211 -0.1106 -0.2304
    1BTD     C717885   8.906   1.303   7.169 -0.0045 -0.0057  0.0622
    1BTD     C817886   8.770   1.294   7.122 -0.0696  0.0669  0.2328
    1BTD    C1517887   8.710   1.406   7.062 -0.0129  0.0370  0.1186
    1BTD    C1617888   8.780   1.529   7.048  0.1084 -0.0641 -0.1635
    1BTD    C4317889   8.646   1.671   6.882  0.7519 -0.3230  0.0200
    1BTD    C4417890   8.618   1.795   6.793 -0.7866  0.1988 -0.3340
    1BTD    C4517891   8.517   1.756   6.683 -0.1760 -0.0901  0.1423
    1BTD    C4617892   8.461   1.866   6.590 -0.3450 -0.5863 -0.8475
    1BTD    C4717893   8.747   1.860   6.737  0.4680  0.4257  0.2256
    1BTD    C4817894   8.843   1.779   6.640  0.3514 -0.0501 -0.8916
    1BTD    C4917895   8.965   1.852   6.596 -0.3409 -0.0175 -0.0616
    1BTD    C5017896   9.053   1.778   6.503  0.6839  0.6805  0.2318
    1BTD    C7517897   8.464   1.457   7.049  0.0352 -0.6345 -0.0388
    1BTD    C7617898   8.335   1.462   6.964  0.2351  0.4184  0.0677
    1BTD    C7717899   8.369   1.475   6.816 -0.7951  0.8653 -0.3566
    1BTD    C7817900   8.260   1.456   6.713  0.2666 -0.4610 -0.3073
    1BTD    C7917901   8.238   1.576   7.006  0.8599  0.4473 -0.3928
    1BTD    C8017902   8.264   1.723   6.971 -0.7416  0.5106  0.6700
    1BTD    C8117903   8.186   1.827   7.044  0.5913 -0.2488  0.2628
    1BTD    C8217904   8.226   1.972   7.000 -0.5077 -0.1325 -0.3534
    2TTP     S117905   9.057   1.790   7.175 -0.2230  0.2009 -0.0241
    2TTP     S517906   8.717   2.023   7.053 -0.1636  0.0892 -0.4059
    2TTP     C117907   8.828   2.129   7.150 -0.2203  0.1735 -0.4327
    2TTP     C217908   8.940   2.063   7.193 -0.2422  0.2130 -0.3164
    2TTP     C317909   8.942   1.927   7.151 -0.2146  0.1780 -0.2019
    2TTP     C417910   8.946   1.683   7.078 -0.1662  0.1166  0.0027
    2TTP    C1717911   8.835   1.749   7.034 -0.1443  0.0771 -0.1136
    2TTP    C1817912   8.833   1.886   7.076 -0.1717  0.1120 -0.2282
    2TTP    C3217913   9.047   2.122   7.291 -0.2124 -0.0706  0.2361
    2TTP    C3317914   9.196   2.095   7.284 -0.4114 -0.0819  0.3053
    2TTP    C3417915   9.283   2.176   7.380 -0.6771 -0.6458 -0.4372
    2TTP    C3517916   9.426   2.121   7.397 -0.2870 -0.2094  0.4623
    2TTP    C3617917   9.528   2.203   7.479  0.5964 -0.7577  0.4515
    2TTP    C3717918   9.656   2.140   7.523 -0.4051 -0.3417  0.2336
    2TTP    C3817919   9.757   2.230   7.593 -1.0276  0.1302 -0.0141
    2TTP    C3917920   9.891   2.167   7.637  0.1096  0.3597 -0.6519
    2TTP    C4017921   9.893   2.077   7.761  1.1619 -0.0496  0.6653
    2TTP    C4117922  10.028   2.007   7.780  0.6237 -0.3561 -0.2281
    2TTP    C4217923  10.037   1.918   7.907  0.8182 -0.6584 -0.3410
    3TTP     S117924   8.673   1.006   7.130 -0.0064 -0.1222 -0.1646
    3TTP     S517925   8.293   1.133   6.974  0.0002  0.2214  0.0963
    3TTP     C117926   8.289   0.952   6.996 -0.0393  0.1851 -0.1941
    3TTP     C217927   8.406   0.902   7.046 -0.0439  0.0769 -0.2917
    3TTP     C317928   8.503   1.005   7.068 -0.0162  0.0187 -0.1409
    3TTP     C417929   8.677   1.186   7.108  0.0329 -0.0859  0.1256
    3TTP    C1717930   8.560   1.236   7.058  0.0372  0.0223  0.2233
    3TTP    C1817931   8.463   1.133   7.036  0.0098  0.0805  0.0725
    3TTP    C3217932   8.434   0.752   7.080  0.1334  0.6687 -0.2738
    3TTP    C3317933   8.466   0.707   7.219  0.9521 -0.1559 -0.3750
    3TTP    C3417934   8.502   0.559   7.229  0.1477 -0.1510 -0.8618
    3TTP    C3517935   8.503   0.514   7.375  0.1161  0.7014 -0.0390
    3TTP    C3617936   8.462   0.361   7.377 -0.1583  0.7090 -0.2873
    3TTP    C3717937   8.469   0.290   7.514  0.2098 -0.4141  0.2170
    3TTP    C3817938   8.484   0.134   7.503 -0.0489  0.2192 -0.0624
    3TTP    C3917939   8.516   0.057   7.633  0.1701 -0.4002  0.1896
    3TTP    C4017940   8.494  -0.095   7.643  0.3081 -0.3353  0.0989
    3TTP    C4117941   8.347  -0.150   7.637 -0.5621 -0.1673 -0.3180
    3TTP    C4217942   8.317  -0.294   7.657  0.1903  0.0704  0.7941
    4BIM     F117943   8.214   2.658   7.028  0.0157  0.0864 -0.2691
    4BIM     F217944   8.394   2.861   7.049 -0.0038  0.0749  0.0180
    4BIM     O117945   8.532   2.229   7.118 -0.0684  0.0345 -0.2180
    4BIM     N517946   8.879   2.847   7.143 -0.0916  0.0213  0.4675
    4BIM     N617947   9.092   2.471   7.209 -0.1533 -0.0170  0.4495
    4BIM    C1917948   8.817   2.271   7.170 -0.1168  0.0050  0.0746
    4BIM    C2017949   8.730   2.370   7.146 -0.0951  0.0185  0.0504
    4BIM    C2117950   8.585   2.341   7.120 -0.0710  0.0332 -0.1031
    4BIM    C2217951   8.519   2.471   7.099 -0.0508  0.0456 -0.0898
    4BIM    C2317952   8.385   2.495   7.072 -0.0253  0.0613 -0.2025
    4BIM    C2417953   8.345   2.627   7.055 -0.0100  0.0708 -0.1630
    4BIM    C2517954   8.438   2.731   7.066 -0.0196  0.0648 -0.0152
    4BIM    C2617955   8.572   2.708   7.093 -0.0451  0.0494  0.0981
    4BIM    C2717956   8.614   2.575   7.110 -0.0613  0.0394  0.0603
    4BIM    C2817957   8.748   2.518   7.140 -0.0887  0.0225  0.1523
    4BIM    C2917958   8.865   2.587   7.158 -0.1054  0.0125  0.3033
    4BIM    C3017959   8.872   2.730   7.149 -0.0978  0.0174  0.3930
    4BIM    C3117960   8.989   2.523   7.186 -0.1314 -0.0036  0.3829
    5BIM     F117961   7.479   1.090   7.010 -0.1034  0.2174 -0.2638
    5BIM     F217962   7.438   0.829   6.942 -0.1540  0.2514 -0.3642
    5BIM     O117963   8.020   1.105   7.033 -0.1161 -0.0150  0.2095
    5BIM     N517964   7.764   0.466   6.862 -0.2362  0.1347 -0.1713
    5BIM     N617965   8.195   0.531   6.894 -0.2358 -0.0537  0.2187
    5BIM    C1917966   8.173   0.862   6.977 -0.1693 -0.0650  0.2815
    5BIM    C2017967   8.038   0.868   6.974 -0.1640 -0.0079  0.1664
    5BIM    C2117968   7.967   0.997   7.004 -0.1361  0.0146  0.1365
    5BIM    C2217969   7.823   0.969   6.991 -0.1376  0.0781  0.0043
    5BIM    C2317970   7.717   1.057   7.010 -0.1167  0.1177 -0.0654
    5BIM    C2417971   7.588   1.008   6.993 -0.1230  0.1758 -0.1893
    5BIM    C2517972   7.568   0.873   6.958 -0.1491  0.1932 -0.2408
    5BIM    C2617973   7.673   0.784   6.939 -0.1698  0.1538 -0.1717
    5BIM    C2717974   7.803   0.833   6.956 -0.1640  0.0949 -0.0464
    5BIM    C2817975   7.935   0.766   6.944 -0.1810  0.0428  0.0513
    5BIM    C2917976   7.957   0.634   6.911 -0.2083  0.0417  0.0376
    5BIM    C3017977   7.851   0.542   6.884 -0.2232  0.0928 -0.0771
    5BIM    C3117978   8.088   0.578   6.902 -0.2232 -0.0108  0.1372
    1BTD     S217979   1.287   7.915   8.764 -0.1707 -0.1601  0.0656
    1BTD     N117980   1.366   8.072   8.728 -0.2394 -0.0455  0.3982
    1BTD     N217981   1.139   7.950   8.667  0.0555 -0.2507 -0.3138
    1BTD     N317982   0.982   8.304   8.403  0.3922 -0.2286 -0.4852
    1BTD     N417983   1.261   8.455   8.477  0.0288  0.0238  0.3924
    1BTD     C517984   1.308   8.270   8.596 -0.0950 -0.0124  0.3848
    1BTD     C617985   1.283   8.139   8.649 -0.0976 -0.0792  0.2191
    1BTD     C717986   1.156   8.070   8.615  0.0675 -0.1941 -0.1798
    1BTD     C817987   1.061   8.137   8.530  0.2269 -0.2363 -0.3927
    1BTD    C1517988   1.090   8.265   8.480  0.2233 -0.1678 -0.2187
    1BTD    C1617989   1.212   8.331   8.513  0.0642 -0.0573  0.1652
    1BTD    C4317990   1.200   8.587   8.449  0.3717  0.4751 -0.3336
    1BTD    C4417991   1.163   8.689   8.560  0.4859 -0.4002 -0.7652
    1BTD    C4517992   1.089   8.815   8.514 -0.1667  0.2066  0.6208
    1BTD    C4617993   1.148   8.901   8.406  0.0723 -0.5371  0.2055
    1BTD    C4717994   1.103   8.633   8.693 -0.2627 -0.0430  0.1016
    1BTD    C4817995   1.069   8.713   8.824 -0.1703  0.0017  0.1809
    1BTD    C4917996   1.193   8.772   8.897  0.7075  0.1416 -0.2478
    1BTD    C5017997   1.289   8.669   8.948  0.0667  0.0668  0.1288
    1BTD    C7517998   0.980   8.420   8.314  0.1396  0.3177  0.4060
    1BTD    C7617999   0.904   8.421   8.178  0.5648  0.5363 -0.7094
    1BTD    C7718000   0.957   8.309   8.080  0.3593 -0.0435 -0.4396
    1BTD    C7818001   0.886   8.297   7.943  0.1783  0.0914  0.2458
    1BTD    C7918002   0.882   8.562   8.126 -0.8341 -0.0234 -0.6255
    1BTD    C8018003   1.004   8.647   8.094 -0.3891 -0.0268  0.2907
    1BTD    C8118004   0.952   8.774   8.031 -0.1509 -0.1358 -0.6274
    1BTD    C8218005   1.075   8.857   7.986 -0.4235 -0.0140 -0.2980
    2TTP     S118006   1.573   8.369   8.699 -0.0560  0.1046  0.0719
    2TTP     S518007   1.518   8.728   8.468 -0.1014  0.1523  0.1569
    2TTP     C118008   1.679   8.737   8.552 -0.0806  0.1306  0.1193
    2TTP     C218009   1.706   8.627   8.628 -0.0653  0.1149  0.0906
    2TTP     C318010   1.600   8.531   8.623 -0.0695  0.1190  0.0975
    2TTP     C418011   1.412   8.360   8.615 -0.0769  0.1266  0.1094
    2TTP    C1718012   1.386   8.470   8.539 -0.0922  0.1425  0.1378
    2TTP    C1818013   1.492   8.566   8.544 -0.0879  0.1380  0.1309
    2TTP    C3218014   1.828   8.607   8.718 -0.2056 -0.1269 -0.2439
    2TTP    C3318015   1.794   8.619   8.868 -0.4312 -0.3375  0.0097
    2TTP    C3418016   1.741   8.757   8.914  0.0333 -0.3209  0.0065
    2TTP    C3518017   1.850   8.856   8.916  0.8038 -0.5139 -0.0460
    2TTP    C3618018   1.788   8.994   8.923  0.3772  0.0468 -0.1142
    2TTP    C3718019   1.874   9.112   8.894 -1.2020 -0.4190 -0.9835
    2TTP    C3818020   1.796   9.243   8.875 -0.2519 -0.0444 -0.4906
    2TTP    C3918021   1.876   9.364   8.827 -0.3132 -0.0141  0.2074
    2TTP    C4018022   1.798   9.489   8.786 -0.0500 -0.1381  0.7920
    2TTP    C4118023   1.890   9.604   8.758 -0.0431 -0.2721  0.1853
    2TTP    C4218024   1.804   9.710   8.694 -0.8009 -0.7400 -0.0505
    3TTP     S118025   0.814   7.968   8.498  0.0305  0.1690  0.0409
    3TTP     S518026   0.622   8.282   8.274 -0.0240 -0.0181 -0.1760
    3TTP     C118027   0.505   8.144   8.292  0.0372 -0.0700 -0.1744
    3TTP     C218028   0.557   8.039   8.362  0.0577 -0.0153 -0.1073
    3TTP     C318029   0.692   8.064   8.404  0.0257  0.0694 -0.0546
    3TTP     C418030   0.931   8.107   8.480 -0.0308  0.2208  0.0393
    3TTP    C1718031   0.879   8.211   8.410 -0.0512  0.1657 -0.0276
    3TTP    C1818032   0.744   8.187   8.368 -0.0192  0.0811 -0.0803
    3TTP    C3218033   0.496   7.908   8.391 -0.1304  0.5246  0.0360
    3TTP    C3318034   0.558   7.780   8.324 -0.2787 -1.0585  0.4403
    3TTP    C3418035   0.493   7.658   8.387 -0.4970  0.3622  0.5205
    3TTP    C3518036   0.571   7.536   8.328  0.5207  0.1236  0.0626
    3TTP    C3618037   0.539   7.411   8.400 -0.0655  0.4988  0.1480
    3TTP    C3718038   0.610   7.290   8.334  0.2181 -0.4372 -0.1742
    3TTP    C3818039   0.572   7.171   8.413  0.0560 -0.1967 -0.7161
    3TTP    C3918040   0.643   7.049   8.361  0.4669 -0.0925 -0.0989
    3TTP    C4018041   0.642   6.926   8.457  0.6364 -0.0048 -0.1969
    3TTP    C4118042   0.729   6.817   8.424  0.3691 -0.2102  0.3125
    3TTP    C4218043   0.721   6.723   8.548 -0.6080 -0.4006  0.2619
    4BIM     F118044   1.628   9.528   8.326 -0.0790 -0.0393  0.2654
    4BIM     F218045   1.898   9.546   8.351 -0.0767 -0.0324  0.2346
    4BIM     O118046   1.546   9.013   8.472 -0.0114 -0.1440 -0.0651
    4BIM     N518047   2.228   9.205   8.491 -0.0250 -0.0970 -0.0448
    4BIM     N618048   2.110   8.799   8.600  0.0274 -0.1802 -0.2968
    4BIM    C1918049   1.775   8.847   8.548  0.0149 -0.1747 -0.2114
    4BIM    C2018050   1.785   8.976   8.510 -0.0022 -0.1488 -0.1271
    4BIM    C2118051   1.663   9.055   8.473 -0.0149 -0.1345 -0.0556
    4BIM    C2218052   1.709   9.190   8.437 -0.0323 -0.1066  0.0274
    4BIM    C2318053   1.632   9.298   8.396 -0.0482 -0.0856  0.1118
    4BIM    C2418054   1.698   9.417   8.368 -0.0629 -0.0609  0.1804
    4BIM    C2518055   1.837   9.426   8.381 -0.0617 -0.0572  0.1641
    4BIM    C2618056   1.915   9.318   8.422 -0.0458 -0.0780  0.0803
    4BIM    C2718057   1.850   9.197   8.451 -0.0308 -0.1032  0.0103
    4BIM    C2818058   1.902   9.066   8.496 -0.0122 -0.1290 -0.0856
    4BIM    C2918059   2.034   9.035   8.520 -0.0057 -0.1335 -0.1276
    4BIM    C3018060   2.140   9.128   8.504 -0.0164 -0.1135 -0.0820
    4BIM    C3118061   2.075   8.905   8.564  0.0125 -0.1593 -0.2203
    5BIM     F118062  -0.037   8.688   7.999  0.0202 -0.0570 -0.1460
    5BIM     F218063  -0.205   8.481   7.943 -0.1390  0.0226  0.0340
    5BIM     O118064   0.383   8.422   8.215 -0.0349 -0.2227 -0.2422
    5BIM     N518065  -0.148   7.995   8.017 -0.4067  0.0193  0.2241
    5BIM     N618066   0.213   7.829   8.197 -0.4180 -0.1265  0.1125
    5BIM    C1918067   0.371   8.130   8.239 -0.2065 -0.2055 -0.1046
    5BIM    C2018068   0.272   8.205   8.187 -0.1864 -0.1669 -0.0875
    5BIM    C2118069   0.285   8.355   8.178 -0.0968 -0.1788 -0.1616
    5BIM    C2218070   0.161   8.405   8.117 -0.0972 -0.1285 -0.1199
    5BIM    C2318071   0.127   8.537   8.088 -0.0287 -0.1197 -0.1624
    5BIM    C2418072   0.003   8.559   8.030 -0.0446 -0.0685 -0.1086
    5BIM    C2518073  -0.083   8.453   8.001 -0.1267 -0.0274 -0.0160
    5BIM    C2618074  -0.050   8.321   8.029 -0.1953 -0.0360  0.0267
    5BIM    C2718075   0.075   8.296   8.088 -0.1804 -0.0873 -0.0265
    5BIM    C2818076   0.139   8.169   8.130 -0.2385 -0.1094 -0.0026
    5BIM    C2918077   0.087   8.043   8.118 -0.3242 -0.0818  0.0815
    5BIM    C3018078  -0.042   8.017   8.062 -0.3693 -0.0262  0.1600
    5BIM    C3118079   0.157   7.926   8.162 -0.3753 -0.1066  0.0982
    1BTD     S218080   8.726   3.313   1.186  0.1994 -0.0685 -0.0727
    1BTD     N118081   8.753   3.490   1.205 -0.3781  0.0027  0.1237
    1BTD     N218082   8.779   3.272   1.353  0.6464 -0.1228 -0.2248
    1BTD     N318083   8.936   3.508   1.728  0.5126 -0.1047 -0.1803
    1BTD     N418084   8.904   3.776   1.545 -0.7501  0.0501  0.2491
    1BTD     C518085   8.832   3.636   1.385 -0.5572  0.0256  0.1840
    1BTD     C618086   8.798   3.508   1.329 -0.2170 -0.0166  0.0685
    1BTD     C718087   8.813   3.387   1.411  0.3564 -0.0869 -0.1265
    1BTD     C818088   8.861   3.399   1.546  0.5612 -0.1115 -0.1964
    1BTD    C1518089   8.893   3.526   1.597  0.2133 -0.0684 -0.0784
    1BTD    C1618090   8.879   3.643   1.518 -0.3392 -0.0007  0.1096
    1BTD    C4318091   9.025   3.828   1.613  0.5577 -0.3379 -0.2242
    1BTD    C4418092   9.043   3.964   1.683  1.3130 -0.0551  0.0475
    1BTD    C4518093   9.188   3.996   1.726 -0.3484  0.4882 -0.2680
    1BTD    C4618094   9.273   4.017   1.604 -0.4863 -0.6326  0.2956
    1BTD    C4718095   8.931   3.999   1.786  0.4384 -0.4683 -0.0608
    1BTD    C4818096   8.914   4.154   1.803 -0.1677 -0.1817 -0.0736
    1BTD    C4918097   8.792   4.216   1.875 -0.1442 -0.1131  0.4257
    1BTD    C5018098   8.650   4.178   1.819 -0.3366 -0.1711  0.7524
    1BTD    C7518099   8.929   3.621   1.826 -0.1051 -0.2782  0.4351
    1BTD    C7618100   9.007   3.624   1.958 -0.5663 -0.7015 -0.7612
    1BTD    C7718101   8.973   3.745   2.054 -0.5803  0.3079  0.6771
    1BTD    C7818102   8.828   3.770   2.081  0.1468 -0.4008 -0.0260
    1BTD    C7918103   9.165   3.611   1.925  0.4547 -0.0257 -0.5012
    1BTD    C8018104   9.262   3.609   2.034  0.4838 -0.2821  0.0625
    1BTD    C8118105   9.392   3.540   2.018 -0.4090  0.5368  0.0101
    1BTD    C8218106   9.392   3.395   2.003 -0.1263  0.2287  0.1866
    2TTP     S118107   8.780   3.847   1.181 -0.0412 -0.1376  0.4291
    2TTP     S518108   8.893   4.152   1.462  0.5357 -0.1752  0.2402
    2TTP     C118109   8.846   4.232   1.306  0.5928 -0.1759  0.2224
    2TTP     C218110   8.808   4.142   1.210  0.4177 -0.1645  0.2797
    2TTP     C318111   8.815   4.007   1.256  0.2327 -0.1545  0.3397
    2TTP     C418112   8.828   3.767   1.337 -0.0980 -0.1369  0.4470
    2TTP    C1718113   8.866   3.856   1.433  0.0770 -0.1484  0.3896
    2TTP    C1818114   8.858   3.991   1.387  0.2620 -0.1583  0.3296
    2TTP    C3218115   8.765   4.174   1.062  0.0415 -0.5224 -0.0865
    2TTP    C3318116   8.619   4.143   1.020  0.3108 -0.4688  0.4130
    2TTP    C3418117   8.510   4.240   1.064 -0.3813 -0.2374 -0.0222
    2TTP    C3518118   8.538   4.387   1.028  1.0882 -0.2491 -0.0057
    2TTP    C3618119   8.443   4.494   1.088  0.1329 -0.9659 -0.0720
    2TTP    C3718120   8.287   4.493   1.060 -0.4199  1.1938  0.5386
    2TTP    C3818121   8.228   4.502   0.922  0.0603 -0.1149  0.2101
    2TTP    C3918122   8.081   4.460   0.912  0.2867  0.1434  0.4310
    2TTP    C4018123   8.043   4.323   0.965 -0.1014  0.1768  0.3048
    2TTP    C4118124   7.903   4.280   0.933 -0.4454 -0.1963 -0.2763
    2TTP    C4218125   7.888   4.130   0.953  0.0915  0.5176 -0.2969
    3TTP     S118126   8.904   3.122   1.669 -0.0883  0.1485 -0.0020
    3TTP     S518127   9.031   3.311   2.034 -0.2997 -0.0023  0.1504
    3TTP     C118128   9.038   3.130   2.056 -0.1827 -0.0126  0.0344
    3TTP     C218129   8.999   3.062   1.945 -0.1104  0.0334 -0.0196
    3TTP     C318130   8.962   3.149   1.838 -0.1450  0.0784  0.0289
    3TTP     C418131   8.897   3.303   1.646 -0.2055  0.1588  0.1141
    3TTP    C1718132   8.936   3.371   1.758 -0.2777  0.1129  0.1680
    3TTP    C1818133   8.972   3.284   1.865 -0.2432  0.0679  0.1196
    3TTP    C3218134   9.000   2.906   1.933 -0.6425  0.0308  0.1752
    3TTP    C3318135   8.880   2.843   1.871  0.5257 -0.0070 -0.1196
    3TTP    C3418136   8.902   2.713   1.788  0.5914 -1.1215  0.1215
    3TTP    C3518137   8.940   2.589   1.860  0.0492  0.1514  0.3990
    3TTP    C3618138   8.825   2.526   1.938 -0.0132 -1.0031  0.7482
    3TTP    C3718139   8.870   2.433   2.045  0.0742  0.1273 -0.1396
    3TTP    C3818140   8.750   2.385   2.134  0.0186 -0.2623  0.3745
    3TTP    C3918141   8.794   2.298   2.244 -0.4773 -0.0808 -0.2937
    3TTP    C4018142   8.891   2.354   2.347  0.6405 -0.1878  0.3412
    3TTP    C4118143   8.960   2.237   2.417  0.4057 -0.0375 -0.1199
    3TTP    C4218144   9.007   2.274   2.556 -0.4790  1.1952  0.2751
    4BIM     F118145   8.951   4.903   1.762  0.2735 -0.4126  0.1977
    4BIM     F218146   8.991   5.042   1.531 -0.1912 -0.2214  0.2296
    4BIM     O118147   8.850   4.408   1.568  0.3049 -0.3446  0.0080
    4BIM     N518148   8.977   4.888   1.061 -0.8366  0.1020  0.1401
    4BIM     N618149   8.891   4.473   0.956 -0.7184  0.1166 -0.0145
    4BIM    C1918150   8.853   4.364   1.278 -0.1275 -0.1379 -0.0290
    4BIM    C2018151   8.877   4.483   1.336 -0.1178 -0.1624  0.0175
    4BIM    C2118152   8.874   4.498   1.486  0.1113 -0.2704  0.0338
    4BIM    C2218153   8.903   4.639   1.515  0.0601 -0.2704  0.0859
    4BIM    C2318154   8.911   4.701   1.639  0.2177 -0.3530  0.1169
    4BIM    C2418155   8.941   4.836   1.642  0.1279 -0.3343  0.1651
    4BIM    C2518156   8.962   4.907   1.523 -0.1119 -0.2356  0.1814
    4BIM    C2618157   8.954   4.847   1.398 -0.2694 -0.1528  0.1507
    4BIM    C2718158   8.924   4.710   1.394 -0.1819 -0.1705  0.1019
    4BIM    C2818159   8.908   4.617   1.279 -0.3006 -0.1000  0.0604
    4BIM    C2918160   8.921   4.648   1.146 -0.5357  0.0030  0.0616
    4BIM    C3018161   8.952   4.780   1.100 -0.7005  0.0571  0.1048
    4BIM    C3118162   8.904   4.552   1.042 -0.6347  0.0648  0.0197
    5BIM     F118163   9.392   3.286   2.789  0.0260  0.1680 -0.1223
    5BIM     F218164   9.334   3.031   2.862  0.4385  0.0488 -0.2040
    5BIM     O118165   9.199   3.294   2.283 -0.2861  0.1216 -0.0043
    5BIM     N518166   9.113   2.669   2.607  0.8092 -0.1556 -0.2375
    5BIM     N618167   8.974   2.727   2.197  0.4821 -0.1678 -0.1289
    5BIM    C1918168   9.075   3.053   2.173 -0.0028 -0.0088 -0.0406
    5BIM    C2018169   9.126   3.061   2.298  0.0594  0.0076 -0.0670
    5BIM    C2118170   9.188   3.189   2.347 -0.0954  0.0756 -0.0459
    5BIM    C2218171   9.233   3.163   2.485  0.0238  0.0766 -0.0841
    5BIM    C2318172   9.296   3.251   2.572 -0.0525  0.1291 -0.0814
    5BIM    C2418173   9.329   3.204   2.698  0.0904  0.1183 -0.1224
    5BIM    C2518174   9.299   3.072   2.735  0.3031  0.0569 -0.1644
    5BIM    C2618175   9.236   2.984   2.649  0.3803  0.0044 -0.1674
    5BIM    C2718176   9.202   3.030   2.521  0.2375  0.0142 -0.1262
    5BIM    C2818177   9.135   2.962   2.408  0.2682 -0.0307 -0.1175
    5BIM    C2918178   9.090   2.832   2.405  0.4542 -0.0952 -0.1498
    5BIM    C3018179   9.103   2.743   2.516  0.6487 -0.1282 -0.1979
    5BIM    C3118180   9.026   2.775   2.291  0.4685 -0.1348 -0.1382
    1BTD     S218181   1.526   7.439   3.735 -0.0454  0.2932  0.0484
    1BTD     N118182   1.575   7.266   3.721 -0.1000  0.2795  0.0266
    1BTD     N218183   1.688   7.495   3.792 -0.0042  0.2480 -0.0238
    1BTD     N318184   2.103   7.297   3.883 -0.0187  0.1315 -0.2103
    1BTD     N418185   1.965   7.015   3.796 -0.1367  0.1704 -0.1484
    1BTD     C518186   1.780   7.138   3.761 -0.1177  0.2220 -0.0654
    1BTD     C618187   1.702   7.259   3.758 -0.0854  0.2439 -0.0305
    1BTD     C718188   1.765   7.387   3.797 -0.0318  0.2261 -0.0586
    1BTD     C818189   1.903   7.388   3.838 -0.0132  0.1876 -0.1203
    1BTD    C1518190   1.975   7.267   3.840 -0.0462  0.1672 -0.1529
    1BTD    C1618191   1.915   7.144   3.802 -0.0978  0.1844 -0.1258
    1BTD    C4318192   2.099   6.972   3.748  0.3161 -0.0541  0.4902
    1BTD    C4418193   2.175   6.852   3.797  0.2983  0.2570 -0.1022
    1BTD    C4518194   2.302   6.828   3.716 -0.5521  0.5787  0.2986
    1BTD    C4618195   2.401   6.932   3.695 -0.7814 -0.4059 -0.1454
    1BTD    C4718196   2.196   6.843   3.948  0.0091 -0.5987  0.3666
    1BTD    C4818197   2.274   6.735   4.012 -0.4605  0.4745 -0.3926
    1BTD    C4918198   2.232   6.594   3.972 -0.0015  0.2038  0.6994
    1BTD    C5018199   2.288   6.478   4.064 -0.2027 -0.5274  0.3311
    1BTD    C7518200   2.216   7.208   3.905 -0.5430  0.5175 -0.2895
    1BTD    C7618201   2.281   7.202   4.049 -0.0799 -0.2113  0.5411
    1BTD    C7718202   2.192   7.140   4.156  0.7330 -0.2370  0.4460
    1BTD    C7818203   2.247   7.171   4.291 -0.4654  0.3814 -0.0403
    1BTD    C7918204   2.424   7.141   4.049 -0.3303  0.2375  0.4995
    1BTD    C8018205   2.521   7.210   3.966 -0.6842 -0.5481  0.2354
    1BTD    C8118206   2.659   7.150   3.950  0.5718  0.2566 -0.1803
    1BTD    C8218207   2.741   7.248   3.861  0.9816  0.3330  0.2032
    2TTP     S118208   1.604   6.907   3.685 -0.0033 -0.0973 -0.4255
    2TTP     S518209   1.919   6.636   3.796  0.1177  0.0824 -0.3281
    2TTP     C118210   1.770   6.539   3.755  0.1587  0.0020 -0.2870
    2TTP     C218211   1.664   6.617   3.718  0.1238 -0.0584 -0.3146
    2TTP     C318212   1.697   6.756   3.721  0.0634 -0.0432 -0.3693
    2TTP     C418213   1.753   7.004   3.725 -0.0443 -0.0169 -0.4668
    2TTP    C1718214   1.859   6.926   3.762 -0.0093  0.0434 -0.4391
    2TTP    C1818215   1.826   6.787   3.759  0.0511  0.0283 -0.3844
    2TTP    C3218216   1.530   6.569   3.661  0.0847 -1.0713 -0.1661
    2TTP    C3318217   1.485   6.612   3.526  0.6178 -0.1745  0.1081
    2TTP    C3418218   1.355   6.547   3.480  0.4964 -0.2067  0.0170
    2TTP    C3518219   1.272   6.637   3.384  0.0380 -0.2628  0.0931
    2TTP    C3618220   1.150   6.575   3.326 -0.3036 -0.0269  0.5004
    2TTP    C3718221   1.073   6.676   3.241 -1.0063  0.0856  0.1936
    2TTP    C3818222   0.969   6.614   3.148 -0.0209 -0.0873  0.2548
    2TTP    C3918223   0.901   6.716   3.061  0.2889  0.2918 -0.3669
    2TTP    C4018224   0.808   6.815   3.130  0.3387  0.2737  0.4259
    2TTP    C4118225   0.749   6.919   3.029  0.0490 -0.0381  0.0956
    2TTP    C4218226   0.652   7.017   3.086 -0.7301  0.2027 -0.4539
    3TTP     S118227   1.991   7.673   3.870 -0.1512 -0.1410  0.1338
    3TTP     S518228   2.396   7.535   3.919  0.0073  0.1514 -0.3346
    3TTP     C118229   2.397   7.717   3.906 -0.1585  0.1676 -0.1475
    3TTP     C218230   2.273   7.770   3.890 -0.2171  0.0783  0.0081
    3TTP     C318231   2.171   7.669   3.887 -0.1333 -0.0062 -0.0147
    3TTP     C418232   1.989   7.492   3.883  0.0144 -0.1572 -0.0533
    3TTP    C1718233   2.114   7.439   3.899  0.0732 -0.0679 -0.2089
    3TTP    C1818234   2.216   7.539   3.901 -0.0106  0.0167 -0.1861
    3TTP    C3218235   2.242   7.908   3.845  0.7093 -0.2048  0.2487
    3TTP    C3318236   2.127   7.993   3.911 -0.7007  0.1115 -0.0319
    3TTP    C3418237   2.118   8.135   3.865  0.0328 -0.4023  0.0577
    3TTP    C3518238   2.010   8.231   3.922 -0.2041  0.5377  0.2967
    3TTP    C3618239   1.864   8.186   3.912 -0.0624  0.6671 -0.5513
    3TTP    C3718240   1.758   8.289   3.946  0.1065 -0.1621  0.2720
    3TTP    C3818241   1.611   8.242   3.925 -0.4847 -0.2974  0.1280
    3TTP    C3918242   1.491   8.334   3.940  0.0804  0.1921  0.0431
    3TTP    C4018243   1.469   8.460   3.852 -0.6438  0.2933 -0.4835
    3TTP    C4118244   1.325   8.517   3.861 -0.1488  0.6019  0.2189
    3TTP    C4218245   1.307   8.640   3.767  0.4576  0.0655 -0.7400
    4BIM     F118246   2.246   5.920   4.005 -0.0063  0.0846 -0.0013
    4BIM     F218247   2.026   5.761   4.013  0.0364  0.0335  0.1775
    4BIM     O118248   2.032   6.385   3.828 -0.2388  0.0049  0.0704
    4BIM     N518249   1.555   5.863   3.897 -0.0680 -0.0970  0.4857
    4BIM     N618250   1.432   6.258   3.757 -0.2583 -0.1490  0.5058
    4BIM    C1918251   1.745   6.398   3.773 -0.2806 -0.0725  0.2668
    4BIM    C2018252   1.807   6.287   3.817 -0.2238 -0.0504  0.2417
    4BIM    C2118253   1.955   6.288   3.843 -0.2057 -0.0108  0.1392
    4BIM    C2218254   1.990   6.153   3.890 -0.1414  0.0051  0.1372
    4BIM    C2318255   2.116   6.106   3.927 -0.1047  0.0410  0.0580
    4BIM    C2418256   2.125   5.973   3.968 -0.0450  0.0497  0.0737
    4BIM    C2518257   2.011   5.892   3.971 -0.0232  0.0234  0.1660
    4BIM    C2618258   1.885   5.938   3.935 -0.0595 -0.0126  0.2453
    4BIM    C2718259   1.874   6.072   3.893 -0.1200 -0.0221  0.2308
    4BIM    C2818260   1.757   6.151   3.848 -0.1699 -0.0571  0.2986
    4BIM    C2918261   1.628   6.106   3.838 -0.1665 -0.0895  0.3957
    4BIM    C3018262   1.588   5.973   3.871 -0.1124 -0.0936  0.4449
    4BIM    C3118263   1.521   6.190   3.794 -0.2170 -0.1222  0.4557
    5BIM     F118264   3.199   7.607   4.050  0.0311 -0.1053 -0.2383
    5BIM     F218265   3.231   7.877   4.043  0.0400 -0.1004 -0.0242
    5BIM     O118266   2.667   7.565   3.959  0.0278 -0.0155 -0.2612
    5BIM     N518267   2.897   8.236   3.969  0.0505 -0.0293  0.2675
    5BIM     N618268   2.475   8.148   3.900  0.0462  0.0396  0.2065
    5BIM    C1918269   2.508   7.808   3.921  0.0351  0.0210 -0.0648
    5BIM    C2018270   2.641   7.808   3.944  0.0356 -0.0018 -0.0674
    5BIM    C2118271   2.715   7.679   3.963  0.0317 -0.0194 -0.1715
    5BIM    C2218272   2.856   7.715   3.986  0.0333 -0.0423 -0.1457
    5BIM    C2318273   2.964   7.629   4.008  0.0309 -0.0639 -0.2162
    5BIM    C2418274   3.088   7.686   4.027  0.0333 -0.0833 -0.1733
    5BIM    C2518275   3.105   7.826   4.024  0.0379 -0.0807 -0.0626
    5BIM    C2618276   2.998   7.912   4.001  0.0403 -0.0591  0.0082
    5BIM    C2718277   2.871   7.856   3.982  0.0380 -0.0396 -0.0340
    5BIM    C2818278   2.739   7.918   3.956  0.0395 -0.0144  0.0185
    5BIM    C2918279   2.713   8.053   3.945  0.0439 -0.0050  0.1261
    5BIM    C3018280   2.815   8.153   3.959  0.0475 -0.0186  0.2035
    5BIM    C3118281   2.582   8.104   3.920  0.0451  0.0196  0.1696
    1BTD     S218282   0.234   8.362   8.948 -0.0962 -0.1677  0.4025
    1BTD     N118283   0.100   8.253   8.898 -0.0759 -0.1404  0.2878
    1BTD     N218284   0.155   8.511   8.885 -0.0689 -0.1335  0.4487
    1BTD     N318285  -0.248   8.617   8.667  0.0231 -0.0148  0.3364
    1BTD     N418286  -0.315   8.298   8.683  0.0145 -0.0231  0.1380
    1BTD     C518287  -0.116   8.281   8.786 -0.0286 -0.0789  0.2124
    1BTD     C618288   0.008   8.329   8.840 -0.0512 -0.1087  0.2899
    1BTD     C718289   0.039   8.474   8.833 -0.0472 -0.1051  0.3800
    1BTD     C818290  -0.056   8.563   8.772 -0.0210 -0.0715  0.3879
    1BTD    C1518291  -0.176   8.511   8.720  0.0004 -0.0431  0.3097
    1BTD    C1618292  -0.206   8.371   8.726 -0.0034 -0.0468  0.2233
    1BTD    C4318293  -0.450   8.347   8.662  0.8476  0.5254  0.2939
    1BTD    C4418294  -0.571   8.257   8.625  0.2599  1.0514 -0.1766
    1BTD    C4518295  -0.637   8.192   8.752  0.2043  0.0869  0.0502
    1BTD    C4618296  -0.715   8.286   8.845 -0.1453  0.3643 -0.3617
    1BTD    C4718297  -0.664   8.320   8.526  0.2610 -0.3717  0.2222
    1BTD    C4818298  -0.767   8.227   8.454 -0.3963 -0.1196 -0.0306
    1BTD    C4918299  -0.871   8.298   8.375  0.2405 -0.2977  0.7599
    1BTD    C5018300  -0.961   8.208   8.292  0.8641  0.4698  0.3364
    1BTD    C7518301  -0.325   8.619   8.538  0.1532  0.7416 -0.1723
    1BTD    C7618302  -0.452   8.697   8.516 -0.1867 -0.0724  0.3235
    1BTD    C7718303  -0.553   8.657   8.625 -0.0890  0.1420  0.4795
    1BTD    C7818304  -0.692   8.721   8.627  0.1906 -0.6926  0.5176
    1BTD    C7918305  -0.499   8.695   8.371  0.6880 -0.2175  0.9852
    1BTD    C8018306  -0.404   8.753   8.263  0.2310  0.6208  0.2256
    1BTD    C8118307  -0.479   8.771   8.128 -0.1241  0.6551  0.0536
    1BTD    C8218308  -0.486   8.637   8.053  0.3850 -0.2425  0.4955
    2TTP     S118309  -0.090   7.988   8.744 -0.0197 -0.1323  0.1179
    2TTP     S518310  -0.434   8.003   8.486 -0.2770  0.2060  0.4787
    2TTP     C118311  -0.348   7.845   8.460 -0.2728  0.2625  0.1476
    2TTP     C218312  -0.237   7.831   8.538 -0.1931  0.1613  0.0167
    2TTP     C318313  -0.215   7.944   8.621 -0.1323  0.0355  0.1731
    2TTP     C418314  -0.175   8.146   8.771 -0.0236 -0.1888  0.4494
    2TTP    C1718315  -0.287   8.160   8.693 -0.1034 -0.0876  0.5800
    2TTP    C1818316  -0.308   8.046   8.609 -0.1643  0.0379  0.4234
    2TTP    C3218317  -0.133   7.719   8.531 -0.5261  0.6624 -0.5710
    2TTP    C3318318   0.006   7.741   8.468  0.3140  0.0112 -0.1454
    2TTP    C3418319   0.112   7.627   8.501 -0.2963  0.0763  0.0700
    2TTP    C3518320   0.052   7.483   8.479 -0.2434  0.0626  0.4367
    2TTP    C3618321   0.167   7.382   8.487  1.0271  0.3501  0.0016
    2TTP    C3718322   0.108   7.249   8.452  0.5223  0.3760 -0.9028
    2TTP    C3818323   0.200   7.130   8.459 -0.2883 -0.2558 -0.3865
    2TTP    C3918324   0.147   6.996   8.419 -0.1634  0.4776 -0.1950
    2TTP    C4018325   0.232   6.873   8.460 -0.3263 -0.8863 -0.0930
    2TTP    C4118326   0.171   6.746   8.410  0.0335  0.5557  0.0218
    2TTP    C4218327   0.238   6.621   8.472  0.7019 -0.5625 -0.0440
    3TTP     S118328   0.034   8.852   8.803 -0.0470 -0.0784 -0.0496
    3TTP     S518329  -0.340   8.979   8.632 -0.3130 -0.2108  0.4292
    3TTP     C118330  -0.248   9.126   8.686 -0.3571 -0.1864  0.4386
    3TTP     C218331  -0.128   9.096   8.742 -0.2773 -0.1445  0.2913
    3TTP     C318332  -0.103   8.955   8.744 -0.1788 -0.1292  0.1655
    3TTP     C418333  -0.058   8.705   8.748 -0.0031 -0.1025 -0.0594
    3TTP    C1718334  -0.179   8.735   8.692 -0.0825 -0.1445  0.0880
    3TTP    C1818335  -0.203   8.876   8.690 -0.1812 -0.1595  0.2136
    3TTP    C3218336  -0.038   9.188   8.819 -0.7984 -0.0907  0.5683
    3TTP    C3318337   0.080   9.249   8.736 -0.1012  0.5146 -0.2871
    3TTP    C3418338   0.187   9.323   8.812  0.2795  0.2102 -0.2381
    3TTP    C3518339   0.316   9.345   8.733 -0.7171 -0.5835 -0.5580
    3TTP    C3618340   0.314   9.473   8.647 -0.3491 -0.3979 -0.0467
    3TTP    C3718341   0.358   9.594   8.728 -0.1080  0.0678 -0.0965
    3TTP    C3818342   0.374   9.715   8.630  0.3955  0.2083 -0.3433
    3TTP    C3918343   0.393   9.859   8.692 -0.3985  0.2336 -0.1355
    3TTP    C4018344   0.397   9.977   8.595 -0.2759 -0.2132 -0.5932
    3TTP    C4118345   0.462  10.096   8.664 -0.3461  0.0883  0.3154
    3TTP    C4218346   0.499  10.209   8.574 -0.1144  0.3942  0.7367
    4BIM     F118347  -1.032   7.693   8.030  0.1352 -0.0513 -0.1376
    4BIM     F218348  -0.939   7.442   7.983  0.1650 -0.0316 -0.1829
    4BIM     O118349  -0.623   7.902   8.316  0.0188 -0.1212  0.0808
    4BIM     N518350  -0.513   7.229   8.119  0.1245 -0.0529 -0.0918
    4BIM     N618351  -0.212   7.443   8.352  0.0272 -0.1117  0.0882
    4BIM    C1918352  -0.388   7.736   8.373  0.0055 -0.1272  0.1153
    4BIM    C2018353  -0.495   7.693   8.303  0.0336 -0.1104  0.0622
    4BIM    C2118354  -0.612   7.784   8.278  0.0384 -0.1085  0.0477
    4BIM    C2218355  -0.709   7.707   8.199  0.0715 -0.0883 -0.0134
    4BIM    C2318356  -0.833   7.749   8.152  0.0873 -0.0799 -0.0458
    4BIM    C2418357  -0.908   7.658   8.079  0.1184 -0.0607 -0.1028
    4BIM    C2518358  -0.860   7.528   8.055  0.1338 -0.0505 -0.1260
    4BIM    C2618359  -0.736   7.486   8.102  0.1185 -0.0590 -0.0935
    4BIM    C2718360  -0.659   7.577   8.175  0.0865 -0.0784 -0.0360
    4BIM    C2818361  -0.525   7.563   8.238  0.0641 -0.0914  0.0095
    4BIM    C2918362  -0.445   7.451   8.237  0.0699 -0.0869  0.0038
    4BIM    C3018363  -0.483   7.330   8.172  0.0999 -0.0683 -0.0486
    4BIM    C3118364  -0.317   7.448   8.300  0.0465 -0.1005  0.0503
    5BIM     F118365  -0.987   9.476   8.588  0.1934  0.0112 -0.4334
    5BIM     F218366  -0.859   9.709   8.528  0.3188  0.0269 -0.1070
    5BIM     O118367  -0.565   9.153   8.692 -0.0060 -0.1531 -0.1345
    5BIM     N518368  -0.376   9.814   8.518  0.3572 -0.0672  0.5751
    5BIM     N618369  -0.072   9.514   8.611  0.1762 -0.1988  0.7432
    5BIM    C1918370  -0.294   9.260   8.672  0.0428 -0.1964  0.2835
    5BIM    C2018371  -0.405   9.333   8.649  0.0882 -0.1557  0.1957
    5BIM    C2118372  -0.541   9.270   8.661  0.0589 -0.1357 -0.0198
    5BIM    C2218373  -0.638   9.376   8.628  0.1223 -0.0916 -0.0672
    5BIM    C2318374  -0.777   9.365   8.626  0.1223 -0.0608 -0.2489
    5BIM    C2418375  -0.849   9.479   8.592  0.1893 -0.0208 -0.2583
    5BIM    C2518376  -0.783   9.599   8.561  0.2539 -0.0130 -0.0899
    5BIM    C2618377  -0.645   9.610   8.564  0.2544 -0.0436  0.0918
    5BIM    C2718378  -0.570   9.496   8.598  0.1872 -0.0839  0.1040
    5BIM    C2818379  -0.424   9.474   8.609  0.1686 -0.1230  0.2725
    5BIM    C2918380  -0.325   9.568   8.587  0.2172 -0.1280  0.4628
    5BIM    C3018381  -0.353   9.703   8.549  0.2940 -0.0947  0.5238
    5BIM    C3118382  -0.187   9.538   8.600  0.1941 -0.1667  0.6158
    1BTD     S218383   5.575   1.192   0.584  0.1000  0.1721 -0.0142
    1BTD     N118384   5.499   1.038   0.531  0.0944  0.2055 -0.1041
    1BTD     N218385   5.715   1.112   0.663 -0.0172  0.1121  0.1319
    1BTD     N318386   5.862   0.671   0.731 -0.2654  0.0500  0.2672
    1BTD     N418387   5.595   0.580   0.568 -0.1281  0.1651 -0.0236
    1BTD     C518388   5.552   0.800   0.552 -0.0235  0.1830 -0.0586
    1BTD     C618389   5.577   0.940   0.573  0.0099  0.1719 -0.0247
    1BTD     C718390   5.698   0.981   0.647 -0.0523  0.1196  0.1074
    1BTD     C818391   5.789   0.880   0.697 -0.1450  0.0811  0.1990
    1BTD    C1518392   5.760   0.745   0.673 -0.1746  0.0937  0.1616
    1BTD    C1618393   5.643   0.705   0.602 -0.1147  0.1440  0.0343
    1BTD    C4318394   5.611   0.448   0.639 -0.2159  0.5816 -0.3278
    1BTD    C4418395   5.546   0.414   0.777  0.0574 -0.2258 -0.6931
    1BTD    C4518396   5.390   0.430   0.795  0.3738 -0.2618  0.2839
    1BTD    C4618397   5.296   0.324   0.739 -1.0694  0.0569 -0.1365
    1BTD    C4718398   5.620   0.299   0.845 -0.1907 -0.1974  0.6264
    1BTD    C4818399   5.584   0.268   0.986  0.0071 -0.2989 -0.1664
    1BTD    C4918400   5.484   0.160   1.034  0.3767 -0.0431  0.1641
    1BTD    C5018401   5.505   0.011   0.996  0.1332 -0.2510  0.2560
    1BTD    C7518402   5.904   0.538   0.693 -0.4322  0.3506 -0.5862
    1BTD    C7618403   6.033   0.515   0.610 -0.4468 -0.0108  0.2215
    1BTD    C7718404   6.058   0.365   0.587 -0.2183 -0.0149  0.1002
    1BTD    C7818405   6.075   0.277   0.714 -0.0876  0.3223  0.1125
    1BTD    C7918406   6.042   0.616   0.489  0.2859  0.2130 -0.3880
    1BTD    C8018407   6.178   0.633   0.426 -0.1892  0.1547  0.2060
    1BTD    C8118408   6.309   0.668   0.508 -0.4563  0.0806  0.1708
    1BTD    C8218409   6.309   0.806   0.585 -0.1158 -0.0545 -0.0688
    2TTP     S118410   5.286   0.757   0.404 -0.0093  0.0258  0.1103
    2TTP     S518411   5.364   0.334   0.407  0.1764  0.0589 -0.0165
    2TTP     C118412   5.204   0.363   0.326  0.2307  0.0243 -0.1361
    2TTP     C218413   5.171   0.495   0.320  0.1768  0.0120 -0.1040
    2TTP     C318414   5.270   0.579   0.380  0.0904  0.0295  0.0162
    2TTP     C418415   5.446   0.728   0.485 -0.0635  0.0604  0.2300
    2TTP    C1718416   5.480   0.596   0.491 -0.0096  0.0727  0.1979
    2TTP    C1818417   5.380   0.513   0.431  0.0768  0.0552  0.0776
    2TTP    C3218418   5.046   0.543   0.254  1.3781  0.1607 -0.3486
    2TTP    C3318419   5.060   0.647   0.142  0.0638  0.2926 -0.5417
    2TTP    C3418420   4.937   0.723   0.081  0.2723  0.6579  0.2935
    2TTP    C3518421   4.846   0.804   0.174 -0.7334 -0.2399 -0.3133
    2TTP    C3618422   4.918   0.918   0.259  0.5408  0.7542  0.4329
    2TTP    C3718423   4.877   0.928   0.408 -0.3627  0.4711 -0.8352
    2TTP    C3818424   4.891   0.803   0.502 -0.1866 -0.3632 -0.4184
    2TTP    C3918425   4.782   0.799   0.613  0.4057 -0.7447  0.2859
    2TTP    C4018426   4.638   0.748   0.578 -0.1713 -0.2927  0.1754
    2TTP    C4118427   4.629   0.638   0.475  0.4207 -0.0023  0.4629
    2TTP    C4218428   4.488   0.572   0.476  0.0576  0.4154 -0.0141
    3TTP     S118429   6.020   1.011   0.838  0.2045 -0.0994 -0.2184
    3TTP     S518430   6.177   0.623   0.935 -0.0591 -0.0901  0.2499
    3TTP     C118431   6.290   0.749   1.002 -0.0993 -0.0848  0.3078
    3TTP     C218432   6.248   0.877   0.976 -0.0203 -0.0874  0.1666
    3TTP     C318433   6.125   0.879   0.902  0.0747 -0.0936  0.0076
    3TTP     C418434   5.908   0.884   0.771  0.2446 -0.1047 -0.2763
    3TTP    C1718435   5.950   0.757   0.797  0.1657 -0.1020 -0.1351
    3TTP    C1818436   6.072   0.755   0.871  0.0705 -0.0959  0.0239
    3TTP    C3218437   6.317   1.011   1.015  0.0461  0.3889  0.1437
    3TTP    C3318438   6.231   1.122   1.084  0.1656 -0.0771 -0.4931
    3TTP    C3418439   6.288   1.259   1.094 -0.3198 -0.1106 -0.4984
    3TTP    C3518440   6.205   1.376   1.163 -0.1700 -0.3297 -0.7788
    3TTP    C3618441   6.067   1.414   1.128 -0.1697 -0.6700  0.5595
    3TTP    C3718442   6.035   1.413   0.977 -0.4834  0.0713 -0.0365
    3TTP    C3818443   5.884   1.425   0.954  0.6343 -0.1912 -0.5411
    3TTP    C3918444   5.839   1.430   0.806  0.2717  0.3241  0.1284
    3TTP    C4018445   5.912   1.516   0.695 -0.3690  0.0590 -0.1908
    3TTP    C4118446   5.912   1.667   0.715  0.2465  0.1853  0.1798
    3TTP    C4218447   5.979   1.735   0.599 -0.1104 -0.2040 -0.4389
    4BIM     F118448   5.144  -0.457   0.354  0.0848 -0.0048  0.0086
    4BIM     F218449   4.917  -0.440   0.204  0.0925 -0.0675 -0.0104
    4BIM     O118450   5.279   0.066   0.394  0.0875  0.0114 -0.2104
    4BIM     N518451   4.688  -0.042   0.018  0.1060 -0.1457 -0.1938
    4BIM     N618452   4.840   0.362   0.080  0.1066 -0.1202 -0.3611
    4BIM    C1918453   5.111   0.268   0.266  0.0962 -0.0425 -0.3063
    4BIM    C2018454   5.086   0.136   0.261  0.0952 -0.0442 -0.2505
    4BIM    C2118455   5.177   0.038   0.330  0.0906 -0.0154 -0.2035
    4BIM    C2218456   5.121  -0.096   0.306  0.0907 -0.0255 -0.1484
    4BIM    C2318457   5.171  -0.218   0.349  0.0874 -0.0069 -0.0930
    4BIM    C2418458   5.100  -0.332   0.314  0.0879 -0.0217 -0.0474
    4BIM    C2518459   4.983  -0.323   0.237  0.0920 -0.0540 -0.0573
    4BIM    C2618460   4.933  -0.202   0.193  0.0955 -0.0725 -0.1125
    4BIM    C2718461   5.003  -0.085   0.228  0.0949 -0.0579 -0.1592
    4BIM    C2818462   4.977   0.058   0.197  0.0978 -0.0708 -0.2223
    4BIM    C2918463   4.872   0.108   0.124  0.1019 -0.1014 -0.2494
    4BIM    C3018464   4.771   0.025   0.066  0.1042 -0.1256 -0.2187
    4BIM    C3118465   4.855   0.248   0.100  0.1047 -0.1116 -0.3107
    5BIM     F118466   6.761   0.116   1.248  0.0062  0.0440  0.0118
    5BIM     F218467   6.920   0.294   1.379  0.0956  0.0872 -0.1540
    5BIM     O118468   6.391   0.449   1.033 -0.1028 -0.0201  0.0994
    5BIM     N518469   6.885   0.786   1.415  0.1464  0.1037 -0.3299
    5BIM     N618470   6.564   1.010   1.221  0.0433  0.0449 -0.2280
    5BIM    C1918471   6.412   0.737   1.082 -0.0560 -0.0016 -0.0279
    5BIM    C2018472   6.499   0.646   1.131 -0.0323  0.0129 -0.0435
    5BIM    C2118473   6.481   0.500   1.102 -0.0588  0.0020  0.0252
    5BIM    C2218474   6.592   0.430   1.170 -0.0221  0.0226 -0.0128
    5BIM    C2318475   6.618   0.293   1.171 -0.0293  0.0216  0.0262
    5BIM    C2418476   6.729   0.250   1.242  0.0107  0.0437 -0.0229
    5BIM    C2518477   6.811   0.342   1.310  0.0568  0.0659 -0.1083
    5BIM    C2618478   6.785   0.479   1.309  0.0645  0.0670 -0.1476
    5BIM    C2718479   6.673   0.524   1.237  0.0241  0.0449 -0.0990
    5BIM    C2818480   6.619   0.660   1.216  0.0197  0.0398 -0.1212
    5BIM    C2918481   6.671   0.778   1.267  0.0567  0.0568 -0.1989
    5BIM    C3018482   6.789   0.782   1.348  0.1060  0.0825 -0.2707
    5BIM    C3118483   6.612   0.905   1.241  0.0491  0.0501 -0.2145
    1BTD     S218484   3.309   8.769   0.367  0.2237  0.1837  0.1023
    1BTD     N118485   3.461   8.857   0.408  0.1076  0.2873  0.3131
    1BTD     N218486   3.231   8.911   0.289  0.2537  0.1171 -0.0492
    1BTD     N318487   3.344   9.359   0.203  0.1048  0.1683  0.0226
    1BTD     N418488   3.627   9.293   0.350 -0.0750  0.3781  0.4690
    1BTD     C518489   3.544   9.085   0.376  0.0144  0.3321  0.3891
    1BTD     C618490   3.446   8.981   0.363  0.0976  0.2677  0.2623
    1BTD     C718491   3.317   9.011   0.297  0.1794  0.1729  0.0595
    1BTD     C818492   3.293   9.144   0.246  0.1737  0.1464 -0.0064
    1BTD    C1518493   3.393   9.243   0.260  0.0909  0.2118  0.1229
    1BTD    C1618494   3.517   9.214   0.325  0.0122  0.3035  0.3183
    1BTD    C4318495   3.619   9.431   0.400  0.1465 -0.1424 -0.4575
    1BTD    C4418496   3.740   9.528   0.408  0.6446  0.2911 -0.1315
    1BTD    C4518497   3.707   9.658   0.493  0.1329 -0.4333  0.2119
    1BTD    C4618498   3.699   9.634   0.644  0.0775 -0.4834  0.2223
    1BTD    C4718499   3.769   9.572   0.265 -0.3444 -0.2644  0.1861
    1BTD    C4818500   3.881   9.671   0.227  0.5455  0.3300  0.2093
    1BTD    C4918501   3.932   9.674   0.083  0.6298  0.0720 -0.3655
    1BTD    C5018502   3.986   9.537   0.038 -0.0604  0.3397 -0.4351
    1BTD    C7518503   3.435   9.446   0.123 -0.4218 -0.3265 -0.1673
    1BTD    C7618504   3.399   9.591   0.092  0.1916  0.0892 -0.0019
    1BTD    C7718505   3.376   9.666   0.224 -0.0553 -0.1426  0.2310
    1BTD    C7818506   3.377   9.823   0.217  0.2321  0.1242  0.3564
    1BTD    C7918507   3.497   9.655  -0.005 -0.5381 -0.0694  0.5739
    1BTD    C8018508   3.535   9.600  -0.145  0.2761 -0.1396 -0.1661
    1BTD    C8118509   3.436   9.600  -0.262  0.2863 -0.8296 -0.2458
    1BTD    C8218510   3.402   9.742  -0.300 -0.1743 -0.1837 -0.2111
    2TTP     S118511   3.803   8.964   0.473 -0.1121  0.0495  0.2435
    2TTP     S518512   3.996   9.338   0.384 -0.1431  0.0222  0.0619
    2TTP     C118513   4.123   9.215   0.427 -0.1363  0.0658  0.1665
    2TTP     C218514   4.071   9.093   0.457 -0.1262  0.0770  0.2287
    2TTP     C318515   3.929   9.091   0.447 -0.1237  0.0510  0.1961
    2TTP     C418516   3.675   9.086   0.430 -0.1191  0.0057  0.1389
    2TTP    C1718517   3.727   9.209   0.400 -0.1291 -0.0053  0.0767
    2TTP    C1818518   3.870   9.210   0.410 -0.1316  0.0200  0.1093
    2TTP    C3218519   4.148   8.964   0.491 -0.4601  0.1399 -0.7440
    2TTP    C3318520   4.115   8.881   0.616  0.0269  0.4027 -0.1695
    2TTP    C3418521   4.210   8.759   0.617  0.1915  0.5687  0.3276
    2TTP    C3518522   4.201   8.661   0.738 -0.7316  0.4623 -0.6831
    2TTP    C3618523   4.067   8.582   0.765  0.2394 -1.2342 -0.1428
    2TTP    C3718524   4.079   8.503   0.893  0.1246  0.1006  0.5272
    2TTP    C3818525   3.949   8.443   0.950 -0.0965  0.5698  0.2653
    2TTP    C3918526   3.951   8.318   1.035  0.2028  0.0316 -0.0128
    2TTP    C4018527   4.051   8.319   1.147 -0.9510  0.0010  0.7723
    2TTP    C4118528   4.105   8.180   1.176  0.0087 -0.4519 -0.4605
    2TTP    C4218529   4.210   8.183   1.287 -1.0081 -0.1780  0.3546
    3TTP     S118530   3.008   9.165   0.156 -0.1420  0.1028 -0.1777
    3TTP     S518531   3.065   9.583   0.072 -0.2431  0.1163 -0.1802
    3TTP     C118532   2.890   9.542   0.044 -0.2710  0.1142 -0.0041
    3TTP     C218533   2.862   9.410   0.068 -0.2414  0.1101  0.0070
    3TTP     C318534   2.978   9.338   0.110 -0.1956  0.1082 -0.1231
    3TTP     C418535   3.183   9.207   0.184 -0.1140  0.1047 -0.3538
    3TTP    C1718536   3.211   9.338   0.159 -0.1437  0.1091 -0.3650
    3TTP    C1818537   3.095   9.411   0.118 -0.1894  0.1111 -0.2348
    3TTP    C3218538   2.728   9.341   0.067 -0.4368 -0.1122  0.0368
    3TTP    C3318539   2.647   9.307   0.193  0.1353 -0.6058  0.0900
    3TTP    C3418540   2.595   9.428   0.267  0.2155  0.1636 -0.1324
    3TTP    C3518541   2.515   9.522   0.181  0.0846  0.3243 -0.2895
    3TTP    C3618542   2.460   9.649   0.239  0.1611  0.2507  0.2734
    3TTP    C3718543   2.353   9.709   0.148  0.4144  0.5428 -0.2786
    3TTP    C3818544   2.254   9.808   0.222 -0.2882  1.1180  0.9505
    3TTP    C3918545   2.148   9.868   0.131 -0.4857  0.6379  0.3362
    3TTP    C4018546   2.187   9.919  -0.009 -0.4865  0.0108  0.3187
    3TTP    C4118547   2.062   9.903  -0.104 -0.0733  0.0750 -0.5904
    3TTP    C4218548   2.091   9.945  -0.249 -0.1418  0.0576  0.7268
    4BIM     F118549   4.604   9.863   0.258 -0.1248  0.1221 -0.0187
    4BIM     F218550   4.796   9.751   0.415 -0.1889  0.3479  0.2233
    4BIM     O118551   4.218   9.483   0.284  0.1171 -0.1338 -0.1532
    4BIM     N518552   4.799   9.320   0.658 -0.1087  0.4907  0.4753
    4BIM     N618553   4.459   9.046   0.646  0.0933  0.2451  0.3214
    4BIM    C1918554   4.265   9.242   0.443  0.1418 -0.0087  0.0302
    4BIM    C2018555   4.355   9.342   0.430  0.0834  0.0467  0.0546
    4BIM    C2118556   4.323   9.463   0.347  0.0744 -0.0238 -0.0446
    4BIM    C2218557   4.441   9.551   0.355  0.0058  0.0637  0.0128
    4BIM    C2318558   4.459   9.675   0.294 -0.0254  0.0408 -0.0427
    4BIM    C2418559   4.579   9.740   0.316 -0.0911  0.1383  0.0303
    4BIM    C2518560   4.679   9.682   0.396 -0.1238  0.2545  0.1550
    4BIM    C2618561   4.662   9.558   0.457 -0.0931  0.2780  0.2110
    4BIM    C2718562   4.540   9.491   0.436 -0.0267  0.1805  0.1385
    4BIM    C2818563   4.491   9.360   0.486  0.0198  0.1750  0.1691
    4BIM    C2918564   4.559   9.273   0.568  0.0062  0.2697  0.2821
    4BIM    C3018565   4.691   9.299   0.617 -0.0570  0.3908  0.3879
    4BIM    C3118566   4.503   9.148   0.610  0.0542  0.2561  0.3031
    5BIM     F118567   2.806  10.350  -0.059  0.1345  0.0051 -0.1338
    5BIM     F218568   2.596  10.299  -0.225  0.0175  0.1169 -0.0196
    5BIM     O118569   2.943   9.847   0.089 -0.0145 -0.0712 -0.2546
    5BIM     N518570   2.391   9.869  -0.357 -0.2569  0.2233  0.0591
    5BIM     N618571   2.540   9.486  -0.208 -0.3497  0.1411 -0.0587
    5BIM    C1918572   2.790   9.620  -0.017 -0.1792  0.0085 -0.1885
    5BIM    C2018573   2.764   9.749  -0.047 -0.1371  0.0233 -0.1621
    5BIM    C2118574   2.847   9.860   0.011 -0.0528 -0.0201 -0.1996
    5BIM    C2218575   2.792   9.986  -0.043 -0.0249  0.0101 -0.1576
    5BIM    C2318576   2.836  10.115  -0.018  0.0497 -0.0124 -0.1707
    5BIM    C2418577   2.768  10.219  -0.080  0.0622  0.0245 -0.1233
    5BIM    C2518578   2.660  10.193  -0.165  0.0018  0.0821 -0.0645
    5BIM    C2618579   2.616  10.064  -0.191 -0.0727  0.1048 -0.0505
    5BIM    C2718580   2.683   9.958  -0.129 -0.0864  0.0681 -0.0982
    5BIM    C2818581   2.662   9.811  -0.135 -0.1578  0.0786 -0.0989
    5BIM    C2918582   2.565   9.745  -0.208 -0.2295  0.1296 -0.0501
    5BIM    C3018583   2.470   9.813  -0.290 -0.2443  0.1810  0.0098
    5BIM    C3118584   2.552   9.603  -0.207 -0.2952  0.1357 -0.0551
    1BTD     S218585   6.314   5.536   6.836  0.1337  0.1901  0.1195
    1BTD     N118586   6.474   5.610   6.869  0.1428  0.0464  0.4026
    1BTD     N218587   6.379   5.371   6.810  0.0899  0.2358 -0.3028
    1BTD     N318588   6.802   5.167   6.818  0.0172  0.0695 -0.6521
    1BTD     N418589   6.920   5.462   6.890  0.0824 -0.1638  0.2171
    1BTD     C518590   6.705   5.530   6.879  0.1105 -0.0606  0.2953
    1BTD     C618591   6.564   5.513   6.860  0.1143  0.0403  0.1793
    1BTD     C718592   6.511   5.379   6.827  0.0846  0.1463 -0.2155
    1BTD     C818593   6.602   5.268   6.815  0.0527  0.1462 -0.4747
    1BTD    C1518594   6.739   5.289   6.835  0.0502  0.0454 -0.3487
    1BTD    C1618595   6.791   5.418   6.867  0.0787 -0.0566  0.0317
    1BTD    C4318596   7.038   5.378   6.902  0.1273  0.0477  0.0796
    1BTD    C4418597   7.124   5.392   7.029 -0.2042 -0.2400 -0.4359
    1BTD    C4518598   7.263   5.342   7.027 -0.2905  0.0852  0.5292
    1BTD    C4618599   7.366   5.392   6.927  0.8501 -0.5285 -0.4690
    1BTD    C4718600   7.046   5.335   7.153 -0.2409  0.0160  0.4980
    1BTD    C4818601   7.087   5.345   7.301  0.6018 -0.6653 -0.4758
    1BTD    C4918602   7.115   5.489   7.350 -0.1821 -0.0336 -0.4223
    1BTD    C5018603   7.132   5.508   7.503  0.2116 -0.0096 -0.1353
    1BTD    C7518604   6.919   5.145   6.732 -0.0347  0.1506 -0.5526
    1BTD    C7618605   7.006   5.022   6.720 -0.0354 -0.1454 -0.8320
    1BTD    C7718606   7.087   5.000   6.853  0.7890  0.2003  0.0127
    1BTD    C7818607   7.160   4.866   6.866 -0.5639 -0.0551  0.0621
    1BTD    C7918608   7.079   5.001   6.589 -0.0855  0.7024  0.1121
    1BTD    C8018609   6.978   4.987   6.472 -0.8744  0.4796  0.8472
    1BTD    C8118610   7.039   4.982   6.328  0.3150  0.2237 -0.9775
    1BTD    C8218611   6.934   4.947   6.225  0.3994  0.1089  0.4022
    2TTP     S118612   6.779   5.826   6.901 -0.0372 -0.0577 -0.3918
    2TTP     S518613   7.194   5.712   6.905  0.0225  0.1783  0.5817
    2TTP     C118614   7.184   5.893   6.904 -0.0791  0.1730  0.2267
    2TTP     C218615   7.055   5.939   6.903 -0.1035  0.0998 -0.0949
    2TTP     C318616   6.960   5.833   6.902 -0.0428  0.0454 -0.0724
    2TTP     C418617   6.789   5.644   6.901  0.0645 -0.0523 -0.0368
    2TTP    C1718618   6.918   5.598   6.903  0.0890  0.0209  0.2847
    2TTP    C1818619   7.013   5.705   6.903  0.0283  0.0752  0.2625
    2TTP    C3218620   6.999   6.082   6.907 -0.2872  0.4840  0.0801
    2TTP    C3318621   6.946   6.148   7.037  0.0702 -0.3217  0.0673
    2TTP    C3418622   6.844   6.262   7.001 -0.2068 -0.1218 -0.0371
    2TTP    C3518623   6.808   6.347   7.119  0.0898  1.4191  0.4094
    2TTP    C3618624   6.739   6.290   7.250 -1.0804 -0.5686  0.8250
    2TTP    C3718625   6.615   6.199   7.244 -0.2234 -0.3259 -0.0566
    2TTP    C3818626   6.509   6.233   7.147  0.2361  0.3761  0.2437
    2TTP    C3918627   6.430   6.366   7.171 -0.2556 -0.2884  0.9490
    2TTP    C4018628   6.353   6.388   7.300  0.1713 -0.5487 -0.3330
    2TTP    C4118629   6.328   6.533   7.327  0.4245  0.0841  0.5369
    2TTP    C4218630   6.258   6.569   7.460 -0.9996  0.1167  0.4471
    3TTP     S118631   6.441   5.018   6.803 -0.0189 -0.1963 -0.0264
    3TTP     S518632   6.799   4.794   6.883  0.1243 -0.0656 -0.2995
    3TTP     C118633   6.656   4.684   6.904  0.1835 -0.1306 -0.2380
    3TTP     C218634   6.537   4.746   6.880  0.1427 -0.1749 -0.1497
    3TTP     C318635   6.554   4.884   6.845  0.0633 -0.1589 -0.1280
    3TTP     C418636   6.584   5.128   6.782 -0.0778 -0.1314 -0.0880
    3TTP    C1718637   6.703   5.065   6.805 -0.0372 -0.0870 -0.1760
    3TTP    C1818638   6.685   4.928   6.841  0.0422 -0.1030 -0.1980
    3TTP    C3218639   6.393   4.697   6.889  0.1946 -0.0190 -0.0319
    3TTP    C3318640   6.331   4.664   6.751  0.1526  0.1117 -0.1189
    3TTP    C3418641   6.195   4.600   6.773  0.2523 -0.1652  0.0168
    3TTP    C3518642   6.145   4.540   6.642 -0.5781  0.0186 -0.0029
    3TTP    C3618643   6.221   4.416   6.595  0.0490 -0.5643 -0.4213
    3TTP    C3718644   6.167   4.366   6.468 -0.4446  0.5513  0.3759
    3TTP    C3818645   6.254   4.246   6.426 -0.3447 -0.1581  0.4809
    3TTP    C3918646   6.168   4.149   6.336 -0.2733  0.4838  0.1114
    3TTP    C4018647   6.243   4.032   6.263  0.0927  0.7715 -0.3352
    3TTP    C4118648   6.149   3.936   6.186  0.3229 -0.4640 -0.3055
    3TTP    C4218649   6.227   3.834   6.114 -0.3030  0.0778  0.3336
    4BIM     F118650   7.990   5.776   6.769  0.0966  0.2315 -0.5832
    4BIM     F218651   8.032   6.038   6.826  0.0463  0.1122  0.0114
    4BIM     O118652   7.453   5.744   6.823  0.1053  0.0001 -0.6317
    4BIM     N518653   7.710   6.393   6.948 -0.0197 -0.2245  0.8321
    4BIM     N618654   7.281   6.315   6.979 -0.0026 -0.3811  0.6745
    4BIM    C1918655   7.302   5.983   6.898  0.0605 -0.1961 -0.0805
    4BIM    C2018656   7.435   5.981   6.882  0.0602 -0.1332 -0.0917
    4BIM    C2118657   7.506   5.854   6.843  0.0840 -0.0336 -0.3836
    4BIM    C2218658   7.649   5.887   6.835  0.0771  0.0154 -0.3159
    4BIM    C2318659   7.754   5.801   6.802  0.0929  0.1091 -0.5152
    4BIM    C2418660   7.882   5.855   6.800  0.0821  0.1398 -0.3988
    4BIM    C2518661   7.903   5.990   6.830  0.0560  0.0780 -0.0923
    4BIM    C2618662   7.799   6.076   6.862  0.0403 -0.0155  0.1079
    4BIM    C2718663   7.669   6.024   6.865  0.0510 -0.0477 -0.0057
    4BIM    C2818664   7.538   6.087   6.895  0.0395 -0.1415  0.1442
    4BIM    C2918665   7.517   6.219   6.929  0.0148 -0.2210  0.4442
    4BIM    C3018666   7.623   6.314   6.939 -0.0042 -0.2226  0.6564
    4BIM    C3118667   7.387   6.271   6.956  0.0052 -0.3085  0.5691
    5BIM     F118668   7.237   4.165   7.164  0.0197 -0.0174  0.1664
    5BIM     F218669   7.045   3.973   7.190  0.1191 -0.2092 -0.5014
    5BIM     O118670   6.942   4.581   6.981 -0.0184  0.1547  0.6158
    5BIM     N518671   6.560   3.994   7.095  0.2348 -0.3620 -1.1411
    5BIM     N618672   6.368   4.357   6.947  0.1853 -0.1887 -0.6554
    5BIM    C1918673   6.654   4.545   6.940  0.0632  0.0327  0.1376
    5BIM    C2018674   6.736   4.448   6.985  0.0688 -0.0031  0.0507
    5BIM    C2118675   6.883   4.474   7.004  0.0252  0.0644  0.3109
    5BIM    C2218676   6.942   4.348   7.054  0.0441  0.0019  0.1323
    5BIM    C2318677   7.075   4.323   7.086  0.0174  0.0312  0.2681
    5BIM    C2418678   7.107   4.196   7.131  0.0437 -0.0414  0.0490
    5BIM    C2518679   7.008   4.098   7.144  0.0949 -0.1400 -0.2948
    5BIM    C2618680   6.875   4.122   7.112  0.1218 -0.1700 -0.4321
    5BIM    C2718681   6.841   4.250   7.066  0.0960 -0.0975 -0.2143
    5BIM    C2818682   6.710   4.307   7.025  0.1132 -0.1044 -0.2782
    5BIM    C2918683   6.589   4.242   7.023  0.1609 -0.1887 -0.5836
    5BIM    C3018684   6.573   4.106   7.063  0.2016 -0.2836 -0.8891
    5BIM    C3118685   6.468   4.306   6.981  0.1740 -0.1882 -0.6213
    1BTD     S218686   6.621   4.453   8.865 -0.0665 -0.0815 -0.2340
    1BTD     N118687   6.757   4.454   8.983 -0.2731  0.1318  0.0033
    1BTD     N218688   6.559   4.292   8.915  0.1240 -0.1992 -0.3726
    1BTD     N318689   6.678   3.966   9.232  0.1385 -0.0530 -0.2277
    1BTD     N418690   6.921   4.166   9.315 -0.3507  0.3548  0.2360
    1BTD     C518691   6.840   4.301   9.155 -0.3077  0.2433  0.1192
    1BTD     C618692   6.749   4.340   9.051 -0.1937  0.1059 -0.0315
    1BTD     C718693   6.639   4.250   9.013  0.0285 -0.0793 -0.2420
    1BTD     C818694   6.624   4.124   9.081  0.1255 -0.1179 -0.2913
    1BTD    C1518695   6.715   4.090   9.183  0.0079  0.0207 -0.1393
    1BTD    C1618696   6.822   4.177   9.220 -0.2062  0.1993  0.0641
    1BTD    C4318697   6.984   4.035   9.350 -0.1964 -0.5718 -0.0424
    1BTD    C4418698   7.068   3.992   9.471  0.0279  0.7112  0.5405
    1BTD    C4518699   7.111   3.847   9.454 -0.0978 -0.4641 -0.5680
    1BTD    C4618700   7.205   3.816   9.334  0.1629  0.0658 -0.2622
    1BTD    C4718701   7.010   4.028   9.605  0.0885  1.2094 -0.1154
    1BTD    C4818702   7.103   4.022   9.728 -0.7701 -0.2926  0.4732
    1BTD    C4918703   7.046   4.041   9.862  0.6163 -0.5053 -0.4688
    1BTD    C5018704   7.146   4.011   9.970 -0.6938  0.1033 -0.4810
    1BTD    C7518705   6.679   3.918   9.378  1.5169 -0.1341 -0.1204
    1BTD    C7618706   6.678   3.766   9.413 -0.7836  0.4596 -0.4156
    1BTD    C7718707   6.806   3.700   9.368 -0.1953  0.1252  0.4825
    1BTD    C7818708   6.823   3.553   9.404  0.1790 -0.6949 -0.4665
    1BTD    C7918709   6.635   3.755   9.563  0.2457 -0.0500 -0.0314
    1BTD    C8018710   6.734   3.784   9.678 -0.3444  0.3362  0.1112
    1BTD    C8118711   6.689   3.702   9.798 -0.2995 -0.2002 -0.0679
    1BTD    C8218712   6.804   3.681   9.905 -0.0548  0.2838  0.2001
    2TTP     S118713   7.047   4.514   9.193  0.2067 -0.2122  0.0941
    2TTP     S518714   7.234   4.289   9.508  0.0241 -0.1156  0.2718
    2TTP     C118715   7.329   4.442   9.482  0.0269 -0.1133  0.2951
    2TTP     C218716   7.277   4.521   9.383  0.0834 -0.1432  0.2415
    2TTP     C318717   7.160   4.463   9.324  0.1266 -0.1687  0.1802
    2TTP     C418718   6.952   4.361   9.220  0.2040 -0.2146  0.0706
    2TTP    C1718719   7.004   4.283   9.318  0.1473 -0.1850  0.1240
    2TTP    C1818720   7.121   4.341   9.377  0.1041 -0.1591  0.1857
    2TTP    C3218721   7.341   4.651   9.325  0.0929 -0.0805 -0.0789
    2TTP    C3318722   7.251   4.777   9.307 -0.4428 -0.0128 -0.0623
    2TTP    C3418723   7.303   4.870   9.199  0.3063 -0.3834 -0.5694
    2TTP    C3518724   7.198   4.977   9.164 -0.1306  0.2893 -0.2718
    2TTP    C3618725   7.252   5.067   9.053  0.5296 -0.1379  0.4097
    2TTP    C3718726   7.167   5.188   9.035  0.2246  0.6431 -0.7802
    2TTP    C3818727   7.138   5.222   8.892  0.2090  0.3925  0.5513
    2TTP    C3918728   7.069   5.355   8.882  0.0156  0.5774 -0.0881
    2TTP    C4018729   7.074   5.431   8.746  0.8142  0.4311 -0.5703
    2TTP    C4118730   6.998   5.565   8.736 -0.0054  0.2391  0.1228
    2TTP    C4218731   6.848   5.561   8.760 -0.6320  0.4036  0.1898
    3TTP     S118732   6.400   3.966   8.959  0.2143 -0.2014  0.0131
    3TTP     S518733   6.517   3.626   9.194 -0.3059 -0.2453  0.2122
    3TTP     C118734   6.387   3.574   9.078 -0.2239 -0.1667  0.0841
    3TTP     C218735   6.343   3.676   8.998 -0.0582 -0.1485  0.0150
    3TTP     C318736   6.411   3.799   9.026  0.0097 -0.1959  0.0606
    3TTP     C418737   6.530   4.018   9.075  0.1323 -0.2800  0.1409
    3TTP    C1718738   6.574   3.916   9.154 -0.0332 -0.2982  0.2099
    3TTP    C1818739   6.506   3.793   9.126 -0.1011 -0.2507  0.1640
    3TTP    C3218740   6.225   3.682   8.899  0.2030  0.2585 -0.1834
    3TTP    C3318741   6.103   3.777   8.909  0.3076 -0.2542 -0.4844
    3TTP    C3418742   6.040   3.781   9.048  0.1942 -0.0689  0.2333
    3TTP    C3518743   5.992   3.662   9.124  0.0604  0.0843  0.4095
    3TTP    C3618744   5.887   3.582   9.041 -0.1671  0.2503  0.5034
    3TTP    C3718745   5.818   3.463   9.113 -0.1688  0.3154  0.6322
    3TTP    C3818746   5.748   3.476   9.252 -0.9439 -0.1225  0.7258
    3TTP    C3918747   5.654   3.595   9.284  0.2141 -0.3583  0.0406
    3TTP    C4018748   5.569   3.562   9.412  0.4737  0.1083  0.2166
    3TTP    C4118749   5.447   3.646   9.463 -0.1206 -0.4204  0.9079
    3TTP    C4218750   5.335   3.673   9.360  0.2465  0.3401  0.4118
    4BIM     F118751   7.790   4.131  10.087 -0.0571 -0.0432 -0.0477
    4BIM     F218752   7.914   4.372  10.107 -0.0097 -0.0707 -0.0083
    4BIM     O118753   7.446   4.227   9.680 -0.0477  0.0947 -0.0231
    4BIM     N518754   7.847   4.788   9.848  0.0653 -0.0125  0.0658
    4BIM     N618755   7.553   4.815   9.526  0.0632  0.1007  0.0771
    4BIM    C1918756   7.442   4.492   9.556  0.0012  0.1173  0.0232
    4BIM    C2018757   7.523   4.458   9.657 -0.0032  0.0836  0.0155
    4BIM    C2118758   7.520   4.320   9.716 -0.0286  0.0740 -0.0086
    4BIM    C2218759   7.621   4.317   9.823 -0.0267  0.0356 -0.0113
    4BIM    C2318760   7.654   4.211   9.906 -0.0457  0.0148 -0.0307
    4BIM    C2418761   7.753   4.232  10.001 -0.0393 -0.0211 -0.0291
    4BIM    C2518762   7.816   4.356  10.012 -0.0149 -0.0352 -0.0088
    4BIM    C2618763   7.784   4.463   9.929  0.0039 -0.0144  0.0106
    4BIM    C2718764   7.684   4.444   9.833 -0.0021  0.0218  0.0094
    4BIM    C2818765   7.627   4.535   9.731  0.0135  0.0507  0.0266
    4BIM    C2918766   7.663   4.666   9.709  0.0386  0.0474  0.0487
    4BIM    C3018767   7.764   4.733   9.786  0.0530  0.0145  0.0581
    4BIM    C3118768   7.602   4.747   9.609  0.0520  0.0770  0.0642
    5BIM     F118769   6.580   2.851   9.409 -0.3748  0.0688  0.2091
    5BIM     F218770   6.373   2.739   9.272 -0.0260  0.0533 -0.3114
    5BIM     O118771   6.539   3.367   9.249 -0.2599  0.1442  0.4225
    5BIM     N518772   6.047   2.945   8.962  0.5572  0.0846 -0.9081
    5BIM     N618773   6.057   3.370   8.865  0.5765  0.1466 -0.6371
    5BIM    C1918774   6.327   3.443   9.062  0.1140  0.1561  0.0001
    5BIM    C2018775   6.345   3.317   9.107  0.0716  0.1377 -0.0329
    5BIM    C2118776   6.457   3.286   9.204 -0.1240  0.1328  0.1936
    5BIM    C2218777   6.448   3.142   9.232 -0.1216  0.1117  0.0904
    5BIM    C2318778   6.530   3.067   9.316 -0.2701  0.1005  0.2267
    5BIM    C2418779   6.502   2.932   9.328 -0.2339  0.0808  0.0868
    5BIM    C2518780   6.396   2.874   9.257 -0.0542  0.0730 -0.1816
    5BIM    C2618781   6.314   2.948   9.173  0.0948  0.0840 -0.3192
    5BIM    C2718782   6.340   3.085   9.161  0.0608  0.1040 -0.1807
    5BIM    C2818783   6.273   3.191   9.081  0.1866  0.1196 -0.2666
    5BIM    C2918784   6.164   3.174   8.999  0.3740  0.1177 -0.5159
    5BIM    C3018785   6.100   3.048   8.979  0.4740  0.0995 -0.7305
    5BIM    C3118786   6.105   3.282   8.926  0.4842  0.1336 -0.5810
    1BTD     S218787   4.126   6.703   0.892 -0.0482 -0.1321 -0.1148
    1BTD     N118788   4.292   6.683   0.960 -0.2123 -0.0114  0.3279
    1BTD     N218789   4.151   6.874   0.844  0.1140 -0.2593 -0.4887
    1BTD     N318790   4.500   7.187   0.867  0.1482 -0.3000 -0.4512
    1BTD     N418791   4.673   6.952   1.011 -0.2540  0.0052  0.5550
    1BTD     C518792   4.489   6.826   0.985 -0.2294 -0.0064  0.4343
    1BTD     C618793   4.353   6.799   0.944 -0.1415 -0.0691  0.1818
    1BTD     C718794   4.275   6.906   0.879  0.0412 -0.2079 -0.2753
    1BTD     C818795   4.335   7.035   0.858  0.1270 -0.2768 -0.4570
    1BTD    C1518796   4.468   7.057   0.899  0.0359 -0.2116 -0.1975
    1BTD    C1618797   4.544   6.954   0.962 -0.1400 -0.0778  0.2429
    1BTD    C4318798   4.738   7.064   1.081  0.2855 -0.6866  0.3483
    1BTD    C4418799   4.885   7.075   1.109  0.1027  0.6489  0.2910
    1BTD    C4518800   4.927   7.183   1.204 -0.1197  0.2248  0.1858
    1BTD    C4618801   4.893   7.173   1.355  0.2650 -0.3187 -0.1497
    1BTD    C4718802   4.949   7.101   0.974 -0.4983 -0.2947  0.2156
    1BTD    C4818803   5.085   7.042   0.947  0.6654 -0.0521 -0.3571
    1BTD    C4918804   5.135   7.074   0.805  0.0246  0.6856 -0.5879
    1BTD    C5018805   5.286   7.037   0.794  0.6007 -0.6750 -1.1718
    1BTD    C7518806   4.635   7.226   0.817 -0.1020  0.0317  0.1851
    1BTD    C7618807   4.708   7.356   0.812  0.2370  0.3179 -0.3976
    1BTD    C7718808   4.722   7.430   0.948  0.4475 -0.5037 -0.5448
    1BTD    C7818809   4.764   7.577   0.945  0.2165 -0.1589 -0.0057
    1BTD    C7918810   4.840   7.352   0.729 -0.4360 -0.5521  0.5154
    1BTD    C8018811   4.866   7.279   0.594 -0.2007 -0.5048 -0.5077
    1BTD    C8118812   4.997   7.312   0.528 -0.1070  0.2952  0.4190
    1BTD    C8218813   5.026   7.447   0.467  0.1958  0.3064 -0.3556
    2TTP     S118814   4.599   6.578   1.108 -0.1581 -0.0250  0.2951
    2TTP     S518815   4.988   6.761   1.120 -0.0333 -0.2379 -0.4120
    2TTP     C118816   5.003   6.590   1.181 -0.0850 -0.1293 -0.0891
    2TTP     C218817   4.883   6.524   1.180 -0.1267 -0.0571  0.1482
    2TTP     C318818   4.776   6.605   1.132 -0.1192 -0.0851  0.0837
    2TTP     C418819   4.585   6.749   1.047 -0.1065 -0.1336 -0.0277
    2TTP    C1718820   4.704   6.816   1.047 -0.0647 -0.2060 -0.2650
    2TTP    C1818821   4.811   6.734   1.095 -0.0724 -0.1779 -0.2006
    2TTP    C3218822   4.863   6.381   1.237  0.5024  0.5971  0.4827
    2TTP    C3318823   4.737   6.356   1.320  0.1294 -0.2943 -0.4045
    2TTP    C3418824   4.700   6.208   1.354 -0.0446  0.1059  0.2385
    2TTP    C3518825   4.646   6.132   1.226  0.1904  0.1509 -1.2157
    2TTP    C3618826   4.614   5.987   1.259 -0.0297 -0.4112 -0.3552
    2TTP    C3718827   4.531   5.917   1.149  0.1684  0.1182  0.2639
    2TTP    C3818828   4.378   5.942   1.132  0.5221  0.3485  0.1758
    2TTP    C3918829   4.283   5.934   1.255 -0.7780 -0.8054  0.4171
    2TTP    C4018830   4.141   5.966   1.212 -0.1375  0.3502  0.0663
    2TTP    C4118831   4.044   5.997   1.317  0.2986  0.0324 -0.8792
    2TTP    C4218832   3.909   6.031   1.252 -0.2429  0.1554  0.8294
    3TTP     S118833   4.128   7.230   0.756 -0.1473 -0.0413 -0.4806
    3TTP     S518834   4.404   7.554   0.816 -0.2751 -0.0463  0.1536
    3TTP     C118835   4.244   7.623   0.763 -0.1593 -0.0421 -0.1935
    3TTP     C218836   4.150   7.527   0.741 -0.1128 -0.0402 -0.4098
    3TTP     C318837   4.200   7.396   0.766 -0.1674 -0.0422 -0.3092
    3TTP     C418838   4.287   7.161   0.810 -0.2632 -0.0454 -0.1336
    3TTP    C1718839   4.382   7.257   0.831 -0.3097 -0.0474  0.0828
    3TTP    C1818840   4.332   7.389   0.806 -0.2553 -0.0453 -0.0178
    3TTP    C3218841   3.999   7.534   0.709  0.5561 -0.4732  0.6671
    3TTP    C3318842   3.906   7.531   0.833  0.9725 -0.7833  0.1434
    3TTP    C3418843   3.766   7.588   0.809 -0.4278  0.2578 -0.2016
    3TTP    C3518844   3.768   7.740   0.797 -0.0585 -0.3272  0.4022
    3TTP    C3618845   3.661   7.816   0.721 -0.4038 -0.0103 -0.4185
    3TTP    C3718846   3.525   7.785   0.784 -0.0377 -0.1236 -0.5126
    3TTP    C3818847   3.407   7.829   0.703  0.1686  0.6197 -0.4412
    3TTP    C3918848   3.271   7.781   0.746  0.2543  0.1877  0.0504
    3TTP    C4018849   3.156   7.812   0.647 -0.0206 -0.0496  0.1830
    3TTP    C4118850   3.120   7.958   0.607 -0.5613  0.8471 -0.6616
    3TTP    C4218851   3.064   8.039   0.720  0.4732  0.1291 -0.0337
    4BIM     F118852   5.783   6.824   1.256  0.0998 -0.1074 -0.2178
    4BIM     F218853   5.805   6.654   1.466  0.1518 -0.0310 -0.1611
    4BIM     O118854   5.273   6.729   1.100 -0.0098 -0.0062  0.0777
    4BIM     N518855   5.473   6.341   1.659  0.1482  0.1512  0.1311
    4BIM     N618856   5.070   6.301   1.494  0.0521  0.2147  0.3506
    4BIM    C1918857   5.113   6.532   1.246  0.0007  0.1027  0.2368
    4BIM    C2018858   5.240   6.563   1.277  0.0263  0.0744  0.1603
    4BIM    C2118859   5.316   6.665   1.197  0.0190  0.0185  0.0813
    4BIM    C2218860   5.450   6.674   1.257  0.0521 -0.0008  0.0098
    4BIM    C2318861   5.556   6.756   1.217  0.0582 -0.0502 -0.0759
    4BIM    C2418862   5.674   6.747   1.289  0.0920 -0.0594 -0.1320
    4BIM    C2518863   5.685   6.659   1.398  0.1186 -0.0199 -0.1027
    4BIM    C2618864   5.580   6.577   1.438  0.1129  0.0297 -0.0172
    4BIM    C2718865   5.460   6.585   1.366  0.0789  0.0396  0.0406
    4BIM    C2818866   5.331   6.513   1.383  0.0640  0.0873  0.1342
    4BIM    C2918867   5.302   6.418   1.478  0.0819  0.1343  0.1866
    4BIM    C3018868   5.396   6.376   1.577  0.1184  0.1434  0.1559
    4BIM    C3118869   5.175   6.354   1.487  0.0653  0.1783  0.2765
    5BIM     F118870   4.620   8.301   1.019  0.3226 -0.1204 -0.2327
    5BIM     F218871   4.435   8.448   0.884 -0.1886  0.0534  0.6458
    5BIM     O118872   4.448   7.798   0.915  0.3651 -0.0135 -0.8296
    5BIM     N518873   4.045   8.301   0.617 -0.8934  0.3798  1.4835
    5BIM     N618874   3.948   7.878   0.563 -0.7570  0.4281  0.8401
    5BIM    C1918875   4.210   7.760   0.750 -0.1082  0.1905 -0.2022
    5BIM    C2018876   4.260   7.881   0.781 -0.0989  0.1569 -0.0864
    5BIM    C2118877   4.383   7.892   0.867  0.1518  0.0510 -0.4279
    5BIM    C2218878   4.411   8.037   0.881  0.0933  0.0393 -0.1915
    5BIM    C2318879   4.515   8.097   0.952  0.2645 -0.0458 -0.3690
    5BIM    C2418880   4.520   8.235   0.951  0.1640 -0.0387 -0.0794
    5BIM    C2518881   4.425   8.311   0.882 -0.0993  0.0507  0.3730
    5BIM    C2618882   4.321   8.251   0.811 -0.2712  0.1359  0.5524
    5BIM    C2718883   4.313   8.111   0.811 -0.1731  0.1304  0.2644
    5BIM    C2818884   4.217   8.018   0.746 -0.3018  0.2062  0.3470
    5BIM    C2918885   4.109   8.053   0.670 -0.5596  0.3037  0.7485
    5BIM    C3018886   4.074   8.189   0.641 -0.7422  0.3450  1.1512
    5BIM    C3118887   4.021   7.957   0.612 -0.6667  0.3715  0.7965
    1BTD     S218888   0.609   1.950   2.473 -0.1283  0.1053 -0.1156
    1BTD     N118889   0.724   2.081   2.430 -0.2789  0.2765 -0.0008
    1BTD     N218890   0.663   1.937   2.643 -0.0247 -0.0728 -0.1612
    1BTD     N318891   0.984   2.148   2.914 -0.0855 -0.1265 -0.0471
    1BTD     N418892   1.058   2.325   2.651 -0.3988  0.3040  0.1505
    1BTD     C518893   0.898   2.206   2.548 -0.3377  0.2857  0.0758
    1BTD     C618894   0.794   2.107   2.539 -0.2459  0.1963 -0.0024
    1BTD     C718895   0.760   2.027   2.659 -0.1036  0.0008 -0.0922
    1BTD     C818896   0.832   2.050   2.781 -0.0603 -0.0957 -0.0992
    1BTD    C1518897   0.932   2.148   2.786 -0.1536 -0.0025 -0.0209
    1BTD    C1618898   0.965   2.225   2.670 -0.2907  0.1859  0.0656
    1BTD    C4318899   1.115   2.422   2.748  0.1533  0.4397 -0.2700
    1BTD    C4418900   1.264   2.472   2.740  0.2315 -0.2685  0.0386
    1BTD    C4518901   1.365   2.363   2.765  0.2783  0.0038 -0.0544
    1BTD    C4618902   1.369   2.252   2.658  0.1991  0.3609 -0.6058
    1BTD    C4718903   1.313   2.591   2.823  0.0684  0.0630  0.5548
    1BTD    C4818904   1.215   2.710   2.843 -1.1043 -0.0173 -0.5613
    1BTD    C4918905   1.261   2.802   2.961 -0.3073 -0.2354  0.4864
    1BTD    C5018906   1.269   2.728   3.094  0.1097 -0.5677 -0.1474
    1BTD    C7518907   1.126   2.171   2.952 -0.0576  0.4864  0.7079
    1BTD    C7618908   1.171   2.228   3.085 -0.3756  0.8241  0.5204
    1BTD    C7718909   1.108   2.363   3.128 -0.1619 -0.0793 -0.0039
    1BTD    C7818910   1.125   2.408   3.269 -0.1027  0.2278 -0.4688
    1BTD    C7918911   1.319   2.209   3.109 -0.3633 -0.1328  0.2295
    1BTD    C8018912   1.386   2.074   3.109 -0.4194  0.0714 -0.2957
    1BTD    C8118913   1.338   1.965   3.211 -0.1223 -0.1906  0.1128
    1BTD    C8218914   1.445   1.858   3.207 -0.5540  0.2378 -0.1276
    2TTP     S118915   0.902   2.361   2.293  0.2390  0.1010 -0.0932
    2TTP     S518916   1.193   2.627   2.463  0.3434 -0.1438  0.1119
    2TTP     C118917   1.147   2.689   2.298  0.5444 -0.1291  0.0609
    2TTP     C218918   1.055   2.610   2.236  0.5240 -0.0526 -0.0054
    2TTP     C318919   1.016   2.498   2.316  0.3489 -0.0029 -0.0184
    2TTP     C418920   0.948   2.298   2.457  0.0380  0.0863 -0.0422
    2TTP    C1718921   1.040   2.377   2.520  0.0584  0.0098  0.0241
    2TTP    C1818922   1.078   2.489   2.440  0.2335 -0.0399  0.0371
    2TTP    C3218923   1.000   2.625   2.089  0.0326  0.4054 -0.5886
    2TTP    C3318924   0.852   2.666   2.096  0.4484 -0.6446  0.4113
    2TTP    C3418925   0.811   2.694   1.953  0.1964  0.3168 -0.0055
    2TTP    C3518926   0.656   2.697   1.932  0.4623 -0.7329  0.1167
    2TTP    C3618927   0.597   2.756   1.799 -0.9547  0.5909  0.8920
    2TTP    C3718928   0.614   2.665   1.676 -0.0334 -0.8961 -0.3004
    2TTP    C3818929   0.531   2.732   1.564 -0.4785  0.2344 -0.5523
    2TTP    C3918930   0.523   2.660   1.433 -0.0410  0.6697  0.5173
    2TTP    C4018931   0.444   2.723   1.320 -0.4475 -0.3308  0.5700
    2TTP    C4118932   0.292   2.734   1.344 -0.0936 -0.4177 -1.0748
    2TTP    C4218933   0.216   2.750   1.216  0.3641 -0.4105 -0.5947
    3TTP     S118934   0.720   1.869   3.001  0.0770 -0.0903  0.0941
    3TTP     S518935   1.008   2.029   3.277 -0.0139  0.1692  0.0389
    3TTP     C118936   0.910   1.902   3.363  0.3014 -0.1173 -0.0208
    3TTP     C218937   0.815   1.845   3.283  0.3480 -0.2144 -0.0073
    3TTP     C318938   0.816   1.900   3.150  0.1365 -0.0659  0.0507
    3TTP     C418939   0.818   1.996   2.915 -0.2382  0.1962  0.1537
    3TTP    C1718940   0.913   2.053   2.995 -0.2849  0.2932  0.1402
    3TTP    C1818941   0.911   1.998   3.128 -0.0733  0.1448  0.0822
    3TTP    C3218942   0.712   1.742   3.318  0.2546  0.1314  0.4186
    3TTP    C3318943   0.746   1.607   3.254  0.8967  0.3734 -0.1855
    3TTP    C3418944   0.638   1.502   3.292 -0.2545  0.9100  0.6750
    3TTP    C3518945   0.688   1.371   3.237  0.0274  0.0278 -0.2308
    3TTP    C3618946   0.567   1.270   3.241 -0.0713 -0.1967  0.9749
    3TTP    C3718947   0.589   1.123   3.194 -0.1386 -0.3602 -0.0641
    3TTP    C3818948   0.669   1.093   3.060  0.0387  0.2399 -0.8571
    3TTP    C3918949   0.662   0.954   3.011 -0.4584 -0.0578 -0.2347
    3TTP    C4018950   0.745   0.852   3.091 -0.0236  0.1277  0.2853
    3TTP    C4118951   0.899   0.858   3.095 -0.4787 -0.3430  0.2302
    3TTP    C4218952   0.964   0.792   3.208  0.6984  0.3151 -0.7195
    4BIM     F118953   1.657   3.288   2.539  0.4410 -0.3898  0.0774
    4BIM     F218954   1.663   3.376   2.282 -0.0729  0.2194  0.2693
    4BIM     O118955   1.314   2.871   2.496  0.4487 -0.3625 -0.2474
    4BIM     N518956   1.428   3.207   1.881 -0.8060  1.1146  0.3136
    4BIM     N618957   1.159   2.863   1.899 -0.6964  1.0131  0.0211
    4BIM    C1918958   1.198   2.808   2.234 -0.0394  0.2291 -0.1794
    4BIM    C2018959   1.284   2.909   2.255 -0.0213  0.1985 -0.1052
    4BIM    C2118960   1.339   2.935   2.393  0.2367 -0.1135 -0.1467
    4BIM    C2218961   1.429   3.052   2.380  0.1870 -0.0641 -0.0445
    4BIM    C2318962   1.503   3.113   2.481  0.3667 -0.2853 -0.0401
    4BIM    C2418963   1.581   3.222   2.445  0.2738 -0.1833  0.0667
    4BIM    C2518964   1.584   3.268   2.312  0.0090  0.1307  0.1653
    4BIM    C2618965   1.511   3.207   2.211 -0.1714  0.3526  0.1615
    4BIM    C2718966   1.431   3.096   2.246 -0.0810  0.2537  0.0543
    4BIM    C2818967   1.342   3.010   2.164 -0.2195  0.4276  0.0208
    4BIM    C2918968   1.318   3.023   2.029 -0.4814  0.7410  0.0931
    4BIM    C3018969   1.379   3.124   1.948 -0.6590  0.9453  0.2141
    4BIM    C3118970   1.231   2.935   1.958 -0.5982  0.8889  0.0531
    5BIM     F118971   1.141   2.317   4.036 -0.3388 -0.0589  0.0738
    5BIM     F218972   1.151   2.080   4.169  0.4780 -0.2058 -0.2400
    5BIM     O118973   0.966   2.154   3.550 -0.7201  0.1160  0.1513
    5BIM     N518974   1.042   1.623   4.014  1.3804 -0.2922 -0.6355
    5BIM     N618975   0.903   1.543   3.608  0.9178 -0.1259 -0.5117
    5BIM    C1918976   0.914   1.870   3.505 -0.0753  0.0378 -0.1208
    5BIM    C2018977   0.958   1.920   3.622 -0.0113 -0.0004 -0.1280
    5BIM    C2118978   0.982   2.067   3.637 -0.3584  0.0439  0.0170
    5BIM    C2218979   1.029   2.088   3.776 -0.1836 -0.0151 -0.0322
    5BIM    C2318980   1.064   2.208   3.837 -0.3872 -0.0022  0.0613
    5BIM    C2418981   1.105   2.202   3.969 -0.1569 -0.0675 -0.0118
    5BIM    C2518982   1.110   2.080   4.038  0.2639 -0.1430 -0.1734
    5BIM    C2618983   1.075   1.960   3.977  0.4690 -0.1564 -0.2674
    5BIM    C2718984   1.033   1.963   3.843  0.2409 -0.0911 -0.1956
    5BIM    C2818985   0.990   1.855   3.751  0.3636 -0.0850 -0.2608
    5BIM    C2918986   0.982   1.721   3.781  0.7506 -0.1462 -0.4149
    5BIM    C3018987   1.015   1.668   3.909  1.0955 -0.2262 -0.5357
    5BIM    C3118988   0.939   1.624   3.685  0.8403 -0.1347 -0.4672
    1BTD     S218989   3.753   7.333   2.124  0.0466 -0.1610  0.1530
    1BTD     N118990   3.912   7.316   2.206  0.1426 -0.1488 -0.0294
    1BTD     N218991   3.778   7.505   2.078  0.0153 -0.1835  0.0521
    1BTD     N318992   4.117   7.825   2.132  0.1247 -0.2068 -0.4827
    1BTD     N418993   4.282   7.593   2.290  0.2817 -0.1639 -0.5832
    1BTD     C518994   4.103   7.464   2.248  0.2133 -0.1572 -0.3173
    1BTD     C618995   3.973   7.434   2.196  0.1462 -0.1613 -0.1498
    1BTD     C718996   3.898   7.539   2.124  0.0749 -0.1806 -0.1042
    1BTD     C818997   3.957   7.669   2.108  0.0743 -0.1951 -0.2283
    1BTD    C1518998   4.085   7.694   2.161  0.1414 -0.1906 -0.3906
    1BTD    C1618999   4.157   7.592   2.231  0.2101 -0.1718 -0.4347
    1BTD    C4319000   4.340   7.719   2.346 -0.7161  0.7131 -0.3752
    1BTD    C4419001   4.486   7.735   2.390 -1.1814 -0.4144 -0.3239
    1BTD    C4519002   4.588   7.707   2.276 -0.2125 -0.2171  0.2237
    1BTD    C4619003   4.737   7.735   2.290 -0.5050 -0.4249 -0.8020
    1BTD    C4719004   4.504   7.875   2.454 -0.4644 -0.0235 -0.0795
    1BTD    C4819005   4.408   7.905   2.573 -0.1534  0.2871  0.1282
    1BTD    C4919006   4.426   8.050   2.627 -0.0207 -0.0365 -0.5239
    1BTD    C5019007   4.310   8.084   2.728 -0.1071  0.3374  0.1021
    1BTD    C7519008   4.249   7.867   2.087  0.9137 -0.7591  0.4727
    1BTD    C7619009   4.297   8.009   2.088 -0.7361 -0.7900  0.0841
    1BTD    C7719010   4.311   8.079   2.228  0.1891 -0.1132 -0.1438
    1BTD    C7819011   4.342   8.230   2.232  0.5343 -0.1769  0.8669
    1BTD    C7919012   4.416   8.039   1.995 -0.4226  0.1405 -0.3838
    1BTD    C8019013   4.380   8.028   1.839  0.0402 -0.4645 -0.5760
    1BTD    C8119014   4.256   8.119   1.794 -0.1051 -0.7383 -0.1636
    1BTD    C8219015   4.264   8.142   1.647  0.4699  0.5655  0.0240
    2TTP     S119016   4.207   7.225   2.401  0.0051 -0.1755  0.1371
    2TTP     S519017   4.558   7.451   2.504  0.0192 -0.0540 -0.1729
    2TTP     C119018   4.566   7.290   2.589  0.0712  0.0110 -0.0526
    2TTP     C219019   4.458   7.211   2.562  0.0699 -0.0225  0.0502
    2TTP     C319020   4.366   7.275   2.473  0.0278 -0.1010  0.0377
    2TTP     C419021   4.200   7.387   2.316 -0.0470 -0.2406  0.0168
    2TTP    C1719022   4.308   7.466   2.343 -0.0456 -0.2071 -0.0859
    2TTP    C1819023   4.400   7.402   2.432 -0.0036 -0.1285 -0.0734
    2TTP    C3219024   4.432   7.069   2.607  0.0967  0.3043  0.3670
    2TTP    C3319025   4.354   7.070   2.741  0.3965  0.4239 -0.2135
    2TTP    C3419026   4.309   6.937   2.804 -0.1860 -0.1132 -0.3100
    2TTP    C3519027   4.415   6.817   2.815  0.0811 -0.3776 -0.2231
    2TTP    C3619028   4.382   6.676   2.863  0.7791 -0.2997  0.0292
    2TTP    C3719029   4.272   6.605   2.790 -0.1063 -0.3589 -0.3016
    2TTP    C3819030   4.268   6.463   2.837  0.3388  0.3438 -0.1166
    2TTP    C3919031   4.162   6.368   2.766 -0.1146 -0.0581 -1.0303
    2TTP    C4019032   4.144   6.235   2.847 -0.1338  0.1461  0.3731
    2TTP    C4119033   4.056   6.134   2.777  0.0533  0.2763  0.0343
    2TTP    C4219034   4.082   6.083   2.631  0.1763 -0.7382  0.0727
    3TTP     S119035   3.764   7.847   1.959  0.4131 -0.1418  0.3421
    3TTP     S519036   4.014   8.181   2.063 -0.0185  0.2034  0.2739
    3TTP     C119037   3.863   8.244   1.983 -0.0868 -0.0095  0.2338
    3TTP     C219038   3.777   8.145   1.946  0.0426 -0.1285  0.2524
    3TTP     C319039   3.827   8.015   1.980  0.2001 -0.0560  0.2992
    3TTP     C419040   3.915   7.784   2.039  0.4813  0.0710  0.3822
    3TTP    C1719041   4.001   7.884   2.076  0.3521  0.1902  0.3636
    3TTP    C1819042   3.951   8.013   2.042  0.1944  0.1175  0.3170
    3TTP    C3219043   3.638   8.164   1.882 -1.0225  0.3839  0.2353
    3TTP    C3319044   3.638   8.173   1.735 -0.6781 -0.0948  0.3634
    3TTP    C3419045   3.507   8.176   1.666  0.3874  0.0471  0.5081
    3TTP    C3519046   3.500   8.171   1.512 -1.1525  0.3852  1.0167
    3TTP    C3619047   3.541   8.295   1.432  0.3343 -0.6700 -0.0813
    3TTP    C3719048   3.461   8.418   1.452 -0.1750 -0.2944 -0.0513
    3TTP    C3819049   3.325   8.418   1.394  0.2312  0.9053 -0.2503
    3TTP    C3919050   3.239   8.526   1.456  0.1904 -0.6072  0.2212
    3TTP    C4019051   3.088   8.533   1.430 -0.1568 -0.3177 -0.0349
    3TTP    C4119052   3.009   8.421   1.509 -0.4553 -0.6297 -0.0865
    3TTP    C4219053   2.864   8.430   1.493  0.3315  0.2172 -0.2220
    4BIM     F119054   5.244   7.647   2.883 -0.1900  0.0879  0.3059
    4BIM     F219055   5.338   7.401   2.950  0.2213  0.0483 -0.4014
    4BIM     O119056   4.759   7.518   2.680 -0.3400 -0.0497  0.7483
    4BIM     N519057   5.129   6.955   2.902  0.7060 -0.1068 -1.1027
    4BIM     N619058   4.730   6.904   2.729  0.5059 -0.2065 -0.6145
    4BIM    C1919059   4.677   7.237   2.672 -0.0001 -0.1365  0.2298
    4BIM    C2019060   4.795   7.279   2.720  0.0216 -0.1004  0.1462
    4BIM    C2119061   4.830   7.425   2.721 -0.1606 -0.0569  0.4275
    4BIM    C2219062   4.965   7.436   2.780 -0.0834 -0.0248  0.2471
    4BIM    C2319063   5.039   7.552   2.801 -0.1954  0.0200  0.3985
    4BIM    C2419064   5.165   7.537   2.859 -0.0888  0.0436  0.1738
    4BIM    C2519065   5.213   7.410   2.893  0.1232  0.0231 -0.1905
    4BIM    C2619066   5.139   7.294   2.872  0.2358 -0.0213 -0.3432
    4BIM    C2719067   5.012   7.307   2.814  0.1305 -0.0460 -0.1200
    4BIM    C2819068   4.910   7.206   2.779  0.2035 -0.0932 -0.1966
    4BIM    C2919069   4.920   7.070   2.797  0.4019 -0.1243 -0.5229
    4BIM    C3019070   5.035   7.007   2.854  0.5684 -0.1148 -0.8405
    4BIM    C3119071   4.816   6.979   2.760  0.4579 -0.1694 -0.5713
    5BIM     F119072   4.311   8.940   1.962  0.2853 -0.1342  0.0364
    5BIM     F219073   4.078   9.080   1.946  0.3647 -0.0310 -0.2259
    5BIM     O119074   4.125   8.432   1.972  0.0252 -0.0336  0.3387
    5BIM     N519075   3.611   8.919   1.930  0.2934  0.1895 -0.3876
    5BIM     N619076   3.512   8.493   1.941  0.0743  0.2477 -0.0986
    5BIM    C1919077   3.836   8.385   1.960  0.0087  0.1013  0.1954
    5BIM    C2019078   3.892   8.507   1.958  0.0710  0.0715  0.1296
    5BIM    C2119079   4.041   8.523   1.965  0.0752  0.0021  0.2105
    5BIM    C2219080   4.068   8.668   1.961  0.1502 -0.0143  0.1077
    5BIM    C2319081   4.192   8.732   1.964  0.1801 -0.0732  0.1331
    5BIM    C2419082   4.192   8.870   1.959  0.2523 -0.0774  0.0188
    5BIM    C2519083   4.072   8.942   1.951  0.2932 -0.0243 -0.1162
    5BIM    C2619084   3.948   8.879   1.947  0.2638  0.0350 -0.1423
    5BIM    C2719085   3.946   8.739   1.952  0.1906  0.0401 -0.0280
    5BIM    C2819086   3.833   8.643   1.951  0.1435  0.0951 -0.0198
    5BIM    C2919087   3.699   8.674   1.943  0.1634  0.1559 -0.1299
    5BIM    C3019088   3.651   8.808   1.936  0.2349  0.1743 -0.2712
    5BIM    C3119089   3.597   8.574   1.942  0.1143  0.2060 -0.1120
    1BTD     S219090   3.923   7.762   9.338 -0.0407  0.1061  0.3166
    1BTD     N119091   4.036   7.630   9.388 -0.2936  0.0728  0.8099
    1BTD     N219092   4.037   7.894   9.382  0.2095  0.0552 -0.1688
    1BTD     N319093   4.470   7.928   9.560  0.2625 -0.1092 -0.2663
    1BTD     N419094   4.468   7.602   9.568 -0.3574 -0.0874  0.9396
    1BTD     C519095   4.262   7.620   9.482 -0.3194 -0.0111  0.8631
    1BTD     C619096   4.146   7.689   9.432 -0.1842  0.0277  0.5989
    1BTD     C719097   4.146   7.837   9.429  0.0973  0.0178  0.0505
    1BTD     C819098   4.263   7.908   9.475  0.2298 -0.0304 -0.2050
    1BTD    C1519099   4.374   7.836   9.522  0.0894 -0.0671  0.0691
    1BTD    C1619100   4.373   7.693   9.526 -0.1819 -0.0577  0.5970
    1BTD    C4319101   4.617   7.631   9.554  0.0392  0.2818  0.4033
    1BTD    C4419102   4.719   7.559   9.652 -0.0320 -0.5068  1.1704
    1BTD    C4519103   4.865   7.551   9.599 -0.1445 -0.1973 -0.4689
    1BTD    C4619104   4.897   7.485   9.464 -0.3641 -0.8977  0.2620
    1BTD    C4719105   4.718   7.589   9.804 -0.0673 -0.1163  0.1146
    1BTD    C4819106   4.581   7.573   9.874  0.2979  0.6749 -1.2347
    1BTD    C4919107   4.577   7.558  10.031  0.6375  0.4487 -0.0892
    1BTD    C5019108   4.646   7.665  10.112  0.6866 -0.1827 -0.2701
    1BTD    C7519109   4.550   7.919   9.687 -0.2553 -0.1792  0.5586
    1BTD    C7619110   4.672   7.997   9.730 -0.2629  0.1218  0.2702
    1BTD    C7719111   4.717   7.976   9.876  0.1162 -0.8282 -0.1040
    1BTD    C7819112   4.613   8.022   9.989 -0.0240 -0.4871  0.6474
    1BTD    C7919113   4.788   7.965   9.633 -0.5446  0.2387 -0.1479
    1BTD    C8019114   4.918   8.041   9.669 -0.6463  0.2177 -0.1818
    1BTD    C8119115   5.048   7.955   9.672  0.2814 -0.3019 -0.3760
    1BTD    C8219116   5.064   7.863   9.553 -0.2953  0.2798 -0.3794
    2TTP     S119117   4.200   7.327   9.492 -0.0426 -0.0355 -0.0835
    2TTP     S519118   4.596   7.248   9.642 -0.0837  0.2109  0.1550
    2TTP     C119119   4.504   7.091   9.635  0.0246  0.1511  0.0825
    2TTP     C219120   4.377   7.106   9.588  0.0436  0.0713  0.0045
    2TTP     C319121   4.347   7.242   9.556 -0.0265  0.0548 -0.0010
    2TTP     C419122   4.292   7.484   9.499 -0.1508  0.0242 -0.0112
    2TTP    C1719123   4.419   7.469   9.546 -0.1698  0.1040  0.0669
    2TTP    C1819124   4.449   7.333   9.578 -0.0998  0.1205  0.0720
    2TTP    C3219125   4.274   6.995   9.569  0.0058 -0.0746 -0.9785
    2TTP    C3319126   4.249   6.934   9.430 -0.3992  0.3305  0.1799
    2TTP    C3419127   4.141   6.832   9.412 -0.1542 -0.1576  0.4635
    2TTP    C3519128   4.002   6.855   9.466  0.3993  0.0106  0.5220
    2TTP    C3619129   3.896   6.749   9.441  0.7094 -1.0586 -0.1272
    2TTP    C3719130   3.874   6.714   9.283 -0.2098 -0.0268 -0.8300
    2TTP    C3819131   3.737   6.656   9.256 -0.2129 -0.6147  0.4547
    2TTP    C3919132   3.612   6.724   9.305  0.4952 -0.6467  0.2033
    2TTP    C4019133   3.596   6.868   9.254  0.2605  0.2871  0.4316
    2TTP    C4119134   3.452   6.918   9.289  0.1586  0.3365  0.2215
    2TTP    C4219135   3.412   7.051   9.229  0.1868 -0.3642 -0.4687
    3TTP     S119136   4.223   8.209   9.428 -0.1989  0.3460 -0.2877
    3TTP     S519137   4.631   8.267   9.551 -0.2408  0.0355 -0.0014
    3TTP     C119138   4.565   8.425   9.491 -0.1431  0.1327  0.1480
    3TTP     C219139   4.435   8.417   9.449 -0.1242  0.2341  0.0682
    3TTP     C319140   4.383   8.285   9.464 -0.1866  0.2391 -0.1135
    3TTP     C419141   4.288   8.050   9.488 -0.2968  0.2489 -0.4373
    3TTP    C1719142   4.418   8.059   9.530 -0.3155  0.1473 -0.3574
    3TTP    C1819143   4.470   8.191   9.516 -0.2532  0.1423 -0.1757
    3TTP    C3219144   4.353   8.532   9.381 -1.1892  0.1006 -0.0835
    3TTP    C3319145   4.274   8.496   9.262  0.0589  0.3792 -0.0409
    3TTP    C3419146   4.188   8.613   9.215  0.0725  0.2134  0.5026
    3TTP    C3519147   4.071   8.575   9.116  0.0063  0.1533  0.2095
    3TTP    C3619148   3.974   8.686   9.078  0.0836  0.4873 -0.4916
    3TTP    C3719149   3.887   8.644   8.959  0.6399 -0.5781  0.1986
    3TTP    C3819150   3.768   8.745   8.925 -0.5275 -0.1041  0.6446
    3TTP    C3919151   3.806   8.894   8.883  0.4655  1.0206 -0.1560
    3TTP    C4019152   3.876   8.926   8.748  0.0758 -0.0502 -0.8907
    3TTP    C4119153   3.895   9.069   8.715  0.0233 -0.3753  0.0640
    3TTP    C4219154   3.974   9.083   8.588 -0.4343  0.9529  0.5584
    4BIM     F119155   5.242   6.783   9.840 -0.0632  0.1981  0.2353
    4BIM     F219156   5.117   6.556   9.924  0.0547 -0.0455 -0.2361
    4BIM     O119157   4.821   7.073   9.663 -0.1885  0.2486  0.6149
    4BIM     N519158   4.637   6.437   9.920  0.1347 -0.3599 -0.6432
    4BIM     N619159   4.333   6.710   9.764  0.0130 -0.2713 -0.2515
    4BIM    C1919160   4.552   6.959   9.681 -0.1204  0.0338  0.2995
    4BIM    C2019161   4.663   6.895   9.722 -0.0935  0.0305  0.2224
    4BIM    C2119162   4.798   6.960   9.710 -0.1316  0.1450  0.3955
    4BIM    C2219163   4.895   6.864   9.763 -0.0882  0.1092  0.2532
    4BIM    C2319164   5.033   6.879   9.773 -0.1019  0.1841  0.3352
    4BIM    C2419165   5.106   6.774   9.827 -0.0530  0.1295  0.1665
    4BIM    C2519166   5.041   6.657   9.871  0.0077  0.0038 -0.0762
    4BIM    C2619167   4.903   6.641   9.862  0.0218 -0.0713 -0.1593
    4BIM    C2719168   4.828   6.747   9.807 -0.0273 -0.0176  0.0088
    4BIM    C2819169   4.683   6.761   9.783 -0.0280 -0.0710 -0.0198
    4BIM    C2919170   4.585   6.669   9.812  0.0223 -0.1915 -0.2305
    4BIM    C3019171   4.614   6.542   9.871  0.0839 -0.2837 -0.4567
    4BIM    C3119172   4.447   6.692   9.786  0.0168 -0.2346 -0.2408
    5BIM     F119173   5.294   8.709   9.743 -0.2501 -0.0122  0.4232
    5BIM     F219174   5.243   8.942   9.611  0.4046 -0.3631 -0.4687
    5BIM     O119175   4.843   8.429   9.635 -0.5370  0.4091  0.5260
    5BIM     N519176   4.848   9.077   9.344  1.1413 -0.5677 -1.6780
    5BIM     N619177   4.506   8.811   9.286  0.7851 -0.1676 -1.4184
    5BIM    C1919178   4.634   8.552   9.470 -0.0134  0.2233 -0.2903
    5BIM    C2019179   4.750   8.613   9.503  0.0331  0.1309 -0.2811
    5BIM    C2119180   4.852   8.544   9.588 -0.2483  0.2365  0.1514
    5BIM    C2219181   4.964   8.638   9.603 -0.1130  0.0949  0.0424
    5BIM    C2319182   5.083   8.618   9.674 -0.2804  0.1247  0.3345
    5BIM    C2419183   5.175   8.722   9.675 -0.1001 -0.0317  0.1533
    5BIM    C2519184   5.148   8.842   9.607  0.2372 -0.2123 -0.3064
    5BIM    C2619185   5.030   8.862   9.536  0.4059 -0.2437 -0.5999
    5BIM    C2719186   4.936   8.758   9.534  0.2273 -0.0868 -0.4225
    5BIM    C2819187   4.803   8.748   9.470  0.3306 -0.0713 -0.6397
    5BIM    C2919188   4.741   8.844   9.394  0.6423 -0.2177 -1.0870
    5BIM    C3019189   4.800   8.972   9.367  0.9155 -0.4096 -1.4107
    5BIM    C3119190   4.612   8.825   9.335  0.7191 -0.1893 -1.2670
    1BTD     S219191   6.912   3.873   5.153 -0.2112 -0.0142 -0.1968
    1BTD     N119192   7.086   3.868   5.195 -0.3372 -0.0136  0.3419
    1BTD     N219193   6.910   4.050   5.122 -0.0243 -0.0838 -0.6080
    1BTD     N319194   7.222   4.401   5.133  0.1287 -0.2244 -0.4735
    1BTD     N419195   7.439   4.176   5.224 -0.2569 -0.1380  0.6968
    1BTD     C519196   7.268   4.031   5.209 -0.2906 -0.0796  0.5131
    1BTD     C619197   7.132   3.992   5.184 -0.2387 -0.0628  0.1950
    1BTD     C719198   7.033   4.094   5.143 -0.0635 -0.1020 -0.3368
    1BTD     C819199   7.076   4.231   5.129  0.0511 -0.1562 -0.5237
    1BTD    C1519200   7.210   4.265   5.154 -0.0053 -0.1707 -0.1985
    1BTD    C1619201   7.305   4.166   5.194 -0.1741 -0.1331  0.3136
    1BTD    C4319202   7.557   4.265   5.181  0.4908  0.0499 -0.5224
    1BTD    C4419203   7.649   4.240   5.063 -0.0986  0.7961  0.1748
    1BTD    C4519204   7.773   4.331   5.043  0.0934  0.0180  0.1508
    1BTD    C4619205   7.875   4.354   5.163  0.8777  0.2054  0.0788
    1BTD    C4719206   7.574   4.197   4.940  0.1066 -0.2418  0.9250
    1BTD    C4819207   7.656   4.155   4.821 -0.4783 -0.1992  0.2116
    1BTD    C4919208   7.572   4.081   4.718  0.0105  0.5038 -0.1391
    1BTD    C5019209   7.648   3.984   4.627 -0.5638  0.2528 -0.2299
    1BTD    C7519210   7.337   4.484   5.159  0.2564 -0.1032  0.5891
    1BTD    C7619211   7.327   4.631   5.200 -0.9790 -0.2728 -0.6270
    1BTD    C7719212   7.288   4.644   5.350 -0.0392 -0.2615  0.1435
    1BTD    C7819213   7.258   4.783   5.400  0.7017 -0.1936 -0.0449
    1BTD    C7919214   7.464   4.707   5.180 -0.2474  0.0871 -0.0761
    1BTD    C8019215   7.595   4.679   5.261  0.3183  0.5359  0.6052
    1BTD    C8119216   7.705   4.769   5.202 -0.7130 -0.1883  0.1489
    1BTD    C8219217   7.834   4.745   5.273  0.2190 -0.3545  0.2531
    2TTP     S119218   7.437   3.792   5.298  0.3029 -0.4252 -0.2647
    2TTP     S519219   7.769   4.058   5.361 -0.3370  0.2540  0.2865
    2TTP     C119220   7.822   3.888   5.403  0.0448  0.3049  0.0234
    2TTP     C219221   7.722   3.796   5.386  0.2649  0.0980 -0.1624
    2TTP     C319222   7.601   3.856   5.339  0.1398 -0.1079 -0.1035
    2TTP     C419223   7.385   3.961   5.256 -0.0789 -0.4759 -0.0018
    2TTP    C1719224   7.484   4.053   5.273 -0.2991 -0.2692  0.1842
    2TTP    C1819225   7.606   3.993   5.320 -0.1742 -0.0632  0.1254
    2TTP    C3219226   7.727   3.647   5.428  0.1317 -0.3415  0.2703
    2TTP    C3319227   7.681   3.623   5.569  0.5669 -0.0946  0.1637
    2TTP    C3419228   7.668   3.474   5.593  0.1134 -0.0578  0.1286
    2TTP    C3519229   7.588   3.447   5.719  0.0639  0.3445 -0.1574
    2TTP    C3619230   7.607   3.303   5.752 -0.1981 -0.6377 -0.0651
    2TTP    C3719231   7.513   3.260   5.869 -0.3620  0.7786 -0.1302
    2TTP    C3819232   7.524   3.103   5.893 -0.1632 -0.5660  0.6088
    2TTP    C3919233   7.476   3.019   5.774 -0.3493 -0.0323  0.5113
    2TTP    C4019234   7.458   2.875   5.807  0.0322  0.4203 -0.3948
    2TTP    C4119235   7.395   2.791   5.693  0.1917 -0.3215 -0.3666
    2TTP    C4219236   7.333   2.665   5.739  0.6556  0.5464 -0.2593
    3TTP     S119237   6.850   4.401   5.017 -0.0490 -0.0727 -0.0362
    3TTP     S519238   7.118   4.737   4.989  0.0412 -0.1351  0.0716
    3TTP     C119239   6.954   4.787   4.926  0.1036 -0.1248 -0.0832
    3TTP     C219240   6.862   4.686   4.931  0.0794 -0.1047 -0.1254
    3TTP     C319241   6.917   4.566   4.985  0.0107 -0.0972 -0.0374
    3TTP     C419242   7.014   4.351   5.080 -0.1113 -0.0831  0.1185
    3TTP    C1719243   7.106   4.451   5.075 -0.0872 -0.1031  0.1608
    3TTP    C1819244   7.051   4.572   5.021 -0.0185 -0.1107  0.0727
    3TTP    C3219245   6.713   4.702   4.881 -0.7714  0.4021 -0.1548
    3TTP    C3319246   6.604   4.628   4.959  0.6954 -0.1727  0.3834
    3TTP    C3419247   6.463   4.632   4.898  0.0570 -0.0507 -0.9238
    3TTP    C3519248   6.360   4.517   4.922  0.6171 -0.1409  0.2969
    3TTP    C3619249   6.223   4.552   4.859 -0.5219  0.8150 -0.3728
    3TTP    C3719250   6.105   4.460   4.869 -0.7413  0.0018  0.0458
    3TTP    C3819251   6.090   4.402   5.010 -0.4615  0.1428  0.4700
    3TTP    C3919252   5.962   4.347   5.066 -0.3072  0.2461  0.0043
    3TTP    C4019253   5.832   4.421   5.043 -0.1802 -0.6072 -0.7667
    3TTP    C4119254   5.703   4.357   5.091  0.3912  0.3500  0.1311
    3TTP    C4219255   5.583   4.443   5.065  0.1140  0.6758 -0.5225
    4BIM     F119256   8.458   4.326   5.672 -0.0653  0.2215 -0.0505
    4BIM     F219257   8.618   4.110   5.629 -0.0451  0.1664  0.2941
    4BIM     O119258   7.975   4.125   5.531  0.0122  0.0721 -0.1032
    4BIM     N519259   8.504   3.657   5.467  0.0391 -0.0194  0.7522
    4BIM     N619260   8.095   3.544   5.365  0.0954 -0.1253  0.6417
    4BIM    C1919261   7.957   3.848   5.440  0.0590 -0.0339  0.2075
    4BIM    C2019262   8.072   3.907   5.477  0.0386  0.0059  0.2072
    4BIM    C2119263   8.073   4.050   5.523  0.0153  0.0592  0.0422
    4BIM    C2219264   8.214   4.082   5.555 -0.0029  0.0931  0.0880
    4BIM    C2319265   8.264   4.203   5.602 -0.0274  0.1458 -0.0222
    4BIM    C2419266   8.401   4.210   5.626 -0.0411  0.1694  0.0508
    4BIM    C2519267   8.483   4.098   5.604 -0.0307  0.1410  0.2284
    4BIM    C2619268   8.433   3.977   5.557 -0.0062  0.0883  0.3390
    4BIM    C2719269   8.295   3.969   5.533  0.0081  0.0637  0.2675
    4BIM    C2819270   8.211   3.857   5.484  0.0339  0.0090  0.3480
    4BIM    C2919271   8.255   3.730   5.450  0.0503 -0.0310  0.5199
    4BIM    C3019272   8.392   3.690   5.460  0.0443 -0.0246  0.6469
    4BIM    C3119273   8.167   3.628   5.404  0.0751 -0.0827  0.5859
    5BIM     F119274   7.380   5.423   4.640 -0.0284  0.2511  0.1453
    5BIM     F219275   7.146   5.559   4.611 -0.2173 -0.2042 -0.5207
    5BIM     O119276   7.200   4.950   4.834  0.4290  0.2314  0.5238
    5BIM     N519277   6.682   5.418   4.708 -0.1631 -0.8725 -1.2087
    5BIM     N619278   6.588   5.022   4.866  0.2325 -0.7961 -0.7787
    5BIM    C1919279   6.913   4.913   4.876  0.4111 -0.2104  0.0219
    5BIM    C2019280   6.967   5.026   4.828  0.3033 -0.1878 -0.0473
    5BIM    C2119281   7.116   5.038   4.810  0.3207  0.0454  0.2242
    5BIM    C2219282   7.141   5.173   4.756  0.1845  0.0082  0.0641
    5BIM    C2319283   7.264   5.230   4.723  0.1494  0.1733  0.2153
    5BIM    C2419284   7.262   5.360   4.674  0.0134  0.0971  0.0122
    5BIM    C2519285   7.142   5.430   4.660 -0.0838 -0.1379 -0.3309
    5BIM    C2619286   7.019   5.374   4.692 -0.0496 -0.3034 -0.4833
    5BIM    C2719287   7.018   5.243   4.742  0.0876 -0.2294 -0.2817
    5BIM    C2819288   6.907   5.155   4.786  0.1568 -0.3591 -0.3639
    5BIM    C2919289   6.773   5.187   4.786  0.0967 -0.5932 -0.6742
    5BIM    C3019290   6.723   5.314   4.743 -0.0460 -0.7460 -0.9671
    5BIM    C3119291   6.672   5.096   4.830  0.1717 -0.7035 -0.7298
    1BTD     S219292   8.765   2.246   8.794 -0.2437  0.1376  0.0921
    1BTD     N119293   8.801   2.419   8.762  0.0041  0.0756  0.0269
    1BTD     N219294   8.863   2.238   8.945 -0.4148  0.1057  0.2019
    1BTD     N319295   9.126   2.535   9.195 -0.3164 -0.0711  0.3083
    1BTD     N419296   9.050   2.758   8.971  0.2003 -0.1081  0.0930
    1BTD     C519297   8.932   2.594   8.874  0.1004 -0.0198  0.0639
    1BTD     C619298   8.880   2.460   8.861 -0.0503  0.0365  0.0873
    1BTD     C719299   8.914   2.359   8.963 -0.2851  0.0533  0.1853
    1BTD     C819300   8.999   2.396   9.073 -0.3572  0.0130  0.2546
    1BTD    C1519301   9.048   2.527   9.081 -0.2034 -0.0417  0.2287
    1BTD    C1619302   9.015   2.625   8.983  0.0223 -0.0579  0.1341
    1BTD    C4319303   9.060   2.856   9.086 -0.0837  0.2978  0.0734
    1BTD    C4419304   9.118   2.998   9.091  0.4440  0.0845  0.1958
    1BTD    C4519305   9.265   3.003   9.044 -0.0836 -0.1718  0.0544
    1BTD    C4619306   9.331   3.143   9.040  0.3175  0.2490 -0.8840
    1BTD    C4719307   9.100   3.067   9.231  0.3052  0.1787 -0.2961
    1BTD    C4819308   9.174   3.000   9.346  0.2731 -0.2856  0.0929
    1BTD    C4919309   9.181   3.074   9.480 -0.2057 -0.0199  0.4402
    1BTD    C5019310   9.252   3.200   9.466 -0.1586 -0.2080  0.7626
    1BTD    C7519311   9.222   2.647   9.240  0.9253  1.2539 -0.1930
    1BTD    C7619312   9.354   2.684   9.178 -0.3560  0.1079 -0.1438
    1BTD    C7719313   9.437   2.777   9.263 -0.1009 -0.3963  0.0605
    1BTD    C7819314   9.564   2.834   9.206 -0.1985  0.0685  0.3738
    1BTD    C7919315   9.419   2.556   9.121  0.2064  0.4275 -0.8063
    1BTD    C8019316   9.504   2.452   9.203  1.0042 -0.5791  0.9157
    1BTD    C8119317   9.543   2.327   9.116  0.3348 -0.2832 -0.2104
    1BTD    C8219318   9.611   2.220   9.206  0.3188 -0.7784 -0.3692
    2TTP     S119319   8.848   2.758   8.633 -0.1808 -0.1738 -0.2189
    2TTP     S519320   9.093   3.080   8.779 -0.3121 -0.2367  0.1435
    2TTP     C119321   9.025   3.127   8.616 -0.0074 -0.2460  0.0129
    2TTP     C219322   8.946   3.030   8.562  0.0513 -0.2272 -0.1066
    2TTP     C319323   8.935   2.915   8.646 -0.1423 -0.2046 -0.0994
    2TTP     C419324   8.915   2.710   8.795 -0.4852 -0.1645 -0.0880
    2TTP    C1719325   8.995   2.807   8.850 -0.5438 -0.1834  0.0314
    2TTP    C1819326   9.006   2.922   8.765 -0.3502 -0.2059  0.0243
    2TTP    C3219327   8.871   3.026   8.426  0.3924 -0.1893 -0.9340
    2TTP    C3319328   8.784   3.145   8.390 -0.2614 -0.0714  0.1467
    2TTP    C3419329   8.743   3.136   8.244  0.5248 -0.4135 -0.2000
    2TTP    C3519330   8.635   3.241   8.210 -0.3151  0.5072 -0.0664
    2TTP    C3619331   8.605   3.265   8.061 -0.0139  0.3163 -1.2825
    2TTP    C3719332   8.723   3.322   7.980  0.4398 -0.3862 -0.1683
    2TTP    C3819333   8.675   3.377   7.848  0.0684 -0.1723 -0.5608
    2TTP    C3919334   8.794   3.437   7.775 -0.2238 -0.2563  0.1269
    2TTP    C4019335   8.754   3.498   7.636 -0.5420  0.2462  0.6720
    2TTP    C4119336   8.878   3.562   7.563  0.5741  0.4601  0.4547
    2TTP    C4219337   8.833   3.642   7.442  0.0330  0.3196 -0.0194
    3TTP     S119338   9.074   2.157   9.255  0.0174  0.0172  0.0411
    3TTP     S519339   9.311   2.420   9.499  0.2575 -0.0794 -0.0873
    3TTP     C119340   9.331   2.250   9.561  0.0399 -0.0577  0.0454
    3TTP     C219341   9.259   2.158   9.489 -0.0472 -0.0266  0.0927
    3TTP     C319342   9.185   2.219   9.383  0.0553 -0.0187  0.0262
    3TTP     C419343   9.054   2.327   9.193  0.2348 -0.0044 -0.0913
    3TTP    C1719344   9.126   2.418   9.265  0.3221 -0.0354 -0.1390
    3TTP    C1819345   9.199   2.357   9.371  0.2198 -0.0433 -0.0722
    3TTP    C3219346   9.247   2.006   9.512 -0.1502 -0.2492 -0.1708
    3TTP    C3319347   9.313   1.918   9.408  0.0991  0.4376  0.0652
    3TTP    C3419348   9.265   1.773   9.422  0.2797 -0.2074  0.3328
    3TTP    C3519349   9.312   1.680   9.314 -0.3000 -0.4593 -0.1306
    3TTP    C3619350   9.262   1.542   9.355  0.8694  0.4417  0.7389
    3TTP    C3719351   9.301   1.421   9.267 -0.0039  0.9357 -0.8508
    3TTP    C3819352   9.268   1.430   9.124  0.1721 -0.4116  0.5048
    3TTP    C3919353   9.118   1.452   9.078  0.3364 -0.5157 -0.0643
    3TTP    C4019354   8.996   1.382   9.145  0.2649 -1.0107  0.4578
    3TTP    C4119355   8.860   1.394   9.078 -0.1022 -0.2880 -0.4434
    3TTP    C4219356   8.830   1.326   8.946 -0.1409  0.1055  0.2093
    4BIM     F119357   9.273   3.859   8.899 -0.1945 -0.0810  0.0005
    4BIM     F219358   9.321   3.934   8.641  0.0269 -0.1044  0.0343
    4BIM     O119359   9.071   3.362   8.824 -0.0098 -0.1383 -0.1206
    4BIM     N519360   9.246   3.687   8.219  0.4778 -0.1790 -0.0031
    4BIM     N619361   9.079   3.284   8.213  0.5777 -0.2191 -0.1047
    4BIM    C1919362   9.045   3.257   8.552  0.2677 -0.1811 -0.1314
    4BIM    C2019363   9.094   3.379   8.581  0.2127 -0.1658 -0.1020
    4BIM    C2119364   9.104   3.426   8.723  0.0691 -0.1441 -0.0987
    4BIM    C2219365   9.161   3.562   8.719  0.0420 -0.1315 -0.0639
    4BIM    C2319366   9.189   3.646   8.826 -0.0780 -0.1104 -0.0489
    4BIM    C2419367   9.243   3.771   8.797 -0.0798 -0.1018 -0.0159
    4BIM    C2519368   9.268   3.809   8.665  0.0346 -0.1139  0.0018
    4BIM    C2619369   9.240   3.726   8.557  0.1545 -0.1348 -0.0131
    4BIM    C2719370   9.186   3.599   8.584  0.1581 -0.1439 -0.0465
    4BIM    C2819371   9.145   3.488   8.494  0.2675 -0.1655 -0.0696
    4BIM    C2919372   9.154   3.487   8.357  0.3958 -0.1820 -0.0620
    4BIM    C3019373   9.205   3.597   8.282  0.4404 -0.1803 -0.0296
    4BIM    C3119374   9.112   3.375   8.278  0.4952 -0.2024 -0.0854
    5BIM     F119375   9.926   2.590  10.016 -0.4420  0.3252  0.1308
    5BIM     F219376   9.975   2.346  10.125  0.2897  0.1903 -0.4800
    5BIM     O119377   9.515   2.475   9.683 -0.7479  0.1326  0.5747
    5BIM     N519378   9.751   1.912  10.044  1.1239 -0.1409 -1.0418
    5BIM     N619379   9.420   1.871   9.763  0.7370 -0.2642 -0.5718
    5BIM    C1919380   9.415   2.200   9.669 -0.1576 -0.0647  0.1488
    5BIM    C2019381   9.516   2.239   9.749 -0.1092 -0.0110  0.0610
    5BIM    C2119382   9.562   2.382   9.750 -0.4261  0.0900  0.2936
    5BIM    C2219383   9.673   2.389   9.847 -0.2787  0.1274  0.1217
    5BIM    C2319384   9.748   2.501   9.882 -0.4694  0.2180  0.2387
    5BIM    C2419385   9.849   2.484   9.976 -0.2710  0.2372  0.0308
    5BIM    C2519386   9.873   2.358  10.032  0.1061  0.1675 -0.2837
    5BIM    C2619387   9.799   2.245   9.997  0.2978  0.0771 -0.4020
    5BIM    C2719388   9.697   2.261   9.902  0.1016  0.0564 -0.1952
    5BIM    C2819389   9.602   2.164   9.844  0.2210 -0.0315 -0.2450
    5BIM    C2919390   9.594   2.029   9.874  0.5703 -0.1158 -0.5218
    5BIM    C3019391   9.680   1.965   9.967  0.8733 -0.1293 -0.8067
    5BIM    C3119392   9.498   1.943   9.812  0.6599 -0.1969 -0.5477
    1BTD     S219393   3.545   9.089   4.739  0.1128 -0.2912 -0.3003
    1BTD     N119394   3.656   9.218   4.799 -0.0852 -0.2737  0.0334
    1BTD     N219395   3.459   9.196   4.624  0.2320 -0.2282 -0.3312
    1BTD     N319396   3.481   9.647   4.496  0.1172 -0.0687  0.2085
    1BTD     N419397   3.724   9.674   4.712 -0.2737 -0.1247  0.6576
    1BTD     C519398   3.688   9.456   4.751 -0.1788 -0.1953  0.3538
    1BTD     C619399   3.624   9.328   4.733 -0.0540 -0.2244  0.1011
    1BTD     C719400   3.514   9.316   4.635  0.1236 -0.1993 -0.1030
    1BTD     C819401   3.474   9.432   4.559  0.1674 -0.1457 -0.0440
    1BTD    C1519402   3.540   9.554   4.580  0.0407 -0.1185  0.2063
    1BTD    C1619403   3.646   9.566   4.675 -0.1303 -0.1431  0.4029
    1BTD    C4319404   3.768   9.782   4.615  0.3365  0.1655  0.0861
    1BTD    C4419405   3.832   9.915   4.651 -0.6107 -0.6325 -0.3803
    1BTD    C4519406   3.745  10.009   4.735  0.5265 -0.7750  0.7217
    1BTD    C4619407   3.667   9.970   4.858 -0.4497  0.3304  0.0653
    1BTD    C4719408   3.906   9.989   4.536 -0.0651  0.1599  0.3797
    1BTD    C4819409   4.004   9.924   4.442  0.3743  0.4957 -0.1457
    1BTD    C4919410   4.061  10.017   4.339 -0.3326 -0.5618  0.0475
    1BTD    C5019411   3.986  10.048   4.205  0.0260  0.4581 -0.2490
    1BTD    C7519412   3.451   9.786   4.536 -0.7146  0.0801 -0.4058
    1BTD    C7619413   3.436   9.898   4.434  0.6004  0.0931  0.1266
    1BTD    C7719414   3.560   9.912   4.348 -0.4814  0.2056 -0.2279
    1BTD    C7819415   3.554  10.015   4.237 -0.0048  0.2914  0.6433
    1BTD    C7919416   3.392  10.024   4.505 -0.0010 -0.3649 -0.0349
    1BTD    C8019417   3.256  10.034   4.571 -0.1568  0.3498 -0.8061
    1BTD    C8119418   3.138  10.025   4.476  0.2469  0.7802  0.5572
    1BTD    C8219419   3.111  10.119   4.362 -0.1781 -0.9352  0.1356
    2TTP     S119420   3.898   9.435   4.964  0.0398 -0.0660  0.0382
    2TTP     S519421   4.011   9.845   4.901 -0.2193  0.0081  0.0581
    2TTP     C119422   4.121   9.773   5.026 -0.1188  0.0471 -0.0079
    2TTP     C219423   4.093   9.643   5.053 -0.0328  0.0262 -0.0179
    2TTP     C319424   3.983   9.594   4.975 -0.0433 -0.0210  0.0260
    2TTP     C419425   3.788   9.507   4.838 -0.0609 -0.1047  0.1042
    2TTP    C1719426   3.816   9.638   4.811 -0.1468 -0.0840  0.1141
    2TTP    C1819427   3.926   9.686   4.889 -0.1363 -0.0370  0.0701
    2TTP    C3219428   4.149   9.552   5.150  0.1919 -0.2228 -0.7042
    2TTP    C3319429   4.064   9.538   5.279 -0.1438 -0.4872 -0.2630
    2TTP    C3419430   4.143   9.480   5.392  0.7081  0.1410 -0.4515
    2TTP    C3519431   4.049   9.475   5.517  0.3126 -0.6358  0.0167
    2TTP    C3619432   4.111   9.417   5.644  0.4302  0.5033  0.9074
    2TTP    C3719433   4.146   9.268   5.628 -0.3303 -0.0404  0.7252
    2TTP    C3819434   4.225   9.210   5.748 -0.1877 -0.0699 -0.2268
    2TTP    C3919435   4.281   9.067   5.765  0.0688  0.3285  0.1965
    2TTP    C4019436   4.180   8.957   5.732  0.2696 -0.0311  0.1722
    2TTP    C4119437   4.230   8.823   5.791 -0.2729 -0.3495 -0.2907
    2TTP    C4219438   4.122   8.716   5.760 -0.0168  0.4066 -0.4278
    3TTP     S119439   3.284   9.342   4.350  0.0202  0.0148  0.0579
    3TTP     S519440   3.281   9.741   4.191  0.0710  0.0365  0.1111
    3TTP     C119441   3.187   9.633   4.079  0.0795  0.0580  0.0833
    3TTP     C219442   3.183   9.504   4.121  0.0643  0.0529  0.0653
    3TTP     C319443   3.253   9.485   4.244  0.0455  0.0312  0.0728
    3TTP     C419444   3.377   9.450   4.463  0.0118 -0.0067  0.0857
    3TTP    C1719445   3.382   9.579   4.421  0.0270 -0.0016  0.1037
    3TTP    C1819446   3.312   9.598   4.297  0.0458  0.0198  0.0963
    3TTP    C3219447   3.108   9.385   4.056  0.2058 -0.4656 -0.2984
    3TTP    C3319448   3.189   9.284   3.990  0.1645  0.6988  0.3500
    3TTP    C3419449   3.287   9.332   3.885  0.5121 -0.3055  0.2995
    3TTP    C3519450   3.348   9.228   3.786  0.7698  0.0452 -0.4700
    3TTP    C3619451   3.259   9.116   3.728  0.1031  0.1189 -0.0351
    3TTP    C3719452   3.140   9.165   3.657 -0.2839  0.6225  1.1624
    3TTP    C3819453   3.045   9.053   3.626  0.5225 -0.5836  0.1976
    3TTP    C3919454   2.890   9.084   3.631 -0.3544 -0.6544 -0.0617
    3TTP    C4019455   2.844   9.220   3.574  0.5087  0.2642  0.6073
    3TTP    C4119456   2.864   9.231   3.421 -0.3849 -0.4873  0.1179
    3TTP    C4219457   2.908   9.369   3.386 -0.8151  0.0174  0.3606
    4BIM     F119458   4.601  10.387   4.774  0.0501 -0.0347 -0.1365
    4BIM     F219459   4.743  10.362   5.004  0.0241  0.0429 -0.1123
    4BIM     O119460   4.237   9.991   4.836 -0.0640  0.0964  0.0339
    4BIM     N519461   4.690  10.045   5.380 -0.0948  0.2479  0.0445
    4BIM     N619462   4.377   9.740   5.382 -0.1785  0.3347  0.1727
    4BIM    C1919463   4.244   9.826   5.079 -0.1292  0.2171  0.1179
    4BIM    C2019464   4.330   9.927   5.054 -0.0997  0.1811  0.0739
    4BIM    C2119465   4.320  10.007   4.927 -0.0671  0.1196  0.0325
    4BIM    C2219466   4.428  10.108   4.932 -0.0399  0.0927 -0.0095
    4BIM    C2319467   4.458  10.204   4.837 -0.0054  0.0362 -0.0559
    4BIM    C2419468   4.565  10.289   4.864  0.0155  0.0206 -0.0900
    4BIM    C2519469   4.638  10.276   4.983  0.0021  0.0606 -0.0772
    4BIM    C2619470   4.609  10.180   5.078 -0.0323  0.1171 -0.0308
    4BIM    C2719471   4.501  10.093   5.053 -0.0540  0.1337  0.0039
    4BIM    C2819472   4.444   9.982   5.132 -0.0912  0.1896  0.0557
    4BIM    C2919473   4.488   9.938   5.255 -0.1135  0.2397  0.0817
    4BIM    C3019474   4.599   9.997   5.323 -0.1030  0.2440  0.0610
    4BIM    C3119475   4.427   9.829   5.324 -0.1493  0.2917  0.1317
    5BIM     F119476   2.804  10.337   3.893 -0.3319  0.0315  0.2827
    5BIM     F219477   2.767  10.243   3.641 -0.1211  0.2201  0.1808
    5BIM     O119478   3.054   9.916   4.124 -0.4076 -0.0912  0.1411
    5BIM     N519479   2.892   9.808   3.442  0.1280  0.4038 -0.0665
    5BIM     N619480   3.094   9.497   3.673  0.0262  0.2699 -0.1566
    5BIM    C1919481   3.107   9.676   3.965 -0.2332  0.0454 -0.0066
    5BIM    C2019482   3.046   9.786   3.916 -0.2223  0.0689  0.0331
    5BIM    C2119483   3.022   9.905   4.005 -0.3158 -0.0054  0.1086
    5BIM    C2219484   2.953  10.006   3.921 -0.2766  0.0440  0.1360
    5BIM    C2319485   2.911  10.133   3.959 -0.3341  0.0047  0.2034
    5BIM    C2419486   2.848  10.211   3.863 -0.2798  0.0656  0.2170
    5BIM    C2519487   2.830  10.162   3.733 -0.1710  0.1628  0.1646
    5BIM    C2619488   2.872  10.035   3.694 -0.1132  0.2024  0.0971
    5BIM    C2719489   2.935   9.955   3.790 -0.1668  0.1419  0.0823
    5BIM    C2819490   2.991   9.818   3.782 -0.1292  0.1610  0.0170
    5BIM    C2919491   2.992   9.737   3.671 -0.0276  0.2476 -0.0463
    5BIM    C3019492   2.937   9.776   3.546  0.0576  0.3332 -0.0572
    5BIM    C3119493   3.048   9.605   3.673  0.0015  0.2593 -0.1066
    1BTD     S219494   6.990   5.197   4.369 -0.0313 -0.0209  0.1713
    1BTD     N119495   7.169   5.217   4.371 -0.0005 -0.2543 -0.2475
    1BTD     N219496   6.993   5.029   4.432 -0.1193  0.0709  0.4243
    1BTD     N319497   7.322   4.720   4.562 -0.2428 -0.1634  0.1838
    1BTD     N419498   7.538   4.952   4.487 -0.0964 -0.5643 -0.6440
    1BTD     C519499   7.359   5.076   4.432 -0.0523 -0.4115 -0.4444
    1BTD     C619500   7.219   5.102   4.415 -0.0546 -0.2520 -0.1806
    1BTD     C719501   7.120   4.997   4.450 -0.1211 -0.0699  0.1954
    1BTD     C819502   7.167   4.871   4.499 -0.1820 -0.0563  0.2887
    1BTD    C1519503   7.306   4.849   4.514 -0.1775 -0.2161  0.0215
    1BTD    C1619504   7.400   4.950   4.481 -0.1134 -0.3914 -0.3408
    1BTD    C4319505   7.625   4.872   4.580 -0.0775  0.3753 -0.0536
    1BTD    C4419506   7.672   4.927   4.717 -0.2052 -0.6579  0.2029
    1BTD    C4519507   7.557   4.989   4.799 -0.7852 -0.0510  0.4617
    1BTD    C4619508   7.591   5.047   4.942  0.0117 -0.1206 -0.3521
    1BTD    C4719509   7.760   4.837   4.800 -0.1527  0.1035  0.4783
    1BTD    C4819510   7.897   4.783   4.747  0.0795  0.2187  0.2354
    1BTD    C4919511   7.962   4.704   4.859  0.2839 -0.1490  0.0970
    1BTD    C5019512   8.091   4.642   4.819 -0.5073  0.1125 -0.2244
    1BTD    C7519513   7.432   4.632   4.517 -0.1135  0.2620 -0.1971
    1BTD    C7619514   7.469   4.497   4.591  0.3235 -0.4727 -0.3524
    1BTD    C7719515   7.548   4.511   4.727  0.3266  0.1715  0.2076
    1BTD    C7819516   7.486   4.591   4.840 -0.3858 -0.1500  0.2045
    1BTD    C7919517   7.549   4.395   4.513 -0.1234  0.3615  0.4403
    1BTD    C8019518   7.510   4.340   4.372  0.6107  0.2204 -0.0302
    1BTD    C8119519   7.361   4.298   4.357 -0.2566  0.4144 -0.3620
    1BTD    C8219520   7.329   4.158   4.413  0.0505  0.0115 -0.0062
    2TTP     S119521   7.523   5.316   4.344  0.0410  0.0797  0.0019
    2TTP     S519522   7.884   5.105   4.444 -0.0579  0.0100  0.2131
    2TTP     C119523   7.928   5.271   4.384  0.0108 -0.0104  0.2076
    2TTP     C219524   7.819   5.346   4.350  0.0454  0.0099  0.1419
    2TTP     C319525   7.697   5.275   4.370  0.0188  0.0423  0.0939
    2TTP     C419526   7.478   5.150   4.404 -0.0278  0.1000  0.0075
    2TTP    C1719527   7.587   5.075   4.438 -0.0622  0.0797  0.0731
    2TTP    C1819528   7.710   5.146   4.419 -0.0356  0.0472  0.1214
    2TTP    C3219529   7.827   5.489   4.281  0.7313 -0.0857 -0.2173
    2TTP    C3319530   7.753   5.610   4.347  0.4221  0.4635 -0.0896
    2TTP    C3419531   7.741   5.731   4.256  0.6977 -0.5844 -0.5179
    2TTP    C3519532   7.879   5.787   4.219  0.0857  0.1704  0.9245
    2TTP    C3619533   7.875   5.920   4.141  0.0158  0.0998  0.3130
    2TTP    C3719534   8.010   5.942   4.081 -0.8717 -0.4362 -0.2435
    2TTP    C3819535   8.011   6.067   3.997 -0.5109 -0.1508 -0.0689
    2TTP    C3919536   7.948   6.067   3.859  0.0710  0.1744 -0.6287
    2TTP    C4019537   7.910   6.203   3.809 -0.3937 -0.1970  0.6734
    2TTP    C4119538   7.800   6.188   3.702  0.2654  0.4513  0.0176
    2TTP    C4219539   7.754   6.329   3.667  1.1639 -0.3892 -0.3055
    3TTP     S119540   6.933   4.682   4.536  0.2325  0.1278  0.2609
    3TTP     S519541   7.201   4.380   4.685  0.1575 -0.1304 -0.1220
    3TTP     C119542   7.031   4.315   4.690  0.1303 -0.0597 -0.1160
    3TTP     C219543   6.938   4.404   4.644  0.1519  0.0244  0.0029
    3TTP     C319544   6.998   4.527   4.604  0.1906  0.0356  0.0931
    3TTP     C419545   7.103   4.747   4.531  0.2598  0.0570  0.2551
    3TTP    C1719546   7.195   4.658   4.576  0.2383 -0.0271  0.1362
    3TTP    C1819547   7.136   4.535   4.617  0.1993 -0.0384  0.0459
    3TTP    C3219548   6.785   4.396   4.656 -0.6699 -0.5728  0.2221
    3TTP    C3319549   6.701   4.437   4.531  0.0267  0.2616  0.3873
    3TTP    C3419550   6.552   4.475   4.532 -0.0602  0.1705  0.2011
    3TTP    C3519551   6.445   4.373   4.560 -0.4573  0.3916 -0.7722
    3TTP    C3619552   6.434   4.245   4.474  0.3041 -0.0515 -0.2999
    3TTP    C3719553   6.323   4.155   4.523 -0.0153 -0.2990  0.4973
    3TTP    C3819554   6.315   4.023   4.435 -0.2380  0.5315 -0.5050
    3TTP    C3919555   6.242   3.907   4.499  0.2326  0.0594 -0.0320
    3TTP    C4019556   6.253   3.841   4.638 -0.3629  0.0773  0.0838
    3TTP    C4119557   6.386   3.780   4.691  0.3874 -0.0852 -0.0104
    3TTP    C4219558   6.379   3.744   4.832 -0.0718 -0.1678 -0.1760
    4BIM     F119559   8.646   5.034   4.712  0.2217  0.4265  0.0578
    4BIM     F219560   8.772   5.202   4.540  0.0970  0.2623 -0.1955
    4BIM     O119561   8.128   5.126   4.585  0.1333  0.2208  0.2671
    4BIM     N519562   8.585   5.511   4.201 -0.1457 -0.1206 -0.4103
    4BIM     N619563   8.154   5.549   4.136 -0.1898 -0.2484 -0.1956
    4BIM    C1919564   8.065   5.320   4.375 -0.0178 -0.0093  0.0996
    4BIM    C2019565   8.190   5.290   4.413  0.0095  0.0489  0.0567
    4BIM    C2119566   8.215   5.190   4.522  0.0875  0.1668  0.1489
    4BIM    C2219567   8.361   5.181   4.539  0.0992  0.2050  0.0712
    4BIM    C2319568   8.432   5.101   4.628  0.1631  0.3089  0.1138
    4BIM    C2419569   8.570   5.110   4.626  0.1609  0.3257  0.0221
    4BIM    C2519570   8.635   5.197   4.537  0.0962  0.2410 -0.1084
    4BIM    C2619571   8.565   5.277   4.448  0.0324  0.1371 -0.1519
    4BIM    C2719572   8.425   5.270   4.449  0.0339  0.1185 -0.0602
    4BIM    C2819573   8.322   5.340   4.368 -0.0238  0.0191 -0.0740
    4BIM    C2919574   8.346   5.434   4.270 -0.0949 -0.0812 -0.1869
    4BIM    C3019575   8.477   5.476   4.232 -0.1225 -0.1025 -0.3093
    4BIM    C3119576   8.240   5.497   4.197 -0.1466 -0.1727 -0.1911
    5BIM     F119577   7.405   3.635   4.964  0.0805  0.1449  0.1949
    5BIM     F219578   7.171   3.501   4.932  0.1720  0.0033  0.1178
    5BIM     O119579   7.259   4.135   4.815 -0.1596  0.0463  0.0983
    5BIM     N519580   6.729   3.664   4.779  0.1327 -0.2705 -0.0620
    5BIM     N619581   6.663   4.082   4.669 -0.0733 -0.3191 -0.1220
    5BIM    C1919582   6.983   4.184   4.731 -0.1573 -0.1240 -0.0097
    5BIM    C2019583   7.029   4.064   4.770 -0.1005 -0.0937  0.0176
    5BIM    C2119584   7.172   4.046   4.812 -0.1057 -0.0055  0.0731
    5BIM    C2219585   7.189   3.904   4.847 -0.0350  0.0069  0.0910
    5BIM    C2319586   7.304   3.840   4.892 -0.0139  0.0790  0.1397
    5BIM    C2419587   7.295   3.705   4.920  0.0561  0.0760  0.1476
    5BIM    C2519588   7.174   3.636   4.903  0.1031  0.0029  0.1077
    5BIM    C2619589   7.059   3.699   4.858  0.0826 -0.0691  0.0591
    5BIM    C2719590   7.066   3.836   4.830  0.0118 -0.0672  0.0503
    5BIM    C2819591   6.963   3.931   4.782 -0.0265 -0.1321  0.0037
    5BIM    C2919592   6.831   3.903   4.753  0.0012 -0.2123 -0.0434
    5BIM    C3019593   6.776   3.772   4.767  0.0733 -0.2440 -0.0534
    5BIM    C3119594   6.739   4.001   4.707 -0.0399 -0.2706 -0.0863
    1BTD     S219595   7.456   6.410   8.435 -0.0775  0.3013  0.1469
    1BTD     N119596   7.567   6.550   8.418  0.0265  0.2055  0.0412
    1BTD     N219597   7.580   6.301   8.505 -0.1605  0.2639  0.2367
    1BTD     N319598   8.036   6.331   8.615 -0.1421  0.0144  0.2303
    1BTD     N419599   8.019   6.638   8.507  0.0880 -0.0575 -0.0105
    1BTD     C519600   7.803   6.593   8.466  0.0558  0.0691  0.0174
    1BTD     C619601   7.685   6.510   8.462 -0.0045  0.1533  0.0770
    1BTD     C719602   7.693   6.371   8.511 -0.1092  0.1858  0.1867
    1BTD     C819603   7.818   6.321   8.561 -0.1481  0.1328  0.2303
    1BTD    C1519604   7.931   6.405   8.563 -0.0864  0.0507  0.1688
    1BTD    C1619605   7.924   6.539   8.516  0.0146  0.0193  0.0638
    1BTD    C4319606   8.149   6.613   8.443 -0.3151  0.0436 -0.9858
    1BTD    C4419607   8.264   6.718   8.425  0.2737  0.1174 -0.0540
    1BTD    C4519608   8.338   6.726   8.562 -0.2818 -0.0884  0.1034
    1BTD    C4619609   8.436   6.839   8.587  0.0861  0.1846  0.1625
    1BTD    C4719610   8.358   6.676   8.308  0.3200  0.5007  0.7095
    1BTD    C4819611   8.300   6.673   8.169  0.1160 -1.0162 -0.1431
    1BTD    C4919612   8.247   6.805   8.115  0.4723  0.1860  0.4077
    1BTD    C5019613   8.357   6.897   8.064  0.7543 -0.4406  0.1660
    1BTD    C7519614   8.171   6.386   8.658 -0.0348 -0.4437 -1.1561
    1BTD    C7619615   8.221   6.376   8.804  0.3860  0.1932 -0.2330
    1BTD    C7719616   8.374   6.425   8.816  0.6207  0.0682 -0.3067
    1BTD    C7819617   8.474   6.351   8.731  0.2635  0.0168 -0.1914
    1BTD    C7919618   8.129   6.414   8.917 -0.0597 -0.9642 -0.6860
    1BTD    C8019619   8.175   6.398   9.065  0.2422  0.0437 -0.4250
    1BTD    C8119620   8.108   6.489   9.170 -0.9219 -0.1527  0.1439
    1BTD    C8219621   8.132   6.436   9.315  0.1523  0.0830  0.0869
    2TTP     S119622   7.719   6.873   8.421  0.0163  0.0362 -0.1694
    2TTP     S519623   8.112   7.002   8.538  0.1347 -0.3744 -0.1099
    2TTP     C119624   8.003   7.148   8.532  0.2675 -0.2711 -0.0481
    2TTP     C219625   7.875   7.116   8.495  0.2391 -0.1383 -0.0627
    2TTP     C319626   7.859   6.976   8.471  0.1110 -0.1131 -0.1237
    2TTP     C419627   7.829   6.728   8.427 -0.1165 -0.0670 -0.2313
    2TTP    C1719628   7.956   6.759   8.464 -0.0879 -0.1999 -0.2167
    2TTP    C1819629   7.973   6.899   8.488  0.0401 -0.2249 -0.1562
    2TTP    C3219630   7.749   7.200   8.487  0.1916 -0.8734 -0.4209
    2TTP    C3319631   7.629   7.162   8.580 -0.4337 -0.5187 -0.0089
    2TTP    C3419632   7.508   7.261   8.567  0.1769  0.1376  0.2752
    2TTP    C3519633   7.404   7.222   8.673 -0.6169 -0.1896 -0.3477
    2TTP    C3619634   7.263   7.285   8.660  0.1188  0.3333 -0.6285
    2TTP    C3719635   7.247   7.431   8.633  0.3069  0.0856 -0.0554
    2TTP    C3819636   7.100   7.484   8.616  0.0262  0.6571 -0.0870
    2TTP    C3919637   7.104   7.627   8.596 -0.4515 -0.2912  0.3149
    2TTP    C4019638   6.979   7.693   8.549  0.9319  0.0144  0.3280
    2TTP    C4119639   7.002   7.830   8.500  0.0956 -0.0302  0.2383
    2TTP    C4219640   6.886   7.915   8.448  0.1907  0.2022 -0.1506
    3TTP     S119641   7.790   6.028   8.628  0.0030  0.0733 -0.3449
    3TTP     S519642   8.195   6.024   8.776 -0.0801 -0.0533 -0.1194
    3TTP     C119643   8.120   5.861   8.806 -0.0975 -0.0793 -0.3021
    3TTP     C219644   7.991   5.852   8.762 -0.0726 -0.0417 -0.3822
    3TTP     C319645   7.946   5.974   8.703 -0.0395  0.0088 -0.3026
    3TTP     C419646   7.865   6.191   8.598  0.0200  0.0994 -0.1626
    3TTP    C1719647   7.994   6.200   8.642 -0.0044  0.0618 -0.0821
    3TTP    C1819648   8.039   6.077   8.701 -0.0381  0.0110 -0.1619
    3TTP    C3219649   7.888   5.733   8.784  0.2577 -0.9817  0.1363
    3TTP    C3319650   7.841   5.649   8.666 -0.0330  0.0538 -0.5878
    3TTP    C3419651   7.749   5.550   8.730 -0.1163  0.1184  0.0379
    3TTP    C3519652   7.677   5.446   8.644 -0.2810 -0.5628 -0.6700
    3TTP    C3619653   7.548   5.490   8.586  0.8744 -0.3595 -0.3408
    3TTP    C3719654   7.482   5.364   8.528 -0.1127  0.5808 -0.0539
    3TTP    C3819655   7.344   5.397   8.479 -0.4216 -0.4920  0.1729
    3TTP    C3919656   7.263   5.286   8.414  0.0456  0.4945  0.0694
    3TTP    C4019657   7.236   5.157   8.486  0.3375  0.3574  0.3505
    3TTP    C4119658   7.159   5.058   8.398  0.8795  0.9573  0.4375
    3TTP    C4219659   7.117   4.925   8.462 -0.6093  0.0587 -0.0166
    4BIM     F119660   8.628   7.524   8.911  0.1204  0.1459 -0.2954
    4BIM     F219661   8.488   7.757   8.899 -0.1388  0.0043 -0.0544
    4BIM     O119662   8.285   7.185   8.665  0.2584 -0.0974 -0.1531
    4BIM     N519663   8.042   7.850   8.706 -0.4134 -0.3725  0.3934
    4BIM     N619664   7.802   7.539   8.516 -0.2533 -0.5342  0.4559
    4BIM    C1919665   8.029   7.287   8.566  0.0597 -0.3192  0.1279
    4BIM    C2019666   8.121   7.363   8.629  0.0348 -0.2524  0.0820
    4BIM    C2119667   8.250   7.304   8.677  0.1423 -0.1394 -0.0634
    4BIM    C2219668   8.326   7.413   8.740  0.0823 -0.0894 -0.0782
    4BIM    C2319669   8.452   7.406   8.799  0.1433  0.0148 -0.1948
    4BIM    C2419670   8.504   7.523   8.852  0.0664  0.0442 -0.1838
    4BIM    C2519671   8.432   7.643   8.845 -0.0670 -0.0289 -0.0599
    4BIM    C2619672   8.306   7.651   8.786 -0.1285 -0.1330  0.0572
    4BIM    C2719673   8.252   7.533   8.732 -0.0522 -0.1643  0.0482
    4BIM    C2819674   8.123   7.508   8.664 -0.0868 -0.2673  0.1519
    4BIM    C2919675   8.024   7.600   8.638 -0.2079 -0.3589  0.2861
    4BIM    C3019676   8.034   7.737   8.675 -0.3204 -0.3661  0.3445
    4BIM    C3119677   7.902   7.566   8.571 -0.2322 -0.4548  0.3786
    5BIM     F119678   8.862   5.670   9.106 -0.1497  0.1957  0.5550
    5BIM     F219679   8.756   5.439   9.202 -0.0167 -0.2484 -0.3450
    5BIM     O119680   8.430   5.890   8.864 -0.0641  0.4659  0.6464
    5BIM     N519681   8.295   5.263   9.168  0.2360 -0.6945 -1.5745
    5BIM     N619682   7.979   5.480   8.960  0.2762 -0.3937 -1.3223
    5BIM    C1919683   8.175   5.746   8.870  0.0936  0.1377 -0.1817
    5BIM    C2019684   8.288   5.700   8.927  0.0668  0.0870 -0.1693
    5BIM    C2119685   8.415   5.780   8.920 -0.0150  0.2650  0.2694
    5BIM    C2219686   8.518   5.701   8.992 -0.0248  0.1537  0.1621
    5BIM    C2319687   8.651   5.734   9.011 -0.0911  0.2505  0.4601
    5BIM    C2419688   8.729   5.644   9.082 -0.0867  0.1110  0.2797
    5BIM    C2519689   8.674   5.525   9.132 -0.0176 -0.1177 -0.1841
    5BIM    C2619690   8.541   5.491   9.112  0.0482 -0.2152 -0.4833
    5BIM    C2719691   8.460   5.581   9.041  0.0446 -0.0769 -0.3071
    5BIM    C2819692   8.317   5.576   9.003  0.1040 -0.1270 -0.5293
    5BIM    C2919693   8.228   5.475   9.033  0.1788 -0.3326 -0.9820
    5BIM    C3019694   8.265   5.359   9.107  0.2100 -0.5307 -1.3063
    5BIM    C3119695   8.092   5.479   8.993  0.2320 -0.3650 -1.1666
    1BTD     S219696   9.205   6.278   4.928 -0.0397  0.1098  0.1277
    1BTD     N119697   9.344   6.387   4.958 -0.0513  0.0489  0.3995
    1BTD     N219698   9.297   6.127   4.960 -0.0329  0.0384 -0.2153
    1BTD     N319699   9.736   6.016   5.082 -0.0391 -0.2172 -0.4234
    1BTD     N419700   9.795   6.336   5.080 -0.0618 -0.2041  0.3338
    1BTD     C519701   9.579   6.356   5.022 -0.0567 -0.0833  0.3561
    1BTD     C619702   9.447   6.309   4.990 -0.0491 -0.0180  0.2292
    1BTD     C719703   9.420   6.164   4.991 -0.0389 -0.0241 -0.1148
    1BTD     C819704   9.527   6.073   5.024 -0.0365 -0.0950 -0.3148
    1BTD    C1519705   9.654   6.124   5.055 -0.0437 -0.1574 -0.1804
    1BTD    C1619706   9.680   6.264   5.054 -0.0535 -0.1517  0.1512
    1BTD    C4319707   9.928   6.291   5.052 -0.4949  0.2343 -0.6285
    1BTD    C4419708  10.051   6.338   5.131  0.5342 -0.6189  0.2748
    1BTD    C4519709  10.196   6.331   5.072 -0.3769  0.6441  0.0994
    1BTD    C4619710  10.213   6.375   4.924  0.3063  0.4513  0.3442
    1BTD    C4719711  10.035   6.293   5.280  0.4928  0.2439  0.7827
    1BTD    C4819712  10.126   6.322   5.394 -0.9307  0.4896  0.4017
    1BTD    C4919713  10.135   6.471   5.413 -0.3254 -0.4120  0.0546
    1BTD    C5019714  10.237   6.511   5.513 -0.0315 -0.2636  0.1275
    1BTD    C7519715   9.826   6.020   5.205 -0.0737  0.3375  0.2117
    1BTD    C7619716   9.946   5.919   5.211  0.0984  0.5302  0.5972
    1BTD    C7719717  10.002   5.925   5.353  0.1682 -0.1906  0.2476
    1BTD    C7819718   9.927   5.830   5.457 -0.1986  0.7872  0.7350
    1BTD    C7919719  10.055   5.919   5.097  0.2730 -0.9252 -0.6605
    1BTD    C8019720  10.154   5.798   5.109 -0.0663 -0.5326 -0.1038
    1BTD    C8119721  10.279   5.797   5.009  0.9891 -0.3843 -0.1717
    1BTD    C8219722  10.245   5.791   4.859 -0.1168 -0.2406  0.1074
    2TTP     S119723   9.589   6.652   4.979  0.2681 -0.2922 -0.1409
    2TTP     S519724  10.009   6.652   5.071  0.2412 -0.1043 -0.0160
    2TTP     C119725   9.960   6.821   5.025  0.2000 -0.1459 -0.1266
    2TTP     C219726   9.827   6.831   4.994  0.2059 -0.2064 -0.1717
    2TTP     C319727   9.760   6.706   5.005  0.2432 -0.2218 -0.1205
    2TTP     C419728   9.638   6.483   5.025  0.3093 -0.2505 -0.0303
    2TTP    C1719729   9.771   6.473   5.056  0.3034 -0.1899  0.0147
    2TTP    C1819730   9.838   6.599   5.045  0.2662 -0.1745 -0.0365
    2TTP    C3219731   9.751   6.964   4.962 -0.1109  0.6477 -0.0693
    2TTP    C3319732   9.666   6.966   4.837  0.4616 -0.0005 -0.8231
    2TTP    C3419733   9.579   7.092   4.842 -0.2434  0.6239 -0.4263
    2TTP    C3519734   9.510   7.125   4.712  0.3205 -1.1853 -0.3744
    2TTP    C3619735   9.433   7.257   4.713 -0.2583 -0.4575  0.5589
    2TTP    C3719736   9.349   7.289   4.587 -0.2640 -0.2288 -0.0205
    2TTP    C3819737   9.247   7.397   4.593 -0.1972 -0.4997 -1.1962
    2TTP    C3919738   9.132   7.397   4.698  0.3661  0.2092  0.3894
    2TTP    C4019739   9.010   7.306   4.680  0.1754  0.0074  0.8880
    2TTP    C4119740   8.928   7.338   4.552 -0.2182  0.1335 -0.6028
    2TTP    C4219741   8.794   7.261   4.548 -0.0316 -0.2378 -0.2211
    3TTP     S119742   9.431   5.795   4.996  0.1884 -0.0386  0.1149
    3TTP     S519743   9.832   5.647   5.040  0.1976 -0.0577 -0.0319
    3TTP     C119744   9.724   5.508   4.994  0.2140 -0.0108 -0.2112
    3TTP     C219745   9.594   5.546   4.977  0.2120 -0.0020 -0.1767
    3TTP     C319746   9.575   5.686   5.001  0.1976 -0.0321 -0.0069
    3TTP     C419747   9.539   5.934   5.042  0.1717 -0.0856  0.2942
    3TTP    C1719748   9.670   5.896   5.059  0.1736 -0.0941  0.2596
    3TTP    C1819749   9.689   5.757   5.035  0.1886 -0.0640  0.0900
    3TTP    C3219750   9.483   5.444   4.953 -0.5664  0.2508 -0.0461
    3TTP    C3319751   9.347   5.462   5.002 -0.1515  0.1357 -0.5367
    3TTP    C3419752   9.264   5.338   4.983  0.1949  0.4334  0.0528
    3TTP    C3519753   9.115   5.355   5.009 -0.3954 -0.1529 -0.1093
    3TTP    C3619754   9.051   5.218   5.016  0.3030  0.3193 -0.1192
    3TTP    C3719755   8.912   5.238   5.067  0.2614  0.1242  0.9061
    3TTP    C3819756   8.834   5.108   5.042  0.8218 -0.2899 -0.0882
    3TTP    C3919757   8.701   5.103   5.116  0.6506  0.8017  0.5902
    3TTP    C4019758   8.625   4.976   5.075 -0.2364 -0.6871  0.0254
    3TTP    C4119759   8.493   4.934   5.140 -0.5158 -0.2194 -1.0136
    3TTP    C4219760   8.363   4.985   5.090 -0.0814 -0.5664 -0.4025
    4BIM     F119761  10.712   7.001   5.312  0.1293 -0.1093 -0.0196
    4BIM     F219762  10.705   7.230   5.165  0.2468 -0.1098 -0.0254
    4BIM     O119763  10.225   6.793   5.198 -0.0163  0.1858  0.0627
    4BIM     N519764  10.350   7.411   4.873  0.3119  0.0998  0.0248
    4BIM     N619765   9.970   7.203   4.813  0.1745  0.3303  0.0900
    4BIM    C1919766  10.046   6.938   5.017  0.0443  0.2901  0.0861
    4BIM    C2019767  10.169   6.982   5.052  0.0763  0.2159  0.0658
    4BIM    C2119768  10.255   6.902   5.145  0.0418  0.1658  0.0548
    4BIM    C2219769  10.380   6.977   5.161  0.0905  0.0890  0.0328
    4BIM    C2319770  10.491   6.942   5.238  0.0814  0.0238  0.0166
    4BIM    C2419771  10.599   7.029   5.238  0.1349 -0.0425 -0.0028
    4BIM    C2519772  10.596   7.147   5.162  0.1953 -0.0425 -0.0058
    4BIM    C2619773  10.486   7.182   5.085  0.2048  0.0226  0.0104
    4BIM    C2719774  10.375   7.095   5.084  0.1512  0.0900  0.0302
    4BIM    C2819775  10.245   7.103   5.014  0.1449  0.1680  0.0503
    4BIM    C2919776  10.203   7.204   4.930  0.1934  0.1910  0.0538
    4BIM    C3019777  10.284   7.317   4.899  0.2584  0.1409  0.0378
    4BIM    C3119778  10.075   7.203   4.866  0.1827  0.2676  0.0737
    5BIM     F119779  10.438   5.144   4.805 -0.0968 -0.0256  0.0602
    5BIM     F219780  10.311   4.904   4.811 -0.0751 -0.0315  0.2861
    5BIM     O119781  10.027   5.479   4.918 -0.1229  0.0430 -0.2341
    5BIM     N519782   9.837   4.795   4.900 -0.0625  0.0086  0.4009
    5BIM     N619783   9.541   5.105   4.988 -0.0873  0.0633  0.1254
    5BIM    C1919784   9.761   5.367   4.965 -0.1115  0.0616 -0.1228
    5BIM    C2019785   9.869   5.293   4.936 -0.1057  0.0445 -0.0577
    5BIM    C2119786  10.003   5.357   4.913 -0.1122  0.0359 -0.1215
    5BIM    C2219787  10.098   5.248   4.884 -0.1034  0.0175 -0.0242
    5BIM    C2319788  10.234   5.259   4.857 -0.1053  0.0044 -0.0384
    5BIM    C2419789  10.303   5.141   4.833 -0.0956 -0.0120  0.0677
    5BIM    C2519790  10.238   5.017   4.836 -0.0844 -0.0151  0.1837
    5BIM    C2619791  10.102   5.006   4.863 -0.0825 -0.0019  0.1987
    5BIM    C2719792  10.030   5.124   4.888 -0.0922  0.0147  0.0926
    5BIM    C2819793   9.887   5.146   4.920 -0.0932  0.0312  0.0765
    5BIM    C2919794   9.790   5.050   4.932 -0.0842  0.0335  0.1687
    5BIM    C3019795   9.816   4.910   4.914 -0.0723  0.0198  0.2960
    5BIM    C3119796   9.654   5.081   4.963 -0.0859  0.0498  0.1444
    1BTD     S219797   8.477   6.658   1.968 -0.1162  0.2383 -0.0993
    1BTD     N119798   8.500   6.498   2.046 -0.1416  0.3129  0.0629
    1BTD     N219799   8.318   6.615   1.894 -0.0117  0.1116 -0.2509
    1BTD     N319800   8.038   6.239   1.885  0.1535 -0.0114 -0.2672
    1BTD     N419801   8.262   6.094   2.072 -0.0064  0.2366  0.1195
    1BTD     C519802   8.373   6.289   2.057 -0.0694  0.2701  0.0877
    1BTD     C619803   8.394   6.424   2.015 -0.0749  0.2434 -0.0011
    1BTD     C719804   8.292   6.490   1.930 -0.0021  0.1305 -0.1767
    1BTD     C819805   8.175   6.417   1.892  0.0727  0.0503 -0.2548
    1BTD    C1519806   8.158   6.284   1.936  0.0753  0.0802 -0.1629
    1BTD    C1619807   8.256   6.221   2.018  0.0052  0.1891  0.0063
    1BTD    C4319808   8.155   6.013   2.122  0.7631  0.8002  0.1542
    1BTD    C4419809   8.148   5.883   2.209 -0.3822  0.0163 -0.3153
    1BTD    C4519810   8.198   5.873   2.357 -0.9031  0.3249  0.1577
    1BTD    C4619811   8.257   5.732   2.399 -0.0446 -0.3199 -0.3446
    1BTD    C4719812   8.010   5.811   2.176  0.0234  0.7036 -0.2546
    1BTD    C4819813   7.886   5.871   2.237  0.5274 -0.0404 -0.0494
    1BTD    C4919814   7.756   5.820   2.174  0.5794  0.1714 -0.2080
    1BTD    C5019815   7.634   5.904   2.211 -0.4361  0.4299 -0.2373
    1BTD    C7519816   7.961   6.117   1.889  0.1220  0.4082 -0.0176
    1BTD    C7619817   7.951   6.016   1.772 -0.2399  0.0917  0.1180
    1BTD    C7719818   8.093   5.982   1.718  0.3199 -0.4733  0.6587
    1BTD    C7819819   8.100   5.907   1.579 -0.6121 -0.4342 -0.3556
    1BTD    C7919820   7.865   5.899   1.789  0.5226  0.2561 -0.5375
    1BTD    C8019821   7.711   5.917   1.816 -0.2500  0.7267  0.2168
    1BTD    C8119822   7.634   5.785   1.821  0.6027  0.5413 -0.5587
    1BTD    C8219823   7.484   5.805   1.842 -0.5867 -0.2214  0.4408
    2TTP     S119824   8.628   6.187   2.166 -0.1601  0.2587 -0.1457
    2TTP     S519825   8.471   5.788   2.129 -0.1414  0.2738 -0.3922
    2TTP     C119826   8.650   5.778   2.159 -0.1198  0.2666 -0.5195
    2TTP     C219827   8.709   5.900   2.173 -0.1247  0.2614 -0.4509
    2TTP     C319828   8.615   6.007   2.159 -0.1450  0.2631 -0.2953
    2TTP     C419829   8.448   6.197   2.136 -0.1819  0.2658 -0.0184
    2TTP    C1719830   8.390   6.075   2.122 -0.1769  0.2711 -0.0870
    2TTP    C1819831   8.484   5.968   2.136 -0.1564  0.2695 -0.2426
    2TTP    C3219832   8.852   5.923   2.203  0.1878 -0.0343  0.3030
    2TTP    C3319833   8.892   6.005   2.331  0.5157  0.0243  0.1578
    2TTP    C3419834   8.827   5.965   2.464  0.8936 -0.1205 -0.3616
    2TTP    C3519835   8.882   5.839   2.531  0.1196 -0.2491 -0.4491
    2TTP    C3619836   8.814   5.796   2.662  0.2423 -0.6706 -0.6841
    2TTP    C3719837   8.685   5.709   2.649  0.1229 -1.2537 -0.2083
    2TTP    C3819838   8.680   5.586   2.563 -0.6261  0.0186 -0.0359
    2TTP    C3919839   8.786   5.482   2.605 -0.1591 -0.6132 -0.2511
    2TTP    C4019840   8.770   5.345   2.550  0.7400 -0.3314 -0.0753
    2TTP    C4119841   8.881   5.244   2.561  0.4376 -0.9623 -0.7480
    2TTP    C4219842   8.827   5.103   2.558 -0.8044 -0.3323  0.0980
    3TTP     S119843   7.975   6.589   1.731 -0.1100 -0.0748 -0.3111
    3TTP     S519844   7.702   6.257   1.730 -0.0545 -0.1278  0.4815
    3TTP     C119845   7.623   6.397   1.646 -0.0280 -0.3793  0.0283
    3TTP     C219846   7.702   6.508   1.642 -0.0436 -0.3778 -0.2431
    3TTP     C319847   7.829   6.486   1.704 -0.0770 -0.1779 -0.1031
    3TTP     C419848   8.055   6.448   1.815 -0.1366  0.1765  0.1420
    3TTP    C1719849   7.975   6.337   1.820 -0.1209  0.1751  0.4135
    3TTP    C1819850   7.848   6.359   1.757 -0.0875 -0.0248  0.2734
    3TTP    C3219851   7.678   6.643   1.572 -0.0839  0.0047  0.5479
    3TTP    C3319852   7.595   6.750   1.645  0.3914  0.9075  0.1810
    3TTP    C3419853   7.460   6.708   1.704  0.7677 -0.0323 -0.5823
    3TTP    C3519854   7.381   6.822   1.769  0.0410 -0.6379  0.3299
    3TTP    C3619855   7.336   6.939   1.689 -0.0332  0.1865  0.6529
    3TTP    C3719856   7.297   6.913   1.536  0.0437 -0.5110 -0.1909
    3TTP    C3819857   7.199   6.801   1.493  0.1282 -0.5080 -0.1157
    3TTP    C3919858   7.060   6.805   1.562  0.0219 -0.3073 -0.0331
    3TTP    C4019859   6.970   6.689   1.529  0.1475  0.9468 -0.3889
    3TTP    C4119860   7.014   6.565   1.603  0.0650 -0.1536 -0.2805
    3TTP    C4219861   6.904   6.462   1.620  0.1252 -0.1167  0.1025
    4BIM     F119862   8.469   4.977   2.184 -0.0515  0.2364  0.1758
    4BIM     F219863   8.727   4.924   2.116 -0.0522  0.0708  0.2996
    4BIM     O119864   8.481   5.517   2.217  0.1948  0.2517 -0.1540
    4BIM     N519865   9.106   5.232   2.042  0.1223 -0.1565  0.2424
    4BIM     N619866   9.064   5.665   2.081  0.3150 -0.1113 -0.0402
    4BIM    C1919867   8.732   5.658   2.164  0.2813  0.0986 -0.1529
    4BIM    C2019868   8.718   5.524   2.158  0.2198  0.1013 -0.0747
    4BIM    C2119869   8.586   5.459   2.187  0.1779  0.1825 -0.0809
    4BIM    C2219870   8.607   5.314   2.172  0.1142  0.1631  0.0160
    4BIM    C2319871   8.513   5.213   2.189  0.0594  0.2182  0.0457
    4BIM    C2419872   8.556   5.082   2.169  0.0045  0.1854  0.1416
    4BIM    C2519873   8.689   5.055   2.134  0.0041  0.1001  0.2052
    4BIM    C2619874   8.783   5.156   2.117  0.0584  0.0446  0.1761
    4BIM    C2719875   8.742   5.288   2.137  0.1149  0.0768  0.0794
    4BIM    C2819876   8.815   5.417   2.127  0.1795  0.0354  0.0260
    4BIM    C2919877   8.948   5.432   2.094  0.1988 -0.0480  0.0631
    4BIM    C3019878   9.035   5.322   2.066  0.1564 -0.1074  0.1615
    4BIM    C3119879   9.011   5.560   2.087  0.2625 -0.0824  0.0061
    5BIM     F119880   7.026   5.844   1.555 -0.3599  0.1459  0.0370
    5BIM     F219881   6.931   5.989   1.346 -0.2691  0.2477  0.0667
    5BIM     O119882   7.446   6.149   1.710 -0.1646 -0.1507  0.0946
    5BIM     N519883   7.094   6.416   1.155  0.0006  0.1829  0.1502
    5BIM     N619884   7.441   6.625   1.318  0.1347 -0.0694  0.1892
    5BIM    C1919885   7.504   6.396   1.565 -0.0087 -0.1587  0.1433
    5BIM    C2019886   7.402   6.314   1.534 -0.0613 -0.0880  0.1276
    5BIM    C2119887   7.378   6.188   1.614 -0.1403 -0.0889  0.1029
    5BIM    C2219888   7.261   6.123   1.554 -0.1826 -0.0024  0.0907
    5BIM    C2319889   7.201   6.003   1.593 -0.2580  0.0274  0.0675
    5BIM    C2419890   7.090   5.961   1.521 -0.2855  0.1121  0.0599
    5BIM    C2519891   7.042   6.036   1.414 -0.2388  0.1644  0.0752
    5BIM    C2619892   7.101   6.155   1.374 -0.1634  0.1348  0.0984
    5BIM    C2719893   7.213   6.200   1.445 -0.1346  0.0496  0.1064
    5BIM    C2819894   7.298   6.320   1.429 -0.0579 -0.0010  0.1297
    5BIM    C2919895   7.283   6.419   1.334  0.0038  0.0275  0.1494
    5BIM    C3019896   7.179   6.417   1.236  0.0017  0.1129  0.1498
    5BIM    C3119897   7.370   6.532   1.326  0.0753 -0.0260  0.1712
    1BTD     S219898   3.779   9.220   0.061  0.1514 -0.1946  0.1339
    1BTD     N119899   3.616   9.206  -0.015  0.1861  0.0157  0.0204
    1BTD     N219900   3.789   9.046   0.105 -0.0939 -0.2134  0.1193
    1BTD     N319901   3.517   8.666   0.057 -0.5312  0.1287 -0.1154
    1BTD     N419902   3.304   8.864  -0.090 -0.1863  0.4108 -0.2372
    1BTD     C519903   3.456   9.025  -0.053 -0.0124  0.2184 -0.1128
    1BTD     C619904   3.580   9.079  -0.004  0.0215  0.0589 -0.0204
    1BTD     C719905   3.677   8.989   0.063 -0.1352 -0.0694  0.0349
    1BTD     C819906   3.644   8.850   0.078 -0.3181 -0.0312 -0.0047
    1BTD    C1519907   3.521   8.802   0.029 -0.3449  0.1266 -0.0953
    1BTD    C1619908   3.428   8.888  -0.035 -0.1937  0.2501 -0.1484
    1BTD    C4319909   3.250   8.737  -0.153  0.0599 -0.4737  0.1579
    1BTD    C4419910   3.099   8.692  -0.157 -0.0741 -0.1601  0.2191
    1BTD    C4519911   3.027   8.673  -0.028  0.0951 -0.1151  0.2925
    1BTD    C4619912   2.995   8.785   0.070 -0.7716  0.3234  0.3719
    1BTD    C4719913   3.094   8.572  -0.243  0.0797  0.5185  1.2160
    1BTD    C4819914   2.967   8.522  -0.317 -0.1852  0.6813 -0.3360
    1BTD    C4919915   2.885   8.628  -0.399  0.1800 -0.2058  0.1739
    1BTD    C5019916   2.764   8.571  -0.474 -0.9820  0.4034  0.1644
    1BTD    C7519917   3.394   8.592   0.088 -0.2996  0.2282 -0.2346
    1BTD    C7619918   3.380   8.441   0.079  0.4590 -0.2147  0.1682
    1BTD    C7719919   3.380   8.399  -0.072 -0.3243 -0.2300 -0.2305
    1BTD    C7819920   3.389   8.255  -0.111  0.3456  0.1793  0.0269
    1BTD    C7919921   3.266   8.387   0.168  0.3655 -0.3514  0.4221
    1BTD    C8019922   3.290   8.404   0.317 -0.0762  0.3488 -0.1151
    1BTD    C8119923   3.195   8.330   0.411 -0.2427 -0.2192 -0.3747
    1BTD    C8219924   3.230   8.369   0.555  0.0381 -0.0647 -0.5067
    2TTP     S119925   3.301   9.251  -0.184  0.0069 -0.0759  0.0973
    2TTP     S519926   2.975   8.977  -0.245  0.0226 -0.0546 -0.0823
    2TTP     C119927   2.925   9.142  -0.304  0.1073 -0.0774 -0.2187
    2TTP     C219928   3.022   9.236  -0.288  0.1074 -0.0849 -0.1717
    2TTP     C319929   3.141   9.182  -0.230  0.0406 -0.0737 -0.0257
    2TTP     C419930   3.352   9.086  -0.125 -0.0778 -0.0534  0.2341
    2TTP    C1719931   3.254   8.992  -0.140 -0.0780 -0.0455  0.1869
    2TTP    C1819932   3.136   9.046  -0.199 -0.0113 -0.0572  0.0408
    2TTP    C3219933   3.018   9.380  -0.330 -0.6908 -0.6344 -0.0481
    2TTP    C3319934   3.076   9.404  -0.467 -0.6369  0.2349  0.1645
    2TTP    C3419935   3.037   9.537  -0.532 -0.6945  0.7913  0.5781
    2TTP    C3519936   3.101   9.542  -0.669  0.3259  0.0223 -0.2183
    2TTP    C3619937   3.062   9.652  -0.766 -0.5873 -0.7883  0.2579
    2TTP    C3719938   3.137   9.635  -0.894  0.1919 -0.0277  0.0113
    2TTP    C3819939   3.114   9.746  -0.995 -0.3352 -0.1775 -0.0930
    2TTP    C3919940   3.207   9.748  -1.115 -0.1388  0.1900 -0.8699
    2TTP    C4019941   3.172   9.816  -1.241 -0.1852 -0.3838 -0.1621
    2TTP    C4119942   3.043   9.779  -1.313 -0.5473  0.5890  0.4471
    2TTP    C4219943   3.033   9.852  -1.448 -0.4347  0.6981  0.2831
    3TTP     S119944   3.877   8.708   0.194 -0.3428 -0.0032 -0.0382
    3TTP     S519945   3.686   8.329   0.126 -0.1751 -0.0677 -0.1496
    3TTP     C119946   3.856   8.298   0.183 -0.2451 -0.0118  0.0920
    3TTP     C219947   3.925   8.414   0.207 -0.3010  0.0110  0.1406
    3TTP     C319948   3.846   8.530   0.182 -0.2906 -0.0141 -0.0111
    3TTP     C419949   3.707   8.738   0.137 -0.2729 -0.0589 -0.2797
    3TTP    C1719950   3.638   8.623   0.113 -0.2169 -0.0821 -0.3284
    3TTP    C1819951   3.717   8.506   0.138 -0.2273 -0.0567 -0.1766
    3TTP    C3219952   4.064   8.434   0.275 -0.3681 -0.2537  0.4197
    3TTP    C3319953   4.162   8.515   0.194  0.0826  0.4344  0.4526
    3TTP    C3419954   4.293   8.556   0.256  0.0023 -0.3956 -0.0488
    3TTP    C3519955   4.388   8.458   0.327  0.4476 -0.2240 -0.5417
    3TTP    C3619956   4.517   8.518   0.357 -0.4331 -0.2756 -0.5910
    3TTP    C3719957   4.627   8.411   0.389 -0.6860 -0.2289  1.1682
    3TTP    C3819958   4.773   8.463   0.427  0.1665 -0.0326  0.2645
    3TTP    C3919959   4.884   8.366   0.435 -0.3435  0.2725  0.7372
    3TTP    C4019960   5.015   8.417   0.494 -0.1031  0.1733 -0.5526
    3TTP    C4119961   5.127   8.307   0.489  1.5726 -0.9849  0.2171
    3TTP    C4219962   5.240   8.365   0.566 -0.0557 -0.2483 -0.0617
    4BIM     F119963   2.168   8.895  -0.073  0.0810  0.6306  0.5901
    4BIM     F219964   2.065   9.051  -0.270  0.0815 -0.5627 -0.3784
    4BIM     O119965   2.697   8.999  -0.127  0.0057  1.0118  0.5796
    4BIM     N519966   2.292   9.350  -0.593  0.0287 -2.0061 -1.7776
    4BIM     N619967   2.726   9.400  -0.595 -0.0303 -1.4672 -1.5905
    4BIM    C1919968   2.786   9.185  -0.335 -0.0206  0.0074 -0.3491
    4BIM    C2019969   2.657   9.153  -0.314 -0.0016 -0.0415 -0.3088
    4BIM    C2119970   2.619   9.057  -0.205  0.0110  0.4950  0.1819
    4BIM    C2219971   2.472   9.044  -0.209  0.0305  0.2856  0.0944
    4BIM    C2319972   2.391   8.966  -0.127  0.0471  0.6220  0.4389
    4BIM    C2419973   2.254   8.970  -0.150  0.0641  0.3253  0.2690
    4BIM    C2519974   2.201   9.051  -0.252  0.0644 -0.2898 -0.2297
    4BIM    C2619975   2.281   9.129  -0.334  0.0479 -0.6282 -0.5753
    4BIM    C2719976   2.420   9.126  -0.312  0.0305 -0.3350 -0.4106
    4BIM    C2819977   2.531   9.196  -0.381  0.0108 -0.5608 -0.6783
    4BIM    C2919978   2.520   9.284  -0.486  0.0051 -1.1401 -1.1737
    4BIM    C3019979   2.395   9.320  -0.544  0.0181 -1.6141 -1.5039
    4BIM    C3119980   2.634   9.347  -0.545 -0.0143 -1.3168 -1.4000
    5BIM     F119981   3.631   7.511   0.083  0.0105  0.0242 -0.4174
    5BIM     F219982   3.873   7.437   0.182 -0.0364 -0.0359 -0.3481
    5BIM     O119983   3.673   8.051   0.101  0.0811  0.0136 -0.2639
    5BIM     N519984   4.251   7.716   0.339 -0.0536 -0.1301 -0.1391
    5BIM     N619985   4.235   8.152   0.333  0.0111 -0.1264 -0.0331
    5BIM    C1919986   3.919   8.172   0.203  0.0614 -0.0477 -0.1432
    5BIM    C2019987   3.899   8.039   0.194  0.0454 -0.0429 -0.1845
    5BIM    C2119988   3.770   7.984   0.141  0.0570 -0.0106 -0.2457
    5BIM    C2219989   3.781   7.837   0.145  0.0343 -0.0132 -0.2791
    5BIM    C2319990   3.686   7.743   0.106  0.0353  0.0103 -0.3377
    5BIM    C2419991   3.720   7.610   0.120  0.0111  0.0021 -0.3597
    5BIM    C2519992   3.845   7.572   0.171 -0.0131 -0.0289 -0.3239
    5BIM    C2619993   3.940   7.665   0.211 -0.0140 -0.0525 -0.2654
    5BIM    C2719994   3.908   7.801   0.198  0.0101 -0.0448 -0.2423
    5BIM    C2819995   3.985   7.923   0.230  0.0160 -0.0638 -0.1828
    5BIM    C2919996   4.112   7.928   0.282 -0.0024 -0.0957 -0.1352
    5BIM    C3019997   4.188   7.811   0.313 -0.0304 -0.1144 -0.1375
    5BIM    C3119998   4.179   8.052   0.310  0.0051 -0.1123 -0.0793
    1BTD     S219999   1.724   3.472   7.463 -0.3656  0.1504  0.1646
    1BTD     N120000   1.795   3.321   7.530 -0.2115  0.1701  0.0461
    1BTD     N220001   1.591   3.388   7.377 -0.2733  0.0810  0.0890
    1BTD     N320002   1.447   2.945   7.320  0.1931 -0.0246 -0.2791
    1BTD     N420003   1.700   2.862   7.509  0.2692  0.0852 -0.3319
    1BTD     C520004   1.742   3.082   7.517  0.0386  0.1244 -0.1507
    1BTD     C620005   1.720   3.221   7.486 -0.1048  0.1262 -0.0393
    1BTD     C720006   1.605   3.259   7.400 -0.1393  0.0764 -0.0151
    1BTD     C820007   1.519   3.156   7.349 -0.0289  0.0272 -0.1037
    1BTD    C1520008   1.545   3.021   7.382  0.1099  0.0273 -0.2115
    1BTD    C1620009   1.655   2.985   7.465  0.1432  0.0754 -0.2346
    1BTD    C4320010   1.684   2.730   7.440  0.6127  0.5159  0.6594
    1BTD    C4420011   1.672   2.592   7.509  0.3941 -0.4381  0.1607
    1BTD    C4520012   1.559   2.599   7.620 -0.8506 -0.0730 -0.0665
    1BTD    C4620013   1.539   2.479   7.706 -0.2319  0.1828 -0.3591
    1BTD    C4720014   1.668   2.462   7.426  0.1402  0.0181 -0.2233
    1BTD    C4820015   1.797   2.420   7.349  0.6112 -0.3194 -0.4073
    1BTD    C4920016   1.783   2.315   7.244  0.5660  0.6356 -0.5617
    1BTD    C5020017   1.726   2.359   7.108  0.0012  0.5382  0.6473
    1BTD    C7520018   1.389   2.830   7.394 -0.0117  0.3811 -0.5412
    1BTD    C7620019   1.325   2.710   7.316  0.0463  0.0185  0.3161
    1BTD    C7720020   1.220   2.624   7.385 -0.2310  0.4221 -0.0347
    1BTD    C7820021   1.090   2.697   7.418  0.0824 -0.5667  0.3515
    1BTD    C7920022   1.426   2.629   7.230 -0.4112  0.0784  0.2649
    1BTD    C8020023   1.385   2.527   7.131 -0.0864  0.2999  0.2194
    1BTD    C8120024   1.270   2.534   7.031 -0.4191 -0.1996 -0.4332
    1BTD    C8220025   1.301   2.601   6.901 -0.0831 -0.6495 -0.2479
    2TTP     S120026   1.981   3.060   7.693 -0.2991  0.3109  0.0798
    2TTP     S520027   1.923   2.635   7.722  0.0938  0.2429 -0.1174
    2TTP     C120028   2.072   2.680   7.817 -0.0196  0.3539  0.0086
    2TTP     C220029   2.099   2.814   7.813 -0.1476  0.3814  0.0770
    2TTP     C320030   2.002   2.886   7.736 -0.1608  0.3158  0.0321
    2TTP     C420031   1.832   3.015   7.598 -0.1858  0.1999 -0.0463
    2TTP    C1720032   1.806   2.881   7.602 -0.0577  0.1724 -0.1146
    2TTP    C1820033   1.902   2.809   7.679 -0.0446  0.2379 -0.0699
    2TTP    C3220034   2.210   2.872   7.888 -0.5986 -0.8885 -0.6585
    2TTP    C3320035   2.293   2.975   7.808  0.0216  0.1349  0.5655
    2TTP    C3420036   2.413   3.032   7.877 -0.0581 -0.1054 -0.4907
    2TTP    C3520037   2.526   2.948   7.932 -0.1925 -0.5240  0.0978
    2TTP    C3620038   2.656   3.017   7.951 -0.2291  0.3349  0.0277
    2TTP    C3720039   2.665   3.134   8.047  0.0456  0.3685 -0.5521
    2TTP    C3820040   2.810   3.169   8.085  0.2051 -0.5664 -0.0074
    2TTP    C3920041   2.824   3.295   8.176 -0.2623  1.2459 -1.3321
    2TTP    C4020042   2.965   3.354   8.185  0.1286  0.7344  0.1263
    2TTP    C4120043   3.086   3.268   8.227 -0.3843  0.9012  0.4236
    2TTP    C4220044   3.213   3.342   8.183  0.2776  0.4846 -0.1453
    3TTP     S120045   1.296   3.282   7.191 -0.0162 -0.1937 -0.1993
    3TTP     S520046   1.139   2.892   7.103 -0.2429 -0.1059 -0.1849
    3TTP     C120047   1.040   3.016   7.014 -0.2310 -0.0450 -0.1136
    3TTP     C220048   1.083   3.144   7.036 -0.1603 -0.0685 -0.1140
    3TTP     C320049   1.195   3.148   7.124 -0.1130 -0.1354 -0.1704
    3TTP     C420050   1.395   3.158   7.281 -0.0281 -0.2545 -0.2706
    3TTP    C1720051   1.352   3.031   7.259 -0.0988 -0.2309 -0.2702
    3TTP    C1820052   1.240   3.026   7.170 -0.1462 -0.1641 -0.2139
    3TTP    C3220053   1.023   3.267   6.977  0.8556 -0.4192 -0.2273
    3TTP    C3320054   1.029   3.411   7.042 -0.0756 -0.2100  0.0380
    3TTP    C3420055   1.035   3.532   6.947  0.1267 -0.0435  0.0206
    3TTP    C3520056   0.935   3.517   6.826  0.2140 -0.5074 -0.5395
    3TTP    C3620057   0.925   3.630   6.723  0.4830 -0.4396 -0.1402
    3TTP    C3720058   1.055   3.680   6.664  0.2289 -0.2631  0.0518
    3TTP    C3820059   1.028   3.793   6.565 -0.1600  0.2898 -0.4535
    3TTP    C3920060   1.159   3.879   6.549  0.2798 -1.0580  0.6705
    3TTP    C4020061   1.154   3.970   6.427 -0.8655 -0.1286 -0.5337
    3TTP    C4120062   1.263   4.081   6.420 -0.1526  0.1459 -0.4854
    3TTP    C4220063   1.257   4.180   6.308  0.3451 -0.0927  0.1752
    4BIM     F120064   2.108   1.857   7.842 -0.0548 -0.0306  0.2784
    4BIM     F220065   2.251   1.877   8.072 -0.2193  0.0959  0.3693
    4BIM     O120066   2.038   2.379   7.718 -0.0157 -0.0976 -0.0283
    4BIM     N520067   2.406   2.279   8.316 -0.4283  0.2301  0.2816
    4BIM     N620068   2.323   2.683   8.173 -0.3647  0.1523  0.0238
    4BIM    C1920069   2.150   2.584   7.894 -0.1592 -0.0005 -0.0501
    4BIM    C2020070   2.162   2.452   7.917 -0.1625  0.0114  0.0235
    4BIM    C2120071   2.101   2.353   7.821 -0.0862 -0.0411  0.0299
    4BIM    C2220072   2.133   2.219   7.875 -0.1116 -0.0119  0.1178
    4BIM    C2320073   2.098   2.096   7.821 -0.0620 -0.0417  0.1540
    4BIM    C2420074   2.139   1.982   7.890 -0.1000 -0.0042  0.2387
    4BIM    C2520075   2.213   1.993   8.008 -0.1848  0.0610  0.2853
    4BIM    C2620076   2.248   2.116   8.063 -0.2345  0.0910  0.2496
    4BIM    C2720077   2.207   2.232   7.995 -0.1972  0.0538  0.1642
    4BIM    C2820078   2.228   2.375   8.025 -0.2320  0.0708  0.1078
    4BIM    C2920079   2.295   2.427   8.133 -0.3130  0.1301  0.1302
    4BIM    C3020080   2.356   2.346   8.233 -0.3760  0.1850  0.2134
    4BIM    C3120081   2.310   2.568   8.154 -0.3409  0.1419  0.0715
    5BIM     F120082   0.629   2.329   6.828  0.0198  0.0828 -0.0894
    5BIM     F220083   0.486   2.471   6.645 -0.2788  0.1744  0.2140
    5BIM     O120084   0.952   2.715   7.026  0.0700  0.0685 -0.1434
    5BIM     N520085   0.510   2.950   6.524 -0.6723  0.2960  0.6120
    5BIM     N620086   0.791   3.223   6.716 -0.5728  0.2664  0.5087
    5BIM    C1920087   0.930   2.988   6.922 -0.1974  0.1511  0.1275
    5BIM    C2020088   0.854   2.885   6.880 -0.1983  0.1510  0.1292
    5BIM    C2120089   0.872   2.748   6.938 -0.0563  0.1072 -0.0148
    5BIM    C2220090   0.774   2.661   6.869 -0.0970  0.1194  0.0273
    5BIM    C2320091   0.753   2.525   6.890 -0.0027  0.0902 -0.0681
    5BIM    C2420092   0.655   2.464   6.813 -0.0669  0.1096 -0.0018
    5BIM    C2520093   0.582   2.537   6.719 -0.2208  0.1568  0.1545
    5BIM    C2620094   0.602   2.673   6.698 -0.3155  0.1862  0.2502
    5BIM    C2720095   0.701   2.736   6.775 -0.2525  0.1672  0.1854
    5BIM    C2820096   0.747   2.877   6.777 -0.3210  0.1885  0.2543
    5BIM    C2920097   0.699   2.980   6.700 -0.4695  0.2342  0.4050
    5BIM    C3020098   0.595   2.963   6.603 -0.5805  0.2680  0.5183
    5BIM    C3120099   0.750   3.114   6.709 -0.5255  0.2515  0.4612
    1BTD     S220100   8.131   2.890   2.444  0.1109 -0.0834 -0.0331
    1BTD     N120101   8.156   3.022   2.325  0.3061 -0.1975 -0.1201
    1BTD     N220102   8.012   2.801   2.343 -0.0927  0.0764  0.0667
    1BTD     N320103   7.813   2.860   1.921 -0.1551  0.1958  0.1128
    1BTD     N420104   7.991   3.132   1.899  0.3361 -0.1417 -0.1175
    1BTD     C520105   8.068   3.076   2.103  0.3157 -0.1644 -0.1160
    1BTD     C620106   8.078   2.995   2.221  0.2139 -0.1150 -0.0728
    1BTD     C720107   7.997   2.871   2.231 -0.0089  0.0383  0.0318
    1BTD     C820108   7.910   2.835   2.122 -0.1193  0.1347  0.0880
    1BTD    C1520109   7.903   2.918   2.009 -0.0136  0.0816  0.0427
    1BTD    C1620110   7.981   3.037   1.999  0.2014 -0.0662 -0.0581
    1BTD    C4320111   7.878   3.175   1.807  0.6296 -0.2925 -0.3901
    1BTD    C4420112   7.797   3.299   1.853 -0.1524  0.3805  0.3848
    1BTD    C4520113   7.745   3.289   2.002 -0.3820  0.3157  0.6213
    1BTD    C4620114   7.683   3.412   2.063  0.0680 -0.8203 -0.3154
    1BTD    C4720115   7.682   3.321   1.757 -0.9294 -0.6061  0.2076
    1BTD    C4820116   7.716   3.362   1.617 -0.3037  0.0091  0.2440
    1BTD    C4920117   7.589   3.359   1.531 -0.1703 -1.6806 -0.1255
    1BTD    C5020118   7.610   3.406   1.377 -0.3995  0.3428 -0.5224
    1BTD    C7520119   7.814   2.866   1.775 -0.2096  0.2704 -0.3907
    1BTD    C7620120   7.902   2.769   1.685 -0.7711 -0.4838  0.8693
    1BTD    C7720121   7.870   2.789   1.532 -0.5442 -0.5953  0.1799
    1BTD    C7820122   7.732   2.776   1.469  0.2967  0.0374  0.1493
    1BTD    C7920123   8.046   2.738   1.732 -0.3050  0.1933  0.3476
    1BTD    C8020124   8.101   2.624   1.652 -0.2908  0.3656  0.4191
    1BTD    C8120125   8.246   2.592   1.691  0.4845  0.0192  0.1697
    1BTD    C8220126   8.305   2.467   1.629 -0.6680 -1.1363  0.1557
    2TTP     S120127   8.234   3.320   2.143 -0.3320 -0.1438  0.0795
    2TTP     S520128   8.101   3.474   1.764  0.0160 -0.0504 -0.0054
    2TTP     C120129   8.207   3.599   1.843  0.1464 -0.1709  0.0101
    2TTP     C220130   8.255   3.558   1.965  0.0465 -0.2069  0.0373
    2TTP     C320131   8.209   3.428   2.000 -0.1366 -0.1406  0.0468
    2TTP     C420132   8.128   3.195   2.064 -0.4623 -0.0232  0.0640
    2TTP    C1720133   8.080   3.236   1.942 -0.3628  0.0126  0.0368
    2TTP    C1820134   8.126   3.366   1.907 -0.1795 -0.0538  0.0274
    2TTP    C3220135   8.348   3.639   2.056 -0.4447  0.0341 -0.1917
    2TTP    C3320136   8.304   3.646   2.202  0.1245  0.1896  0.8302
    2TTP    C3420137   8.419   3.658   2.305  0.2757 -0.8061 -0.2388
    2TTP    C3520138   8.378   3.621   2.450  0.2847 -0.3768 -1.0369
    2TTP    C3620139   8.475   3.617   2.576  0.7357 -0.1585  0.5408
    2TTP    C3720140   8.553   3.746   2.610 -0.4530  0.5960 -0.1960
    2TTP    C3820141   8.477   3.877   2.621 -0.5188  0.0635 -0.5993
    2TTP    C3920142   8.563   3.990   2.670 -0.2772 -0.3899 -0.4223
    2TTP    C4020143   8.486   4.121   2.659  0.4900 -0.2382 -0.1480
    2TTP    C4120144   8.568   4.244   2.671 -0.1567 -0.1701 -1.0298
    2TTP    C4220145   8.494   4.382   2.662  0.6914  0.0941 -0.2616
    3TTP     S120146   7.750   2.591   2.197  0.2137  0.0508  0.1234
    3TTP     S520147   7.544   2.615   1.820  0.0480  0.1884  0.2221
    3TTP     C120148   7.470   2.481   1.919  0.1766  0.0670  0.1542
    3TTP     C220149   7.529   2.465   2.041  0.2353  0.0173  0.1197
    3TTP     C320150   7.635   2.559   2.061  0.1810  0.0734  0.1457
    3TTP     C420151   7.824   2.725   2.099  0.0851  0.1721  0.1913
    3TTP    C1720152   7.765   2.740   1.977  0.0263  0.2219  0.2258
    3TTP    C1820153   7.659   2.647   1.956  0.0807  0.1658  0.1999
    3TTP    C3220154   7.499   2.355   2.146 -0.3861  0.1813  0.0961
    3TTP    C3320155   7.619   2.270   2.191  0.1163 -0.3424  0.0299
    3TTP    C3420156   7.706   2.193   2.093 -0.1442 -0.2803  0.1769
    3TTP    C3520157   7.643   2.067   2.035 -1.3275  0.5742  0.0264
    3TTP    C3620158   7.737   1.989   1.942 -0.5159 -0.3034 -0.5285
    3TTP    C3720159   7.665   1.899   1.840 -0.2847  0.3383  0.1600
    3TTP    C3820160   7.578   1.969   1.736  0.4856  0.1037 -0.0512
    3TTP    C3920161   7.530   1.882   1.629 -0.0572  0.1548 -0.0416
    3TTP    C4020162   7.432   1.941   1.524 -0.2834 -0.0734  0.3790
    3TTP    C4120163   7.277   1.941   1.554  0.1088 -0.0360 -0.3330
    3TTP    C4220164   7.185   1.969   1.433  0.5674  0.6049 -0.0654
    4BIM     F120165   8.136   3.987   1.120 -0.0544 -0.1807 -0.1342
    4BIM     F220166   8.215   4.217   1.242 -0.3009 -0.0489 -0.2204
    4BIM     O120167   8.161   3.638   1.532  0.3347 -0.0021 -0.0059
    4BIM     N520168   8.348   4.298   1.712 -0.3779  0.2679 -0.2528
    4BIM     N620169   8.352   3.978   2.010 -0.0238  0.3808 -0.1351
    4BIM    C1920170   8.246   3.733   1.796  0.2373  0.1872 -0.0426
    4BIM    C2020171   8.237   3.812   1.687  0.1493  0.1372 -0.0715
    4BIM    C2120172   8.192   3.755   1.555  0.2069  0.0402 -0.0499
    4BIM    C2220173   8.193   3.868   1.459  0.0834  0.0061 -0.0912
    4BIM    C2320174   8.159   3.864   1.324  0.0837 -0.0802 -0.0894
    4BIM    C2420175   8.168   3.984   1.254 -0.0468 -0.0968 -0.1334
    4BIM    C2520176   8.209   4.102   1.317 -0.1738 -0.0287 -0.1777
    4BIM    C2620177   8.242   4.106   1.452 -0.1752  0.0576 -0.1799
    4BIM    C2720178   8.235   3.986   1.525 -0.0436  0.0756 -0.1357
    4BIM    C2820179   8.263   3.956   1.667 -0.0086  0.1588 -0.1253
    4BIM    C2920180   8.306   4.046   1.763 -0.1030  0.2402 -0.1592
    4BIM    C3020181   8.329   4.184   1.735 -0.2542  0.2551 -0.2106
    4BIM    C3120182   8.331   4.008   1.898 -0.0594  0.3171 -0.1457
    5BIM     F120183   6.860   2.559   1.372  0.2722  0.0585 -0.0400
    5BIM     F220184   6.788   2.303   1.428  0.0969  0.1383  0.1015
    5BIM     O120185   7.278   2.625   1.709  0.3619 -0.0646 -0.1269
    5BIM     N520186   6.983   1.981   1.749 -0.0913  0.1654  0.2431
    5BIM     N620187   7.325   2.084   2.002  0.0141  0.0530  0.1466
    5BIM    C1920188   7.358   2.404   1.883  0.2261 -0.0320 -0.0226
    5BIM    C2020189   7.256   2.397   1.796  0.2105 -0.0042 -0.0063
    5BIM    C2120190   7.221   2.515   1.710  0.2838 -0.0235 -0.0628
    5BIM    C2220191   7.106   2.474   1.627  0.2441  0.0159 -0.0272
    5BIM    C2320192   7.038   2.550   1.532  0.2861  0.0151 -0.0578
    5BIM    C2420193   6.932   2.490   1.467  0.2351  0.0568 -0.0133
    5BIM    C2520194   6.895   2.358   1.496  0.1446  0.0978  0.0597
    5BIM    C2620195   6.962   2.282   1.591  0.1023  0.0989  0.0906
    5BIM    C2720196   7.070   2.341   1.658  0.1531  0.0570  0.0463
    5BIM    C2820197   7.161   2.288   1.763  0.1287  0.0463  0.0621
    5BIM    C2920198   7.157   2.162   1.818  0.0463  0.0773  0.1274
    5BIM    C3020199   7.062   2.063   1.780 -0.0293  0.1256  0.1908
    5BIM    C3120200   7.249   2.120   1.919  0.0288  0.0638  0.1377
    1BTD     S220201   2.418   3.778   4.117  0.3612  0.1454  0.2108
    1BTD     N120202   2.566   3.717   4.200  0.2143 -0.0207  0.3517
    1BTD     N220203   2.348   3.614   4.091  0.3123  0.2097 -0.0626
    1BTD     N320204   2.472   3.172   4.187 -0.0524  0.0411 -0.3653
    1BTD     N420205   2.740   3.298   4.322 -0.1733 -0.2428  0.1453
    1BTD     C520206   2.653   3.497   4.262  0.0134 -0.1333  0.2378
    1BTD     C620207   2.556   3.585   4.204  0.1402 -0.0196  0.1959
    1BTD     C720208   2.434   3.527   4.142  0.1951  0.1094 -0.0361
    1BTD     C820209   2.416   3.385   4.142  0.1205  0.1183 -0.2145
    1BTD    C1520210   2.514   3.302   4.201 -0.0033  0.0045 -0.1653
    1BTD    C1620211   2.631   3.358   4.260 -0.0562 -0.1198  0.0579
    1BTD    C4320212   2.783   3.159   4.304 -0.9084  0.6699 -0.3653
    1BTD    C4420213   2.854   3.089   4.420  0.1276 -0.1594 -0.3239
    1BTD    C4520214   2.902   2.948   4.377 -0.2167  0.2603 -0.7151
    1BTD    C4620215   3.015   2.926   4.280  0.2155 -0.7200  0.1674
    1BTD    C4720216   2.778   3.086   4.560 -0.2949 -0.4109 -0.1874
    1BTD    C4820217   2.780   3.208   4.650  0.0537 -0.0684 -0.6796
    1BTD    C4920218   2.725   3.182   4.791  1.1032 -0.1622  0.4202
    1BTD    C5020219   2.754   3.305   4.878  0.1825  0.5325  0.9103
    1BTD    C7520220   2.484   3.074   4.294  0.4487  0.1711 -0.7243
    1BTD    C7620221   2.468   2.916   4.284 -0.1927 -0.3973  0.2827
    1BTD    C7720222   2.506   2.851   4.418  0.4541 -0.5500  0.0340
    1BTD    C7820223   2.421   2.886   4.541  0.1108 -0.6596 -0.5069
    1BTD    C7920224   2.552   2.869   4.162  0.1382  0.5883  0.0781
    1BTD    C8020225   2.586   2.724   4.125  0.1988  0.4709 -0.3346
    1BTD    C8120226   2.465   2.640   4.088 -0.3156 -0.3834  0.4625
    1BTD    C8220227   2.488   2.493   4.054  0.8809  0.4808  0.0664
    2TTP     S120228   2.882   3.666   4.363  0.4557 -0.0682  0.2424
    2TTP     S520229   3.098   3.304   4.449 -0.1737 -0.5180 -0.0527
    2TTP     C120230   3.207   3.446   4.482  0.0667 -0.7333  0.0862
    2TTP     C220231   3.147   3.566   4.458  0.2752 -0.6072  0.1854
    2TTP     C320232   3.013   3.550   4.412  0.2527 -0.3358  0.1554
    2TTP     C420233   2.773   3.524   4.330  0.2153  0.1472  0.1035
    2TTP    C1720234   2.834   3.404   4.355  0.0067  0.0211  0.0043
    2TTP    C1820235   2.968   3.419   4.401  0.0293 -0.2503  0.0342
    2TTP    C3220236   3.214   3.705   4.450  0.0924 -0.2490 -0.4257
    2TTP    C3320237   3.132   3.819   4.519  0.3257 -0.0522 -0.0989
    2TTP    C3420238   3.169   3.958   4.481  0.3484 -0.2585  0.1441
    2TTP    C3520239   3.122   4.002   4.338 -0.3548  0.0358 -0.4839
    2TTP    C3620240   3.187   4.117   4.278  0.2195 -0.3203 -0.3079
    2TTP    C3720241   3.131   4.148   4.141  0.0259 -0.3925  0.9003
    2TTP    C3820242   3.185   4.283   4.081  0.6167  0.2217 -0.5789
    2TTP    C3920243   3.106   4.320   3.954 -0.2540  0.4365  0.1353
    2TTP    C4020244   3.140   4.464   3.921  0.3084  0.6597 -0.0777
    2TTP    C4120245   3.108   4.523   3.785 -0.2842 -0.0478  0.0654
    2TTP    C4220246   3.163   4.453   3.666  0.5894 -0.3849  0.0712
    3TTP     S120247   2.173   3.322   3.975 -0.1286  0.0344 -0.2736
    3TTP     S520248   2.274   2.904   3.991 -0.1424  0.0521  0.3166
    3TTP     C120249   2.132   2.925   3.879  0.0423 -0.0648  0.0594
    3TTP     C220250   2.093   3.055   3.867  0.0575 -0.0772 -0.1378
    3TTP     C320251   2.173   3.143   3.947 -0.0764  0.0052 -0.0933
    3TTP     C420252   2.315   3.300   4.087 -0.3135  0.1512 -0.0167
    3TTP    C1720253   2.354   3.170   4.099 -0.3286  0.1637  0.1806
    3TTP    C1820254   2.274   3.082   4.020 -0.1948  0.0812  0.1361
    3TTP    C3220255   1.974   3.108   3.787  0.2358  0.4759  0.4578
    3TTP    C3320256   1.854   3.166   3.859 -0.1546  0.5527  0.1691
    3TTP    C3420257   1.747   3.222   3.769 -0.1456 -0.3658  0.1172
    3TTP    C3520258   1.642   3.314   3.828 -0.2098 -0.2079 -0.2692
    3TTP    C3620259   1.679   3.414   3.938 -0.1780  0.4096 -0.4268
    3TTP    C3720260   1.796   3.502   3.899 -0.5518 -0.1759  0.0337
    3TTP    C3820261   1.807   3.626   3.996 -0.0173  0.1482 -0.1598
    3TTP    C3920262   1.912   3.722   3.959 -0.2034 -1.0393  0.5274
    3TTP    C4020263   1.915   3.854   4.040  0.8920 -0.0580 -0.7529
    3TTP    C4120264   2.044   3.932   4.023  0.0517 -0.0478  0.9024
    3TTP    C4220265   2.039   4.059   4.100 -0.0175 -0.1266  0.0727
    4BIM     F120266   3.734   2.846   4.673 -0.2182 -0.0230  0.3762
    4BIM     F220267   3.910   3.035   4.759  0.2770  0.0029 -0.6609
    4BIM     O120268   3.320   3.157   4.514 -0.4298  0.0321  1.0321
    4BIM     N520269   3.869   3.528   4.770  0.8379  0.0796 -1.6845
    4BIM     N620270   3.510   3.733   4.629  0.5727  0.1172 -0.9629
    4BIM    C1920271   3.342   3.448   4.541 -0.0320  0.0763  0.2743
    4BIM    C2020272   3.439   3.362   4.577  0.0019  0.0615  0.1498
    4BIM    C2120273   3.420   3.214   4.560 -0.2118  0.0390  0.5614
    4BIM    C2220274   3.544   3.151   4.610 -0.1110  0.0271  0.2949
    4BIM    C2320275   3.574   3.015   4.614 -0.2388  0.0057  0.5152
    4BIM    C2420276   3.698   2.979   4.665 -0.1035 -0.0020  0.1841
    4BIM    C2520277   3.789   3.076   4.709  0.1516  0.0115 -0.3499
    4BIM    C2620278   3.760   3.212   4.705  0.2802  0.0328 -0.5726
    4BIM    C2720279   3.635   3.250   4.654  0.1464  0.0409 -0.2435
    4BIM    C2820280   3.573   3.384   4.636  0.2260  0.0626 -0.3541
    4BIM    C2920281   3.630   3.505   4.667  0.4622  0.0802 -0.8318
    4BIM    C3020282   3.761   3.517   4.724  0.6679  0.0798 -1.2989
    4BIM    C3120283   3.564   3.630   4.646  0.5215  0.1005 -0.9011
    5BIM     F120284   2.422   2.211   3.591 -0.1450 -0.1153 -0.1146
    5BIM     F220285   2.167   2.143   3.524 -0.1373  0.0688 -0.3373
    5BIM     O120286   2.345   2.707   3.794 -0.0185 -0.2252  0.2022
    5BIM     N520287   1.746   2.397   3.574 -0.0362  0.2553 -0.4317
    5BIM     N620288   1.737   2.799   3.746  0.0610  0.1322 -0.1393
    5BIM    C1920289   2.074   2.818   3.803  0.0338 -0.0883  0.1019
    5BIM    C2020290   2.103   2.696   3.754  0.0015 -0.0679  0.0309
    5BIM    C2120291   2.245   2.646   3.753 -0.0239 -0.1420  0.0893
    5BIM    C2220292   2.242   2.511   3.694 -0.0560 -0.0965 -0.0135
    5BIM    C2320293   2.349   2.424   3.672 -0.0868 -0.1370 -0.0054
    5BIM    C2420294   2.321   2.301   3.615 -0.1137 -0.0797 -0.1158
    5BIM    C2520295   2.189   2.266   3.581 -0.1098  0.0150 -0.2304
    5BIM    C2620296   2.082   2.352   3.603 -0.0791  0.0560 -0.2393
    5BIM    C2720297   2.108   2.477   3.660 -0.0515 -0.0008 -0.1285
    5BIM    C2820298   2.018   2.589   3.696 -0.0160  0.0205 -0.1057
    5BIM    C2920299   1.882   2.593   3.678 -0.0020  0.1059 -0.1944
    5BIM    C3020300   1.808   2.485   3.621 -0.0209  0.1877 -0.3245
    5BIM    C3120301   1.803   2.706   3.716  0.0325  0.1198 -0.1637
    1BTD     S220302   1.265   4.266   1.889 -0.3506  0.0048  0.4030
    1BTD     N120303   1.200   4.434   1.897 -0.2921  0.0293  0.3589
    1BTD     N220304   1.122   4.200   1.801 -0.2210  0.1062  0.1127
    1BTD     N320305   0.715   4.369   1.638  0.1489  0.3576 -0.5581
    1BTD     N420306   0.812   4.657   1.757  0.0613  0.2629 -0.2547
    1BTD     C520307   0.996   4.547   1.822 -0.1065  0.1523  0.0349
    1BTD     C620308   1.082   4.432   1.838 -0.1845  0.1078  0.1415
    1BTD     C720309   1.038   4.301   1.784 -0.1447  0.1508  0.0037
    1BTD     C820310   0.911   4.292   1.718 -0.0289  0.2364 -0.2339
    1BTD    C1520311   0.830   4.406   1.705  0.0444  0.2773 -0.3309
    1BTD    C1620312   0.873   4.532   1.757  0.0060  0.2359 -0.1981
    1BTD    C4320313   0.718   4.713   1.648  0.0427  1.2364 -0.0199
    1BTD    C4420314   0.608   4.822   1.662  0.5997  0.6335  0.5571
    1BTD    C4520315   0.510   4.780   1.773 -0.4638 -1.0216 -0.8408
    1BTD    C4620316   0.405   4.876   1.822  0.6095 -0.2796  0.1168
    1BTD    C4720317   0.546   4.866   1.527  0.6903 -0.5028 -0.2139
    1BTD    C4820318   0.641   4.898   1.416 -0.5737 -0.2430  0.4733
    1BTD    C4920319   0.585   4.930   1.277  0.7154 -0.2792 -0.4385
    1BTD    C5020320   0.690   4.999   1.196 -0.0324 -0.6024  0.6984
    1BTD    C7520321   0.581   4.429   1.657 -0.8149  0.0148  0.2508
    1BTD    C7620322   0.483   4.450   1.540  0.6282  0.1858 -0.3369
    1BTD    C7720323   0.350   4.509   1.574  0.6355 -0.0896 -0.0584
    1BTD    C7820324   0.256   4.443   1.675 -0.2275 -0.3019  0.2323
    1BTD    C7920325   0.549   4.512   1.418  0.2582 -0.0962  0.9793
    1BTD    C8020326   0.474   4.486   1.286 -0.7921 -0.3219  0.3839
    1BTD    C8120327   0.530   4.569   1.166  0.1172 -0.2546 -0.3056
    1BTD    C8220328   0.455   4.540   1.045  0.1425  0.4698 -0.2650
    2TTP     S120329   1.111   4.786   1.972 -0.0183 -0.0184 -0.2956
    2TTP     S520330   0.767   5.018   1.861  0.0768  0.1435 -0.2529
    2TTP     C120331   0.877   5.122   1.962  0.0273  0.0203 -0.0720
    2TTP     C220332   0.989   5.057   2.002 -0.0050 -0.0368 -0.0746
    2TTP     C320333   0.993   4.922   1.955  0.0082  0.0144 -0.2195
    2TTP     C420334   1.001   4.682   1.871  0.0312  0.1048 -0.4764
    2TTP    C1720335   0.889   4.748   1.830  0.0635  0.1620 -0.4739
    2TTP    C1820336   0.885   4.882   1.878  0.0503  0.1105 -0.3290
    2TTP    C3220337   1.109   5.112   2.085  0.3844 -0.0700  0.3468
    2TTP    C3320338   1.125   5.068   2.228  0.5038  0.0198 -0.2927
    2TTP    C3420339   1.022   5.131   2.326 -0.5562 -0.4293  0.1227
    2TTP    C3520340   1.039   5.105   2.475 -0.4365  0.4525  0.7377
    2TTP    C3620341   0.931   5.170   2.563 -0.2551 -0.3590  0.0821
    2TTP    C3720342   0.976   5.180   2.708 -0.3951  0.5572 -0.7998
    2TTP    C3820343   0.896   5.267   2.809  1.2311  0.5587 -0.1121
    2TTP    C3920344   0.864   5.412   2.775 -0.2224 -1.2887  0.2031
    2TTP    C4020345   0.983   5.512   2.766  0.4108  0.0803  0.1334
    2TTP    C4120346   1.065   5.535   2.893 -0.3642  0.0499  0.3163
    2TTP    C4220347   1.148   5.659   2.871  0.3496 -0.5701  0.2903
    3TTP     S120348   0.882   4.019   1.595 -0.0085  0.1378  0.0945
    3TTP     S520349   0.525   4.148   1.393  0.1542 -0.0414 -0.3096
    3TTP     C120350   0.569   3.982   1.333  0.4467  0.0830 -0.4455
    3TTP     C220351   0.682   3.932   1.392  0.4137  0.1457 -0.3286
    3TTP     C320352   0.738   4.023   1.487  0.1562  0.0978 -0.1276
    3TTP     C420353   0.839   4.185   1.655 -0.3010  0.0134  0.2304
    3TTP    C1720354   0.726   4.234   1.597 -0.2680 -0.0491  0.1136
    3TTP    C1820355   0.670   4.143   1.502 -0.0105 -0.0012 -0.0874
    3TTP    C3220356   0.769   3.802   1.372  0.2279  0.1274 -0.8073
    3TTP    C3320357   0.761   3.703   1.260  0.6737 -0.1282 -0.5759
    3TTP    C3420358   0.782   3.753   1.120 -0.2194  0.6226  0.1806
    3TTP    C3520359   0.777   3.657   0.997  0.6330  0.3631  0.2549
    3TTP    C3620360   0.873   3.543   1.006  0.4407  0.2348  0.5324
    3TTP    C3720361   1.017   3.594   0.980 -0.5652 -0.0352  0.3604
    3TTP    C3820362   1.116   3.491   1.036  0.4194 -0.0152  0.0203
    3TTP    C3920363   1.265   3.528   1.015 -0.1515  0.0736  0.0157
    3TTP    C4020364   1.366   3.422   1.057 -0.6116 -0.5943 -0.4104
    3TTP    C4120365   1.507   3.456   1.038 -0.0261 -0.1381  0.4047
    3TTP    C4220366   1.598   3.339   1.065  0.0038  0.1726 -0.5574
    4BIM     F120367   0.340   5.691   1.719  0.0497  0.1256 -0.1263
    4BIM     F220368   0.496   5.882   1.834 -0.0124  0.1266 -0.0440
    4BIM     O120369   0.624   5.245   1.835  0.0371  0.1364 -0.0528
    4BIM     N520370   0.922   5.839   2.082 -0.1106  0.1361  0.1267
    4BIM     N620371   1.112   5.452   2.150 -0.1080  0.1444  0.1675
    4BIM    C1920372   0.873   5.269   1.986 -0.0267  0.1414  0.0520
    4BIM    C2020373   0.796   5.374   1.952 -0.0211  0.1386  0.0302
    4BIM    C2120374   0.669   5.353   1.875  0.0124  0.1361 -0.0238
    4BIM    C2220375   0.610   5.487   1.855  0.0099  0.1334 -0.0353
    4BIM    C2320376   0.492   5.519   1.789  0.0346  0.1305 -0.0807
    4BIM    C2420377   0.456   5.653   1.783  0.0264  0.1283 -0.0826
    4BIM    C2520378   0.536   5.751   1.843 -0.0056  0.1290 -0.0401
    4BIM    C2620379   0.654   5.720   1.909 -0.0304  0.1317  0.0053
    4BIM    C2720380   0.692   5.585   1.916 -0.0226  0.1340  0.0079
    4BIM    C2820381   0.810   5.519   1.978 -0.0429  0.1372  0.0499
    4BIM    C2920382   0.912   5.581   2.046 -0.0756  0.1388  0.0978
    4BIM    C3020383   0.917   5.723   2.066 -0.0948  0.1372  0.1135
    4BIM    C3120384   1.022   5.510   2.103 -0.0932  0.1419  0.1359
    5BIM     F120385   0.047   4.151   0.726  0.0844 -0.0552 -0.0948
    5BIM     F220386  -0.022   3.888   0.719  0.4125 -0.1376 -0.2549
    5BIM     O120387   0.424   4.150   1.114 -0.0850  0.2210  0.0720
    5BIM     N520388   0.148   3.508   0.987  0.7633 -0.0591 -0.3661
    5BIM     N620389   0.457   3.560   1.291  0.5648  0.1734 -0.2035
    5BIM    C1920390   0.492   3.897   1.246  0.1682  0.2406 -0.0217
    5BIM    C2020391   0.400   3.908   1.148  0.1980  0.1742 -0.0574
    5BIM    C2120392   0.370   4.041   1.085  0.0614  0.1687 -0.0051
    5BIM    C2220393   0.266   4.017   0.984  0.1358  0.0894 -0.0632
    5BIM    C2320394   0.206   4.111   0.900  0.0576  0.0570 -0.0438
    5BIM    C2420395   0.110   4.064   0.812  0.1538 -0.0195 -0.1095
    5BIM    C2520396   0.075   3.929   0.809  0.3228 -0.0619 -0.1919
    5BIM    C2620397   0.134   3.835   0.892  0.4015 -0.0299 -0.2118
    5BIM    C2720398   0.232   3.880   0.982  0.3062  0.0474 -0.1460
    5BIM    C2820399   0.313   3.807   1.083  0.3512  0.0979 -0.1458
    5BIM    C2920400   0.308   3.673   1.110  0.5053  0.0778 -0.2143
    5BIM    C3020401   0.220   3.583   1.042  0.6466  0.0026 -0.2975
    5BIM    C3120402   0.390   3.611   1.210  0.5371  0.1305 -0.2080
    1BTD     S220403   2.540   6.900   5.201 -0.0391  0.0513 -0.2794
    1BTD     N120404   2.665   7.023   5.239 -0.1795  0.1631 -0.1754
    1BTD     N220405   2.593   6.786   5.329  0.0567  0.0275 -0.3395
    1BTD     N320406   2.927   6.774   5.659 -0.0019  0.1811 -0.2747
    1BTD     N420407   3.016   7.067   5.548 -0.2931  0.3481 -0.0724
    1BTD     C520408   2.848   7.043   5.401 -0.2353  0.2575 -0.1241
    1BTD     C620409   2.737   6.975   5.340 -0.1494  0.1761 -0.1901
    1BTD     C720410   2.696   6.842   5.390 -0.0172  0.1004 -0.2820
    1BTD     C820411   2.768   6.783   5.500  0.0226  0.1097 -0.3031
    1BTD    C1520412   2.876   6.853   5.557 -0.0648  0.1907 -0.2363
    1BTD    C1620413   2.916   6.981   5.508 -0.1922  0.2637 -0.1478
    1BTD    C4320414   3.148   7.033   5.614  0.7328  1.1696  0.1140
    1BTD    C4420415   3.274   7.000   5.531  0.3710  0.3328  0.2461
    1BTD    C4520416   3.250   6.917   5.398  0.1210  0.2725 -0.4108
    1BTD    C4620417   3.220   6.765   5.413  0.4485 -0.2579 -0.3479
    1BTD    C4720418   3.397   6.962   5.615  0.4020  0.1386 -0.7970
    1BTD    C4820419   3.540   6.974   5.564 -0.1345  0.6703  0.9065
    1BTD    C4920420   3.595   7.102   5.495 -0.1370  0.3595  0.2782
    1BTD    C5020421   3.727   7.088   5.432 -0.1411  0.3369  0.0936
    1BTD    C7520422   2.966   6.838   5.792  0.4600  0.4443  0.6245
    1BTD    C7620423   3.047   6.761   5.893  0.0719 -0.1178 -0.0358
    1BTD    C7720424   3.186   6.743   5.830 -0.6653 -0.3096 -0.2717
    1BTD    C7820425   3.273   6.635   5.888  0.2513  0.3240 -0.3202
    1BTD    C7920426   3.046   6.824   6.032  0.2704  0.6302 -0.0814
    1BTD    C8020427   2.912   6.847   6.103  0.0871 -0.7216 -0.2194
    1BTD    C8120428   2.814   6.737   6.102 -0.1501 -0.1369 -0.4916
    1BTD    C8220429   2.689   6.774   6.171  0.2857  0.6014 -0.0490
    2TTP     S120430   2.893   7.316   5.273  0.1260 -0.1644 -0.0086
    2TTP     S520431   3.216   7.391   5.547  0.3774  0.1944 -0.4015
    2TTP     C120432   3.197   7.535   5.438  0.0392  0.2030 -0.3339
    2TTP     C220433   3.096   7.521   5.348 -0.0584  0.0927 -0.2086
    2TTP     C320434   3.030   7.395   5.360  0.1304 -0.0025 -0.1614
    2TTP     C420435   2.911   7.171   5.382  0.4641 -0.1729 -0.0762
    2TTP    C1720436   3.012   7.186   5.473  0.5618 -0.0626 -0.2015
    2TTP    C1820437   3.079   7.312   5.460  0.3729  0.0325 -0.2486
    2TTP    C3220438   3.060   7.616   5.238 -0.1669  0.0249  0.1426
    2TTP    C3320439   3.072   7.573   5.092  0.0078  0.1652  0.3764
    2TTP    C3420440   3.064   7.685   4.981 -0.0191  0.5010 -0.4128
    2TTP    C3520441   3.117   7.645   4.844 -0.3645  0.0471  1.0110
    2TTP    C3620442   3.150   7.759   4.742  0.4789  0.2168 -0.0707
    2TTP    C3720443   3.033   7.857   4.703 -0.5780  0.2004  0.7203
    2TTP    C3820444   2.931   7.784   4.630  0.2498  0.2519  0.1764
    2TTP    C3920445   2.841   7.878   4.548  0.2200 -0.2591  0.5174
    2TTP    C4020446   2.721   7.831   4.469  0.3171  0.4224  0.6644
    2TTP    C4120447   2.641   7.942   4.406 -0.2722  0.6702  0.3264
    2TTP    C4220448   2.531   7.915   4.301 -0.0538 -0.0391  0.1329
    3TTP     S120449   2.660   6.504   5.567  0.0806  0.0128  0.3269
    3TTP     S520450   2.985   6.447   5.843  0.1066 -0.3102  0.2309
    3TTP     C120451   2.887   6.294   5.836  0.2479 -0.3883 -0.1231
    3TTP     C220452   2.781   6.302   5.751  0.2481 -0.2931 -0.1144
    3TTP     C320453   2.773   6.430   5.687  0.1369 -0.1553  0.1723
    3TTP     C420454   2.758   6.657   5.573 -0.0607  0.0907  0.6809
    3TTP    C1720455   2.864   6.648   5.659 -0.0610 -0.0044  0.6721
    3TTP    C1820456   2.872   6.521   5.722  0.0504 -0.1423  0.3855
    3TTP    C3220457   2.688   6.184   5.712  0.1835  0.1097  0.4180
    3TTP    C3320458   2.687   6.127   5.565 -0.1162 -0.3702 -0.3126
    3TTP    C3420459   2.580   6.031   5.534 -0.1212  0.3390 -0.4101
    3TTP    C3520460   2.576   5.997   5.386 -0.0701 -0.1235  0.1511
    3TTP    C3620461   2.501   5.868   5.352 -0.2832  0.4359  0.9724
    3TTP    C3720462   2.360   5.839   5.406 -1.1664  0.0151 -0.0460
    3TTP    C3820463   2.250   5.935   5.374 -0.1630 -0.9125  0.4389
    3TTP    C3920464   2.118   5.918   5.448 -0.1768  0.1347  0.2364
    3TTP    C4020465   2.012   6.027   5.444  0.1001  0.1598 -0.6103
    3TTP    C4120466   1.873   5.984   5.490  0.2388  0.0356  0.1317
    3TTP    C4220467   1.777   6.101   5.507  0.0901  0.6180 -0.5189
    4BIM     F120468   3.872   7.769   5.849 -0.0941  0.1841  0.2241
    4BIM     F220469   3.809   8.027   5.790  0.0168  0.1421 -0.0837
    4BIM     O120470   3.473   7.505   5.596 -0.0477  0.0409  0.3005
    4BIM     N520471   3.433   8.210   5.525  0.2095 -0.0207 -0.4715
    4BIM     N620472   3.134   7.952   5.339  0.2232 -0.1245 -0.3500
    4BIM    C1920473   3.270   7.658   5.450  0.0747 -0.0505  0.0337
    4BIM    C2020474   3.373   7.714   5.516  0.0587 -0.0126  0.0263
    4BIM    C2120475   3.473   7.629   5.589 -0.0052  0.0331  0.1687
    4BIM    C2220476   3.571   7.722   5.649 -0.0069  0.0663  0.1204
    4BIM    C2320477   3.683   7.689   5.726 -0.0565  0.1131  0.2121
    4BIM    C2420478   3.761   7.794   5.772 -0.0471  0.1378  0.1402
    4BIM    C2520479   3.728   7.927   5.741  0.0100  0.1161 -0.0181
    4BIM    C2620480   3.617   7.960   5.665  0.0596  0.0694 -0.1104
    4BIM    C2720481   3.537   7.855   5.617  0.0511  0.0437 -0.0399
    4BIM    C2820482   3.414   7.856   5.534  0.0938 -0.0057 -0.1040
    4BIM    C2920483   3.350   7.967   5.484  0.1541 -0.0385 -0.2551
    4BIM    C3020484   3.396   8.100   5.507  0.1844 -0.0286 -0.3736
    4BIM    C3120485   3.231   7.958   5.405  0.1917 -0.0856 -0.3062
    5BIM     F120486   3.512   5.954   6.252 -0.0843 -0.0890  0.1837
    5BIM     F220487   3.338   5.770   6.351 -0.1276 -0.2248 -0.1420
    5BIM     O120488   3.183   6.247   5.936  0.0938  0.2136  0.2778
    5BIM     N520489   2.853   5.714   6.268 -0.0626 -0.2046 -0.5435
    5BIM     N620490   2.631   5.979   6.002  0.0852  0.0594 -0.4042
    5BIM    C1920491   2.900   6.175   5.919  0.1159  0.1912 -0.0001
    5BIM    C2020492   2.989   6.108   5.994  0.0727  0.1205 -0.0111
    5BIM    C2120493   3.133   6.151   5.998  0.0641  0.1373  0.1374
    5BIM    C2220494   3.202   6.058   6.089  0.0139  0.0463  0.0827
    5BIM    C2320495   3.337   6.058   6.124 -0.0105  0.0268  0.1769
    5BIM    C2420496   3.380   5.960   6.212 -0.0581 -0.0649  0.0978
    5BIM    C2520497   3.290   5.865   6.263 -0.0802 -0.1349 -0.0698
    5BIM    C2620498   3.155   5.865   6.229 -0.0561 -0.1161 -0.1645
    5BIM    C2720499   3.110   5.963   6.140 -0.0080 -0.0234 -0.0869
    5BIM    C2820500   2.976   5.990   6.083  0.0273  0.0193 -0.1512
    5BIM    C2920501   2.861   5.919   6.109  0.0194 -0.0260 -0.3102
    5BIM    C3020502   2.857   5.807   6.197 -0.0257 -0.1241 -0.4377
    5BIM    C3120503   2.735   5.953   6.050  0.0557  0.0212 -0.3611
    1BTD     S220504   5.485   2.128   4.112 -0.0309  0.0868  0.0045
    1BTD     N120505   5.593   2.239   4.204  0.3908  0.0131 -0.3953
    1BTD     N220506   5.558   1.978   4.179 -0.4231  0.0415  0.3418
    1BTD     N320507   5.903   1.874   4.481 -0.4606 -0.1841  0.3070
    1BTD     N420508   5.945   2.195   4.511  0.5424 -0.2190 -0.6012
    1BTD     C520509   5.776   2.212   4.364  0.4578 -0.1077 -0.4919
    1BTD     C620510   5.674   2.163   4.276  0.2261 -0.0387 -0.2637
    1BTD     C720511   5.655   2.017   4.262 -0.2295 -0.0229  0.1490
    1BTD     C820512   5.739   1.928   4.337 -0.4305 -0.0767  0.3126
    1BTD    C1520513   5.838   1.981   4.422 -0.1912 -0.1433  0.0784
    1BTD    C1620514   5.856   2.121   4.435  0.2476 -0.1587 -0.3193
    1BTD    C4320515   6.011   2.158   4.640  0.4089  0.6282  0.3760
    1BTD    C4420516   6.152   2.204   4.679 -0.4077  0.5773 -0.6987
    1BTD    C4520517   6.268   2.164   4.586  0.3994  0.1486 -0.4237
    1BTD    C4620518   6.405   2.226   4.604  0.1329 -0.9526  0.1784
    1BTD    C4720519   6.172   2.185   4.832 -0.2484 -0.1909  0.5018
    1BTD    C4820520   6.085   2.253   4.939  0.1127  0.6748  0.2178
    1BTD    C4920521   6.079   2.403   4.948  0.7139 -0.0877 -0.1950
    1BTD    C5020522   5.972   2.465   5.045  0.4184 -0.0694 -0.1481
    1BTD    C7520523   6.046   1.865   4.505 -0.1221 -0.1085 -0.1087
    1BTD    C7620524   6.106   1.760   4.598 -0.1401  1.0506  0.0549
    1BTD    C7720525   6.062   1.795   4.736  0.3348  0.1461 -0.0697
    1BTD    C7820526   6.086   1.683   4.843  0.8258 -0.0651  0.3518
    1BTD    C7920527   6.260   1.736   4.573  1.0770  0.7310  0.1578
    1BTD    C8020528   6.359   1.837   4.607 -0.4693 -0.2448 -0.0175
    1BTD    C8120529   6.501   1.774   4.603  0.1637  0.0913  0.3243
    1BTD    C8220530   6.598   1.881   4.628  0.0813 -0.1136  0.4575
    2TTP     S120531   5.778   2.522   4.363  0.1190 -0.1896  0.0457
    2TTP     S520532   6.094   2.513   4.655  0.1167 -0.1515  0.0495
    2TTP     C120533   6.057   2.687   4.615  0.3611 -0.1647 -0.2376
    2TTP     C220534   5.958   2.700   4.522  0.3762 -0.1773 -0.2555
    2TTP     C320535   5.907   2.573   4.480  0.1953 -0.1768 -0.0435
    2TTP     C420536   5.815   2.348   4.403 -0.1254 -0.1764  0.3327
    2TTP    C1720537   5.915   2.335   4.496 -0.1405 -0.1637  0.3506
    2TTP    C1820538   5.966   2.462   4.538  0.0404 -0.1642  0.1385
    2TTP    C3220539   5.900   2.827   4.465 -0.3232 -0.0120  0.3184
    2TTP    C3320540   5.896   2.853   4.310  0.0221  0.1280 -0.2123
    2TTP    C3420541   6.028   2.849   4.238  0.4411  0.4308  0.2460
    2TTP    C3520542   6.116   2.979   4.233  0.1231 -0.1521  0.4298
    2TTP    C3620543   6.197   3.014   4.363  0.2902  0.4217  0.5048
    2TTP    C3720544   6.297   3.123   4.339 -0.1416 -0.2813  0.0254
    2TTP    C3820545   6.380   3.141   4.465  0.3714 -0.6904  0.3407
    2TTP    C3920546   6.483   3.258   4.460 -0.1236 -0.0080  0.1937
    2TTP    C4020547   6.573   3.242   4.583  0.9090 -0.3982  0.6233
    2TTP    C4120548   6.656   3.112   4.607 -0.0134 -0.3477 -0.1377
    2TTP    C4220549   6.723   3.044   4.489 -0.4586  0.1954  0.0845
    3TTP     S120550   5.659   1.645   4.280 -0.1200  0.0024  0.1917
    3TTP     S520551   5.927   1.509   4.587  0.2484  0.1577 -0.0603
    3TTP     C120552   5.833   1.366   4.525  0.0750  0.1500  0.2215
    3TTP     C220553   5.744   1.400   4.427 -0.0488  0.1017  0.3159
    3TTP     C320554   5.748   1.539   4.396 -0.0114  0.0689  0.1689
    3TTP     C420555   5.754   1.787   4.341  0.0534  0.0100 -0.0902
    3TTP    C1720556   5.842   1.754   4.439  0.1773  0.0584 -0.1846
    3TTP    C1820557   5.838   1.614   4.470  0.1398  0.0912 -0.0379
    3TTP    C3220558   5.634   1.314   4.359 -0.8360 -0.0524 -0.0911
    3TTP    C3320559   5.659   1.290   4.209 -0.1562 -0.0432 -0.3691
    3TTP    C3420560   5.573   1.170   4.164  0.8903 -0.1564 -0.1838
    3TTP    C3520561   5.599   1.137   4.019  0.0350  0.6423  0.3959
    3TTP    C3620562   5.483   1.058   3.951 -0.3545 -0.0869  0.1997
    3TTP    C3720563   5.506   1.001   3.813 -1.0736 -0.6032 -0.8828
    3TTP    C3820564   5.382   0.946   3.755  0.0299  0.3783 -0.2325
    3TTP    C3920565   5.404   0.839   3.646  0.5387 -0.0321 -0.2189
    3TTP    C4020566   5.283   0.752   3.601  0.4940  0.1362 -0.3482
    3TTP    C4120567   5.167   0.825   3.540  0.2583 -0.1389  0.6231
    3TTP    C4220568   5.067   0.731   3.479 -0.4006 -0.2593  0.1171
    4BIM     F120569   6.745   2.860   5.044 -0.0012  0.1766 -0.0038
    4BIM     F220570   6.651   3.113   5.079 -0.3085 -0.0036  0.5007
    4BIM     O120571   6.348   2.644   4.746  0.1779  0.2371 -0.2867
    4BIM     N520572   6.233   3.323   4.916 -0.6229 -0.2197  1.0244
    4BIM     N620573   5.942   3.103   4.676 -0.4208 -0.1362  0.7017
    4BIM    C1920574   6.118   2.809   4.673 -0.0522  0.0862  0.0947
    4BIM    C2020575   6.221   2.853   4.747 -0.0851  0.0781  0.1463
    4BIM    C2120576   6.336   2.762   4.780  0.0393  0.1588 -0.0602
    4BIM    C2220577   6.430   2.842   4.861 -0.0355  0.1264  0.0601
    4BIM    C2320578   6.552   2.801   4.915  0.0333  0.1766 -0.0553
    4BIM    C2420579   6.624   2.894   4.988 -0.0615  0.1311  0.0978
    4BIM    C2520580   6.575   3.024   5.005 -0.2198  0.0382  0.3577
    4BIM    C2620581   6.454   3.066   4.952 -0.2891 -0.0123  0.4737
    4BIM    C2720582   6.380   2.973   4.878 -0.1953  0.0326  0.3223
    4BIM    C2820583   6.249   2.985   4.808 -0.2320 -0.0008  0.3855
    4BIM    C2920584   6.170   3.097   4.803 -0.3748 -0.0880  0.6208
    4BIM    C3020585   6.205   3.221   4.865 -0.5105 -0.1602  0.8419
    4BIM    C3120586   6.045   3.100   4.733 -0.3994 -0.1140  0.6640
    5BIM     F120587   6.146   1.005   5.195 -0.2205 -0.2733 -0.0342
    5BIM     F220588   6.114   0.764   5.073  0.2506 -0.1963 -0.3189
    5BIM     O120589   5.945   1.337   4.818 -0.4792 -0.1852  0.1808
    5BIM     N520590   5.923   0.653   4.630  0.7437 -0.0228 -0.5751
    5BIM     N620591   5.773   0.962   4.360  0.4464  0.0305 -0.3498
    5BIM    C1920592   5.842   1.225   4.568 -0.1211 -0.0803 -0.0149
    5BIM    C2020593   5.894   1.151   4.667 -0.0743 -0.1055 -0.0578
    5BIM    C2120594   5.945   1.216   4.793 -0.2679 -0.1594  0.0491
    5BIM    C2220595   5.994   1.107   4.879 -0.1571 -0.1751 -0.0330
    5BIM    C2320596   6.050   1.118   5.006 -0.2660 -0.2219  0.0197
    5BIM    C2420597   6.090   1.001   5.069 -0.1241 -0.2279 -0.0789
    5BIM    C2520598   6.073   0.877   5.006  0.1184 -0.1882 -0.2256
    5BIM    C2620599   6.017   0.865   4.880  0.2280 -0.1415 -0.2788
    5BIM    C2720600   5.976   0.982   4.815  0.0876 -0.1346 -0.1808
    5BIM    C2820601   5.914   1.004   4.682  0.1482 -0.0902 -0.2018
    5BIM    C2920602   5.882   0.907   4.590  0.3684 -0.0439 -0.3302
    5BIM    C3020603   5.905   0.768   4.612  0.5741 -0.0325 -0.4644
    5BIM    C3120604   5.822   0.938   4.464  0.4101 -0.0032 -0.3402
    1BTD     S220605   8.936   3.615   4.943 -0.0766 -0.0037 -0.1532
    1BTD     N120606   8.816   3.737   4.888  0.1261  0.0988 -0.3691
    1BTD     N220607   9.038   3.734   5.031 -0.2065 -0.1128  0.1515
    1BTD     N320608   9.032   4.197   5.109 -0.1051 -0.1501  0.3823
    1BTD     N420609   8.758   4.201   4.933  0.3042  0.1106 -0.2590
    1BTD     C520610   8.789   3.979   4.914  0.2143  0.1019 -0.3039
    1BTD     C620611   8.857   3.854   4.935  0.0885  0.0490 -0.2111
    1BTD     C720612   8.981   3.852   5.015 -0.0978 -0.0694  0.0802
    1BTD     C820613   9.032   3.975   5.069 -0.1488 -0.1291  0.2642
    1BTD    C1520614   8.962   4.095   5.046 -0.0212 -0.0739  0.1644
    1BTD    C1620615   8.842   4.097   4.969  0.1583  0.0403 -0.1164
    1BTD    C4320616   8.735   4.324   5.009  0.0817 -0.1236 -0.5724
    1BTD    C4420617   8.691   4.459   4.954 -0.5375  0.0035 -0.5951
    1BTD    C4520618   8.788   4.497   4.834 -0.4396 -0.2023 -0.1179
    1BTD    C4620619   8.754   4.630   4.757 -0.1922  0.1644 -1.0020
    1BTD    C4720620   8.665   4.568   5.056 -0.0148  0.3951  0.1262
    1BTD    C4820621   8.558   4.538   5.159 -0.2353  0.2207 -0.4508
    1BTD    C4920622   8.417   4.558   5.102  0.3959  0.0544  0.0605
    1BTD    C5020623   8.313   4.502   5.194 -0.1270 -0.5165 -0.2168
    1BTD    C7520624   9.030   4.342   5.065 -0.8219 -0.1445  0.3110
    1BTD    C7620625   9.060   4.463   5.160  0.1099  0.8360 -0.8569
    1BTD    C7720626   8.966   4.431   5.283  0.3901 -0.2874  0.8489
    1BTD    C7820627   8.975   4.526   5.395 -0.1920  0.1175 -0.0700
    1BTD    C7920628   9.047   4.597   5.089  0.1516 -0.2533  0.3623
    1BTD    C8020629   9.171   4.656   5.013  0.7500  0.5118 -0.5381
    1BTD    C8120630   9.145   4.795   4.967 -0.8689 -0.2269  0.6452
    1BTD    C8220631   9.274   4.872   4.925 -0.0388  0.3801 -0.4913
    2TTP     S120632   8.537   3.931   4.751 -0.2269  0.0017  0.1565
    2TTP     S520633   8.458   4.353   4.773  0.4320  0.1413 -0.1099
    2TTP     C120634   8.326   4.274   4.676  0.2850  0.2798 -0.0229
    2TTP     C220635   8.343   4.139   4.664  0.0727  0.2449  0.0646
    2TTP     C320636   8.460   4.093   4.730  0.0188  0.1074  0.0660
    2TTP     C420637   8.670   4.010   4.848 -0.0799 -0.1370  0.0694
    2TTP    C1720638   8.653   4.145   4.860  0.1321 -0.1022 -0.0179
    2TTP    C1820639   8.535   4.191   4.794  0.1864  0.0353 -0.0192
    2TTP    C3220640   8.254   4.030   4.601  0.2563  0.0509  0.6201
    2TTP    C3320641   8.167   3.944   4.699  0.4288  0.3269  0.1815
    2TTP    C3420642   8.082   3.829   4.646 -0.1184  0.6746 -0.0036
    2TTP    C3520643   7.970   3.855   4.544 -1.4189  0.0803  0.0402
    2TTP    C3620644   7.925   3.727   4.482 -0.2540 -0.4235 -0.1274
    2TTP    C3720645   7.789   3.717   4.421  0.2635  0.0194 -0.5026
    2TTP    C3820646   7.749   3.569   4.402  0.1130  0.6075  0.2243
    2TTP    C3920647   7.632   3.551   4.312 -0.1657 -0.0666  0.4113
    2TTP    C4020648   7.494   3.612   4.348 -0.3725 -0.2949  0.1354
    2TTP    C4120649   7.436   3.598   4.484  0.6155  0.0176 -0.7815
    2TTP    C4220650   7.307   3.673   4.517 -0.1604  0.1849 -0.2165
    3TTP     S120651   9.302   3.928   5.210 -0.2532  0.0366  0.1649
    3TTP     S520652   9.339   4.352   5.271  0.1056  0.0367 -0.0471
    3TTP     C120653   9.490   4.271   5.333  0.1455 -0.0353 -0.2367
    3TTP     C220654   9.487   4.135   5.318  0.0370 -0.0397 -0.1824
    3TTP     C320655   9.366   4.090   5.256 -0.0813  0.0137  0.0107
    3TTP     C420656   9.151   4.009   5.147 -0.2933  0.1087  0.3545
    3TTP    C1720657   9.154   4.144   5.163 -0.1848  0.1130  0.3002
    3TTP    C1820658   9.275   4.189   5.224 -0.0663  0.0596  0.1069
    3TTP    C3220659   9.605   4.040   5.346  0.4674 -0.1978  0.0625
    3TTP    C3320660   9.593   3.964   5.480  0.5074  0.2449  0.0014
    3TTP    C3420661   9.701   3.855   5.496  0.0878 -0.5141 -0.4222
    3TTP    C3520662   9.848   3.907   5.505  0.1237 -0.7068  0.2623
    3TTP    C3620663   9.961   3.806   5.516 -0.3895  0.7220  0.0849
    3TTP    C3720664  10.100   3.855   5.566  0.2897  0.1691  0.1963
    3TTP    C3820665  10.117   3.859   5.715  0.0156  0.6926 -0.5213
    3TTP    C3920666  10.039   3.963   5.798 -0.4918 -0.1418 -0.1087
    3TTP    C4020667  10.061   4.112   5.753 -0.1989  0.5085 -0.1637
    3TTP    C4120668  10.204   4.169   5.752 -0.5133  0.6624 -0.1591
    3TTP    C4220669  10.209   4.310   5.796  0.1657  0.6074 -0.2662
    4BIM     F120670   8.311   4.986   4.280  0.2320 -0.2152 -0.3091
    4BIM     F220671   8.046   4.948   4.230  0.1175  0.0442  0.0875
    4BIM     O120672   8.430   4.533   4.552  0.2029 -0.3445 -0.5116
    4BIM     N520673   7.750   4.570   4.352 -0.0672  0.3251  0.5136
    4BIM     N620674   7.897   4.224   4.574 -0.0669  0.1718  0.2755
    4BIM    C1920675   8.219   4.336   4.601  0.0836 -0.1427 -0.2044
    4BIM    C2020676   8.199   4.451   4.534  0.0954 -0.1202 -0.1690
    4BIM    C2120677   8.313   4.548   4.513  0.1581 -0.2290 -0.3347
    4BIM    C2220678   8.257   4.662   4.438  0.1550 -0.1713 -0.2453
    4BIM    C2320679   8.324   4.776   4.395  0.2017 -0.2344 -0.3405
    4BIM    C2420680   8.251   4.871   4.326  0.1880 -0.1591 -0.2247
    4BIM    C2520681   8.114   4.851   4.300  0.1290 -0.0257 -0.0205
    4BIM    C2620682   8.047   4.737   4.342  0.0820  0.0377  0.0755
    4BIM    C2720683   8.120   4.640   4.413  0.0951 -0.0365 -0.0392
    4BIM    C2820684   8.079   4.510   4.471  0.0560  0.0001  0.0159
    4BIM    C2920685   7.953   4.454   4.467 -0.0045  0.1224  0.2024
    4BIM    C3020686   7.842   4.518   4.403 -0.0389  0.2334  0.3729
    4BIM    C3120687   7.923   4.328   4.526 -0.0386  0.1489  0.2414
    5BIM     F120688   9.807   5.023   5.241  0.0577  0.0402  0.0609
    5BIM     F220689   9.958   4.979   5.463  0.1886 -0.1005 -0.0553
    5BIM     O120690   9.553   4.547   5.194 -0.1653  0.1595  0.0592
    5BIM     N520691   9.994   4.577   5.749  0.2178 -0.2179 -0.2235
    5BIM     N620692   9.765   4.214   5.668  0.0171 -0.0964 -0.2012
    5BIM    C1920693   9.607   4.336   5.390 -0.1195  0.0673 -0.0523
    5BIM    C2020694   9.665   4.458   5.393 -0.0685  0.0427 -0.0473
    5BIM    C2120695   9.632   4.561   5.289 -0.0965  0.0935  0.0116
    5BIM    C2220696   9.712   4.680   5.322 -0.0265  0.0494  0.0012
    5BIM    C2320697   9.715   4.802   5.253 -0.0231  0.0727  0.0426
    5BIM    C2420698   9.799   4.900   5.303  0.0500  0.0209  0.0224
    5BIM    C2520699   9.877   4.877   5.418  0.1174 -0.0515 -0.0377
    5BIM    C2620700   9.874   4.757   5.486  0.1144 -0.0750 -0.0792
    5BIM    C2720701   9.790   4.655   5.437  0.0409 -0.0236 -0.0595
    5BIM    C2820702   9.764   4.518   5.486  0.0178 -0.0304 -0.0917
    5BIM    C2920703   9.821   4.457   5.595  0.0669 -0.0930 -0.1510
    5BIM    C3020704   9.916   4.523   5.680  0.1497 -0.1615 -0.1906
    5BIM    C3120705   9.789   4.324   5.635  0.0392 -0.0945 -0.1783
    1BTD     S220706   1.870   6.847   4.123 -0.1230 -0.1906 -0.2765
    1BTD     N120707   1.867   7.025   4.150  0.0001 -0.1761 -0.3542
    1BTD     N220708   1.700   6.838   4.067 -0.2109 -0.1379 -0.0187
    1BTD     N320709   1.346   7.140   4.003 -0.1678 -0.0048  0.3667
    1BTD     N420710   1.552   7.370   4.106  0.0922 -0.0521 -0.0465
    1BTD     C520711   1.700   7.203   4.126  0.0451 -0.1107 -0.1885
    1BTD     C620712   1.745   7.066   4.118 -0.0291 -0.1349 -0.1923
    1BTD     C720713   1.652   6.961   4.072 -0.1473 -0.1136 -0.0045
    1BTD     C820714   1.517   6.998   4.035 -0.1852 -0.0690  0.1774
    1BTD    C1520715   1.478   7.133   4.044 -0.1096 -0.0466  0.1738
    1BTD    C1620716   1.568   7.234   4.089  0.0042 -0.0670 -0.0069
    1BTD    C4320717   1.440   7.425   4.181 -0.1501  0.4555 -0.7085
    1BTD    C4420718   1.388   7.562   4.165  0.1356  0.4554  0.0738
    1BTD    C4520719   1.284   7.598   4.273 -0.0061  0.0778 -0.1588
    1BTD    C4620720   1.317   7.600   4.417 -0.0494 -0.1781 -0.4697
    1BTD    C4720721   1.344   7.608   4.024  0.0216  0.1700  0.2221
    1BTD    C4820722   1.319   7.754   3.996  0.0660 -0.5428 -0.0119
    1BTD    C4920723   1.272   7.776   3.852  0.1179 -0.0322  0.6259
    1BTD    C5020724   1.191   7.904   3.814  0.0934 -0.0496 -0.6212
    1BTD    C7520725   1.286   7.263   3.945 -0.3437 -0.0490  0.4319
    1BTD    C7620726   1.136   7.276   3.932  0.3752  0.2476 -0.1007
    1BTD    C7720727   1.069   7.290   4.066  0.4566  0.8109  0.4029
    1BTD    C7820728   0.912   7.275   4.064 -1.1887 -0.0170  0.6199
    1BTD    C7920729   1.096   7.393   3.843  0.8210 -0.5549  0.4132
    1BTD    C8020730   1.147   7.393   3.694 -0.1362 -0.1498 -0.2383
    1BTD    C8120731   1.093   7.519   3.622  0.5665 -0.5368 -0.0716
    1BTD    C8220732   1.161   7.547   3.492 -0.0152  0.3699 -0.7595
    2TTP     S120733   1.928   7.379   4.219 -0.1145  0.0071 -0.1310
    2TTP     S520734   1.669   7.721   4.193 -0.3540 -0.1619  0.0224
    2TTP     C120735   1.832   7.776   4.251 -0.3768 -0.0663 -0.0041
    2TTP     C220736   1.922   7.674   4.263 -0.3043 -0.0085 -0.0530
    2TTP     C320737   1.865   7.548   4.226 -0.2280 -0.0374 -0.0715
    2TTP     C420738   1.765   7.323   4.161 -0.0917 -0.0886 -0.1044
    2TTP    C1720739   1.676   7.426   4.149 -0.1643 -0.1462 -0.0557
    2TTP    C1820740   1.732   7.551   4.186 -0.2405 -0.1172 -0.0372
    2TTP    C3220741   2.063   7.684   4.315  0.0177  0.4221  0.4077
    2TTP    C3320742   2.174   7.588   4.280  0.6162 -0.3569  0.7681
    2TTP    C3420743   2.310   7.615   4.352  0.4396  0.0781 -0.0218
    2TTP    C3520744   2.410   7.522   4.295 -0.0665  0.0179 -0.4252
    2TTP    C3620745   2.547   7.538   4.367  0.2693  0.7014 -0.0124
    2TTP    C3720746   2.653   7.442   4.305  0.0505  0.8042  0.3989
    2TTP    C3820747   2.643   7.290   4.328  0.6080  0.3487  0.8935
    2TTP    C3920748   2.638   7.255   4.477 -0.1274  0.4216  0.2162
    2TTP    C4020749   2.579   7.118   4.504  0.2889 -0.0347 -0.1879
    2TTP    C4120750   2.550   7.103   4.653 -0.2702  0.1901  0.3033
    2TTP    C4220751   2.450   6.987   4.672 -0.0549  0.1096  0.0153
    3TTP     S120752   1.373   6.752   3.930  0.0891  0.0483  0.2471
    3TTP     S520753   1.036   7.001   3.833  0.0720 -0.1560 -0.2222
    3TTP     C120754   1.000   6.831   3.778  0.1328 -0.2379 -0.0103
    3TTP     C220755   1.102   6.744   3.805  0.1417 -0.1795  0.1471
    3TTP     C320756   1.212   6.809   3.870  0.1008 -0.0681  0.1062
    3TTP     C420757   1.409   6.922   3.985  0.0284  0.1301  0.0353
    3TTP    C1720758   1.307   7.009   3.958  0.0195  0.0717 -0.1222
    3TTP    C1820759   1.197   6.944   3.893  0.0604 -0.0396 -0.0811
    3TTP    C3220760   1.119   6.598   3.769 -0.5183 -0.3854  0.1221
    3TTP    C3320761   1.041   6.506   3.869  0.4832  0.0171 -0.2095
    3TTP    C3420762   1.081   6.499   4.013 -0.3930  0.3773  0.2145
    3TTP    C3520763   1.222   6.457   4.049  0.0620 -0.2928  0.0898
    3TTP    C3620764   1.274   6.520   4.177  0.8777 -0.6339  0.3121
    3TTP    C3720765   1.422   6.512   4.185 -0.3936  0.2988 -0.0887
    3TTP    C3820766   1.492   6.557   4.310 -0.1515 -0.3031  0.8101
    3TTP    C3920767   1.641   6.586   4.301  0.1581 -0.0171 -0.3263
    3TTP    C4020768   1.717   6.464   4.257  0.0355 -0.2805 -0.4112
    3TTP    C4120769   1.866   6.479   4.234  0.7039  0.1887  0.0551
    3TTP    C4220770   1.934   6.346   4.196 -0.1445 -0.3604 -0.0069
    4BIM     F120771   1.449   8.493   4.409  0.1132 -0.1202  0.2036
    4BIM     F220772   1.693   8.613   4.421  0.0957 -0.0582 -0.0560
    4BIM     O120773   1.592   7.981   4.309  0.1414 -0.1081  0.1824
    4BIM     N520774   2.146   8.420   4.366  0.0907  0.0393 -0.4442
    4BIM     N620775   2.208   7.996   4.285  0.1161  0.0362 -0.4082
    4BIM    C1920776   1.876   7.913   4.285  0.1346 -0.0449 -0.0731
    4BIM    C2020777   1.830   8.038   4.309  0.1282 -0.0503 -0.0576
    4BIM    C2120778   1.683   8.064   4.321  0.1323 -0.0837  0.0770
    4BIM    C2220779   1.668   8.209   4.348  0.1233 -0.0808  0.0583
    4BIM    C2320780   1.551   8.280   4.366  0.1233 -0.1051  0.1547
    4BIM    C2420781   1.562   8.416   4.390  0.1138 -0.0969  0.1134
    4BIM    C2520782   1.688   8.478   4.396  0.1048 -0.0653 -0.0204
    4BIM    C2620783   1.806   8.407   4.378  0.1049 -0.0405 -0.1169
    4BIM    C2720784   1.796   8.269   4.353  0.1143 -0.0484 -0.0770
    4BIM    C2820785   1.901   8.167   4.330  0.1169 -0.0284 -0.1535
    4BIM    C2920786   2.037   8.187   4.328  0.1103  0.0041 -0.2879
    4BIM    C3020787   2.096   8.315   4.349  0.0994  0.0234 -0.3734
    4BIM    C3120788   2.130   8.082   4.304  0.1135  0.0215 -0.3533
    5BIM     F120789   0.276   7.187   3.619 -0.0678 -0.1342  0.0826
    5BIM     F220790   0.227   6.990   3.437 -0.0133 -0.0640 -0.0080
    5BIM     O120791   0.758   7.032   3.810 -0.1492 -0.2365  0.2053
    5BIM     N520792   0.500   6.597   3.312  0.0071 -0.0359 -0.0507
    5BIM     N620793   0.887   6.516   3.498 -0.0674 -0.1301  0.0635
    5BIM    C1920794   0.883   6.789   3.704 -0.1260 -0.2056  0.1624
    5BIM    C2020795   0.763   6.835   3.663 -0.1076 -0.1827  0.1351
    5BIM    C2120796   0.706   6.961   3.722 -0.1213 -0.2007  0.1599
    5BIM    C2220797   0.576   6.983   3.656 -0.0951 -0.1677  0.1196
    5BIM    C2320798   0.486   7.087   3.678 -0.0963 -0.1696  0.1242
    5BIM    C2420799   0.369   7.087   3.602 -0.0684 -0.1344  0.0807
    5BIM    C2520800   0.344   6.986   3.509 -0.0403 -0.0983  0.0340
    5BIM    C2620801   0.434   6.882   3.487 -0.0389 -0.0960  0.0291
    5BIM    C2720802   0.552   6.880   3.562 -0.0669 -0.1315  0.0728
    5BIM    C2820803   0.666   6.785   3.562 -0.0735 -0.1394  0.0805
    5BIM    C2920804   0.680   6.673   3.485 -0.0521 -0.1115  0.0439
    5BIM    C3020805   0.581   6.632   3.390 -0.0196 -0.0701 -0.0079
    5BIM    C3120806   0.793   6.587   3.492 -0.0606 -0.1220  0.0549
    1BTD     S220807   5.571   4.400   6.351  0.0768 -0.2224 -0.2110
    1BTD     N120808   5.436   4.518   6.335  0.0619 -0.2093  0.0092
    1BTD     N220809   5.698   4.516   6.297  0.0163 -0.2006 -0.3077
    1BTD     N320810   5.713   4.964   6.160 -0.1336 -0.1333 -0.1063
    1BTD     N420811   5.391   4.967   6.207 -0.0778 -0.1442  0.2842
    1BTD     C520812   5.416   4.753   6.268 -0.0119 -0.1754  0.1481
    1BTD     C620813   5.490   4.632   6.293  0.0149 -0.1906  0.0000
    1BTD     C720814   5.636   4.630   6.272 -0.0104 -0.1856 -0.1773
    1BTD     C820815   5.702   4.750   6.226 -0.0612 -0.1656 -0.1979
    1BTD    C1520816   5.626   4.866   6.202 -0.0859 -0.1511 -0.0491
    1BTD    C1620817   5.485   4.867   6.223 -0.0615 -0.1559  0.1217
    1BTD    C4320818   5.421   5.109   6.245 -0.1949  0.1545 -0.2696
    1BTD    C4420819   5.332   5.231   6.209 -0.3079  0.4402  1.1189
    1BTD    C4520820   5.361   5.352   6.300  0.0165 -0.2788  0.2884
    1BTD    C4620821   5.291   5.482   6.274 -0.3274 -0.1473 -0.1463
    1BTD    C4720822   5.316   5.261   6.055 -0.6587  0.0706  0.1915
    1BTD    C4820823   5.428   5.320   5.981 -0.3849  0.7439 -0.1731
    1BTD    C4920824   5.385   5.368   5.847  0.5335 -0.3051  0.1744
    1BTD    C5020825   5.500   5.431   5.769 -0.1475 -0.3389  0.5443
    1BTD    C7520826   5.695   5.102   6.102  0.0856  0.5732  0.2941
    1BTD    C7620827   5.797   5.185   6.026  0.0755  0.1911 -0.9668
    1BTD    C7720828   5.831   5.136   5.882  0.3499 -0.1636 -0.6364
    1BTD    C7820829   5.954   5.182   5.820 -1.0536 -0.1589 -0.0545
    1BTD    C7920830   5.786   5.340   6.044  0.3611 -0.2894  0.0422
    1BTD    C8020831   5.786   5.390   6.185 -0.9417 -0.5821  0.7437
    1BTD    C8120832   5.786   5.547   6.188  0.2374  0.4004 -0.4894
    1BTD    C8220833   5.900   5.635   6.129  0.1644 -0.2678  0.0256
    2TTP     S120834   5.120   4.695   6.282 -0.0998 -0.0621  0.0680
    2TTP     S520835   5.038   5.098   6.156  0.5339  0.0175 -0.1014
    2TTP     C120836   4.880   5.007   6.167  0.4086  0.2134 -0.2565
    2TTP     C220837   4.897   4.877   6.207  0.2056  0.2003 -0.2131
    2TTP     C320838   5.034   4.845   6.229  0.1416  0.0353 -0.0561
    2TTP     C420839   5.278   4.785   6.270  0.0255 -0.2580  0.2230
    2TTP    C1720840   5.261   4.915   6.230  0.2286 -0.2450  0.1798
    2TTP    C1820841   5.124   4.948   6.208  0.2925 -0.0796  0.0228
    2TTP    C3220842   4.790   4.767   6.220  0.5183 -0.1325  0.0237
    2TTP    C3320843   4.786   4.672   6.105 -0.2377  0.2439  0.0476
    2TTP    C3420844   4.671   4.572   6.112  0.6077 -0.2548 -0.2688
    2TTP    C3520845   4.662   4.471   6.224  0.1227  0.3953 -0.6284
    2TTP    C3620846   4.538   4.387   6.217  0.0935 -0.0325  0.3948
    2TTP    C3720847   4.527   4.283   6.322  0.2186  0.4691  0.4275
    2TTP    C3820848   4.386   4.231   6.324  0.7137 -0.4792 -0.1931
    2TTP    C3920849   4.359   4.128   6.432  0.5468  0.3785 -0.6624
    2TTP    C4020850   4.209   4.106   6.444  0.2456 -0.0518  0.0343
    2TTP    C4120851   4.147   3.992   6.357 -0.3552 -0.0367  0.1036
    2TTP    C4220852   4.011   4.039   6.311  0.2455 -0.2421 -1.2344
    3TTP     S120853   5.981   4.706   6.280 -0.3071 -0.2036  0.1157
    3TTP     S520854   6.039   5.130   6.237  0.1472 -0.3299 -0.5524
    3TTP     C120855   6.186   5.059   6.318 -0.1166 -0.2977 -0.0345
    3TTP     C220856   6.177   4.924   6.335 -0.2724 -0.2567  0.2025
    3TTP     C320857   6.053   4.872   6.286 -0.1892 -0.2493 -0.0166
    3TTP     C420858   5.834   4.777   6.199 -0.0432 -0.2358 -0.4022
    3TTP    C1720859   5.843   4.912   6.181  0.1125 -0.2766 -0.6392
    3TTP    C1820860   5.967   4.965   6.230  0.0293 -0.2841 -0.4201
    3TTP    C3220861   6.286   4.838   6.396 -0.0473 -0.2478 -0.1332
    3TTP    C3320862   6.332   4.706   6.325  0.1068 -1.7363 -0.1959
    3TTP    C3420863   6.447   4.622   6.379 -0.2476 -0.1246 -0.9322
    3TTP    C3520864   6.573   4.702   6.427 -0.3109 -0.1723  0.4310
    3TTP    C3620865   6.668   4.604   6.489  0.0996 -0.3689  0.3744
    3TTP    C3720866   6.808   4.654   6.518 -0.4412  0.0741  0.6670
    3TTP    C3820867   6.899   4.540   6.569 -0.1488 -0.4893 -0.1349
    3TTP    C3920868   7.038   4.575   6.618 -0.7899  0.1193  0.3921
    3TTP    C4020869   7.130   4.460   6.651  0.1868 -0.3757 -0.9753
    3TTP    C4120870   7.168   4.378   6.529 -0.7242  0.6901  0.3613
    3TTP    C4220871   7.232   4.243   6.576 -0.3147 -0.3344  0.2427
    4BIM     F120872   4.568   5.719   5.909  0.1487 -0.1676  0.0522
    4BIM     F220873   4.319   5.608   5.916  0.1773 -0.2680 -0.4324
    4BIM     O120874   4.870   5.304   6.080  0.0138 -0.1366  0.3664
    4BIM     N520875   4.178   5.153   6.049  0.1223 -0.3898 -0.9054
    4BIM     N620876   4.464   4.851   6.182  0.0110 -0.3452 -0.5623
    4BIM    C1920877   4.740   5.050   6.148 -0.0069 -0.2214  0.0149
    4BIM    C2020878   4.674   5.159   6.105  0.0259 -0.2251 -0.0453
    4BIM    C2120879   4.748   5.286   6.072  0.0345 -0.1799  0.1458
    4BIM    C2220880   4.646   5.383   6.028  0.0722 -0.1972  0.0192
    4BIM    C2320881   4.667   5.515   5.987  0.0921 -0.1688  0.1206
    4BIM    C2420882   4.555   5.588   5.950  0.1273 -0.1936 -0.0358
    4BIM    C2520883   4.427   5.531   5.954  0.1421 -0.2452 -0.2854
    4BIM    C2620884   4.406   5.399   5.995  0.1223 -0.2739 -0.3878
    4BIM    C2720885   4.518   5.324   6.033  0.0865 -0.2494 -0.2322
    4BIM    C2820886   4.530   5.184   6.080  0.0588 -0.2686 -0.2819
    4BIM    C2920887   4.427   5.094   6.097  0.0627 -0.3172 -0.5045
    4BIM    C3020888   4.290   5.127   6.071  0.0954 -0.3570 -0.7240
    4BIM    C3120889   4.448   4.961   6.144  0.0342 -0.3324 -0.5349
    5BIM     F120890   6.279   5.844   6.548  0.0924  0.0104  0.3426
    5BIM     F220891   6.548   5.809   6.544  0.0917  0.0501 -0.1520
    5BIM     O120892   6.108   5.348   6.415 -0.0743  0.0379  0.4529
    5BIM     N520893   6.814   5.404   6.443 -0.0281  0.1271 -0.7842
    5BIM     N620894   6.627   5.023   6.340 -0.1581  0.1407 -0.5982
    5BIM    C1920895   6.305   5.138   6.364 -0.1340  0.0859  0.0197
    5BIM    C2020896   6.337   5.264   6.397 -0.0921  0.0774  0.0112
    5BIM    C2120897   6.230   5.367   6.422 -0.0633  0.0526  0.2419
    5BIM    C2220898   6.300   5.492   6.456 -0.0200  0.0490  0.1674
    5BIM    C2320899   6.242   5.615   6.487  0.0172  0.0288  0.3175
    5BIM    C2420900   6.328   5.720   6.517  0.0543  0.0297  0.2049
    5BIM    C2520901   6.467   5.701   6.514  0.0540  0.0502 -0.0498
    5BIM    C2620902   6.525   5.579   6.483  0.0167  0.0705 -0.2005
    5BIM    C2720903   6.440   5.472   6.454 -0.0211  0.0699 -0.0902
    5BIM    C2820904   6.468   5.331   6.417 -0.0653  0.0881 -0.1961
    5BIM    C2920905   6.593   5.273   6.405 -0.0790  0.1106 -0.4401
    5BIM    C3020906   6.714   5.345   6.426 -0.0509  0.1196 -0.6285
    5BIM    C3120907   6.611   5.136   6.369 -0.1224  0.1270 -0.5258
    1BTD     S220908   8.117   1.563   5.292 -0.1672  0.1915  0.2645
    1BTD     N120909   7.980   1.481   5.209 -0.0582  0.1868  0.0858
    1BTD     N220910   8.046   1.728   5.277 -0.2282  0.1700  0.3164
    1BTD     N320911   7.654   1.914   5.099 -0.1547  0.1177  0.0999
    1BTD     N420912   7.573   1.610   5.015  0.0547  0.1385 -0.1842
    1BTD     C520913   7.768   1.552   5.109 -0.0017  0.1613 -0.0516
    1BTD     C620914   7.893   1.575   5.177 -0.0719  0.1703  0.0747
    1BTD     C720915   7.930   1.713   5.215 -0.1669  0.1609  0.2037
    1BTD     C820916   7.840   1.821   5.183 -0.1873  0.1429  0.1999
    1BTD    C1520917   7.719   1.794   5.116 -0.1164  0.1347  0.0737
    1BTD    C1620918   7.684   1.661   5.080 -0.0247  0.1438 -0.0506
    1BTD    C4320919   7.434   1.661   5.043 -0.0132  0.8097 -0.7227
    1BTD    C4420920   7.318   1.636   4.957  0.4295  0.1366 -0.0909
    1BTD    C4520921   7.186   1.682   5.020 -0.4874 -0.8086  0.0236
    1BTD    C4620922   7.141   1.603   5.140 -0.3871  0.0304  0.4981
    1BTD    C4720923   7.337   1.680   4.810  0.2970 -0.4738  0.2444
    1BTD    C4820924   7.227   1.654   4.703  0.2225  0.0676 -0.7174
    1BTD    C4920925   7.286   1.615   4.574 -0.0478  0.6487 -0.3232
    1BTD    C5020926   7.174   1.599   4.469  0.1797 -0.3659 -0.3067
    1BTD    C7520927   7.573   1.939   4.976 -0.1430 -0.1666 -0.1180
    1BTD    C7620928   7.454   2.029   4.979 -0.3401 -0.6962 -0.1576
    1BTD    C7720929   7.389   2.043   4.839 -0.2511 -1.0071 -0.8516
    1BTD    C7820930   7.477   2.101   4.723 -0.2518  0.1775  0.0472
    1BTD    C7920931   7.355   2.009   5.096 -0.1284 -0.1770 -0.4062
    1BTD    C8020932   7.226   2.088   5.112  0.3637 -0.7339 -0.5803
    1BTD    C8120933   7.253   2.239   5.087 -0.0344  0.3862 -0.8368
    1BTD    C8220934   7.127   2.323   5.099  0.3960 -0.2069 -0.3014
    2TTP     S120935   7.723   1.253   5.069  0.0568  0.0754 -0.1490
    2TTP     S520936   7.372   1.342   4.837 -0.0236 -0.2034 -0.1358
    2TTP     C120937   7.401   1.163   4.831  0.2225 -0.1595 -0.2846
    2TTP     C220938   7.511   1.124   4.902  0.2618 -0.0708 -0.2973
    2TTP     C320939   7.577   1.236   4.964  0.0992 -0.0344 -0.1903
    2TTP     C420940   7.694   1.432   5.075 -0.1891  0.0314 -0.0004
    2TTP    C1720941   7.584   1.470   5.003 -0.2284 -0.0573  0.0124
    2TTP    C1820942   7.518   1.359   4.942 -0.0657 -0.0937 -0.0947
    2TTP    C3220943   7.558   0.988   4.934 -0.7005  0.5871 -0.6102
    2TTP    C3320944   7.527   0.945   5.080  0.7890  0.3046 -1.0776
    2TTP    C3420945   7.559   0.796   5.120  0.4623 -0.3843  0.3898
    2TTP    C3520946   7.700   0.751   5.092 -0.1453  0.4306 -0.1378
    2TTP    C3620947   7.751   0.623   5.156  0.7038 -0.2472 -0.0539
    2TTP    C3720948   7.893   0.600   5.097 -0.3031  0.5039 -0.8943
    2TTP    C3820949   7.953   0.458   5.133 -0.6059 -0.5826  0.1725
    2TTP    C3920950   8.101   0.451   5.080 -0.1968 -0.2006 -0.1782
    2TTP    C4020951   8.197   0.347   5.144  0.3639  0.3007 -0.2595
    2TTP    C4120952   8.210   0.358   5.297 -0.5402  0.7757 -0.2394
    2TTP    C4220953   8.306   0.256   5.354  0.2135  0.0850  0.0982
    3TTP     S120954   7.959   2.082   5.284  0.1493 -0.0443 -0.0614
    3TTP     S520955   7.596   2.284   5.174  0.0443 -0.2881 -0.1625
    3TTP     C120956   7.705   2.403   5.258 -0.1179 -0.2507 -0.0036
    3TTP     C220957   7.823   2.348   5.297 -0.0949 -0.1733  0.0371
    3TTP     C320958   7.833   2.209   5.262  0.0515 -0.1405 -0.0560
    3TTP     C420959   7.850   1.963   5.200  0.3111 -0.0815 -0.2204
    3TTP    C1720960   7.731   2.019   5.161  0.2885 -0.1589 -0.2609
    3TTP    C1820961   7.722   2.157   5.196  0.1421 -0.1916 -0.1680
    3TTP    C3220962   7.947   2.423   5.356  0.3425 -0.1696  0.0374
    3TTP    C3320963   7.957   2.437   5.510  0.4350 -0.0083 -0.8350
    3TTP    C3420964   7.885   2.560   5.562  0.0111  0.2392 -0.1555
    3TTP    C3520965   7.892   2.569   5.718  0.3672 -0.1726 -0.4048
    3TTP    C3620966   7.864   2.715   5.756 -0.0517  0.1597 -0.3526
    3TTP    C3720967   7.920   2.740   5.896 -0.2292 -0.6889  0.0687
    3TTP    C3820968   7.927   2.893   5.940  0.3049  0.5012 -0.5526
    3TTP    C3920969   8.005   2.994   5.856  0.5667  1.0919  0.0193
    3TTP    C4020970   7.972   3.141   5.900  0.2380 -0.7996  0.5514
    3TTP    C4120971   8.067   3.252   5.855  0.1812  0.3693 -0.5727
    3TTP    C4220972   8.054   3.289   5.711 -0.1208  0.0157 -0.5613
    4BIM     F120973   6.684   1.164   4.426 -0.0625 -0.2945  0.0368
    4BIM     F220974   6.710   0.895   4.393  0.1976 -0.2730  0.0640
    4BIM     O120975   7.137   1.279   4.699 -0.2397  0.1506  0.1463
    4BIM     N520976   7.071   0.590   4.540  0.4454  0.0752  0.1812
    4BIM     N620977   7.420   0.734   4.760  0.2545  0.4187  0.2612
    4BIM    C1920978   7.323   1.062   4.765 -0.0541  0.3292  0.2110
    4BIM    C2020979   7.208   1.044   4.697 -0.0197  0.2164  0.1825
    4BIM    C2120980   7.118   1.160   4.667 -0.1208  0.1297  0.1502
    4BIM    C2220981   7.003   1.106   4.593 -0.0507  0.0161  0.1242
    4BIM    C2320982   6.892   1.175   4.544 -0.1031 -0.0905  0.0902
    4BIM    C2420983   6.796   1.102   4.477 -0.0172 -0.1863  0.0708
    4BIM    C2520984   6.809   0.963   4.460  0.1168 -0.1750  0.0848
    4BIM    C2620985   6.919   0.893   4.509  0.1699 -0.0689  0.1186
    4BIM    C2720986   7.018   0.966   4.577  0.0845  0.0291  0.1389
    4BIM    C2820987   7.145   0.922   4.640  0.1087  0.1527  0.1754
    4BIM    C2920988   7.194   0.794   4.645  0.2277  0.1990  0.1978
    4BIM    C3020989   7.126   0.682   4.587  0.3471  0.1308  0.1886
    4BIM    C3120990   7.318   0.762   4.709  0.2416  0.3196  0.2325
    5BIM     F120991   7.022   2.858   5.232  0.0439 -0.0387  0.0694
    5BIM     F220992   7.176   3.082   5.246 -0.0546  0.0268  0.1106
    5BIM     O120993   7.400   2.471   5.258  0.2266  0.1241 -0.1521
    5BIM     N520994   7.668   3.127   5.284 -0.0660  0.2370  0.0124
    5BIM     N620995   7.932   2.780   5.302  0.0967  0.3510 -0.1688
    5BIM    C1920996   7.681   2.547   5.280  0.1974  0.2445 -0.1911
    5BIM    C2020997   7.580   2.636   5.273  0.1553  0.2010 -0.1370
    5BIM    C2120998   7.438   2.589   5.262  0.1739  0.1401 -0.1202
    5BIM    C2220999   7.354   2.710   5.256  0.1173  0.1040 -0.0588
    5BIM    C2321000   7.216   2.717   5.245  0.1115  0.0446 -0.0243
    5BIM    C2421001   7.158   2.844   5.242  0.0532  0.0198  0.0327
    5BIM    C2521002   7.238   2.959   5.249  0.0023  0.0536  0.0539
    5BIM    C2621003   7.377   2.952   5.260  0.0080  0.1130  0.0196
    5BIM    C2721004   7.436   2.825   5.264  0.0668  0.1388 -0.0381
    5BIM    C2821005   7.578   2.784   5.274  0.0879  0.1998 -0.0852
    5BIM    C2921006   7.687   2.868   5.283  0.0522  0.2462 -0.0818
    5BIM    C3021007   7.676   3.010   5.284 -0.0125  0.2410 -0.0300
    5BIM    C3121008   7.821   2.819   5.293  0.0768  0.3036 -0.1297
    1BTD     S221009   8.484   5.282   7.539 -0.1738 -0.0172 -0.0506
    1BTD     N121010   8.655   5.313   7.586 -0.0436 -0.2936 -0.3335
    1BTD     N221011   8.456   5.448   7.477 -0.0710  0.0877  0.1800
    1BTD     N321012   8.706   5.843   7.435  0.3736 -0.1975  0.1394
    1BTD     N421013   8.951   5.676   7.570  0.4075 -0.6673 -0.4932
    1BTD     C521014   8.807   5.505   7.576  0.1915 -0.4830 -0.4092
    1BTD     C621015   8.680   5.439   7.555  0.0641 -0.2933 -0.2459
    1BTD     C721016   8.569   5.515   7.494  0.0489 -0.0799  0.0414
    1BTD     C821017   8.589   5.653   7.457  0.1614 -0.0668  0.1513
    1BTD    C1521018   8.715   5.713   7.479  0.2842 -0.2569 -0.0164
    1BTD    C1621019   8.822   5.640   7.538  0.2987 -0.4623 -0.2932
    1BTD    C4321020   9.033   5.783   7.504  0.3387  0.2413 -0.4978
    1BTD    C4421021   9.103   5.767   7.364  0.2839 -0.1622 -0.2557
    1BTD    C4521022   9.013   5.698   7.254 -0.6939  0.4045 -0.6811
    1BTD    C4621023   9.089   5.656   7.131  0.5979 -0.5513 -0.3686
    1BTD    C4721024   9.177   5.893   7.323 -0.2445  0.0721  0.7006
    1BTD    C4821025   9.289   5.945   7.414  0.1124  0.1275 -0.3679
    1BTD    C4921026   9.358   6.070   7.375  0.1641 -0.1858 -0.5897
    1BTD    C5021027   9.444   6.104   7.496  0.0080 -0.2770  0.4302
    1BTD    C7521028   8.785   5.964   7.473  0.2870 -0.2348 -0.1805
    1BTD    C7621029   8.780   6.023   7.619  0.6477 -0.0253  0.2369
    1BTD    C7721030   8.646   6.068   7.673 -0.6387  0.3822 -0.4974
    1BTD    C7821031   8.543   6.160   7.612  0.5507  0.3112  0.2195
    1BTD    C7921032   8.890   6.127   7.622  0.1891 -0.1050 -0.1961
    1BTD    C8021033   8.935   6.170   7.761  0.3663  0.6394  0.1254
    1BTD    C8121034   8.975   6.317   7.782 -0.4629  0.1122 -0.0168
    1BTD    C8221035   8.867   6.415   7.750  0.0215  0.3935  0.6474
    2TTP     S121036   9.016   5.310   7.684 -0.1695  0.1246 -0.2416
    2TTP     S521037   9.312   5.621   7.666 -0.3412  0.3225  0.3300
    2TTP     C121038   9.395   5.465   7.707 -0.2409  0.2723 -0.0579
    2TTP     C221039   9.308   5.359   7.715 -0.1819  0.2083 -0.2573
    2TTP     C321040   9.173   5.399   7.689 -0.2141  0.1963 -0.1110
    2TTP     C421041   8.933   5.467   7.643 -0.2697  0.1745  0.1465
    2TTP    C1721042   9.019   5.572   7.635 -0.3288  0.2386  0.3457
    2TTP    C1821043   9.154   5.533   7.661 -0.2968  0.2505  0.1993
    2TTP    C3221044   9.338   5.220   7.767 -0.2398  1.0016  0.7084
    2TTP    C3321045   9.344   5.111   7.652 -0.4664  0.2440 -0.2274
    2TTP    C3421046   9.392   4.973   7.691  0.3015 -0.3764  0.2375
    2TTP    C3521047   9.291   4.894   7.785  0.1194 -0.2712 -0.2573
    2TTP    C3621048   9.352   4.765   7.828  0.3578  0.4314  0.0490
    2TTP    C3721049   9.303   4.697   7.958  0.0049 -0.5415 -0.1439
    2TTP    C3821050   9.371   4.571   7.992 -0.1157 -0.3503 -1.0253
    2TTP    C3921051   9.524   4.572   8.013 -0.0775  0.4928  0.5085
    2TTP    C4021052   9.586   4.437   8.040  0.4550  0.1563 -0.3426
    2TTP    C4121053   9.739   4.450   8.051 -0.1601  0.1898  0.7171
    2TTP    C4221054   9.814   4.331   8.113  0.5492  0.2524 -0.1653
    3TTP     S121055   8.336   5.755   7.327  0.3120 -0.2245 -0.2988
    3TTP     S521056   8.530   6.135   7.271 -0.0501  0.0449  0.2542
    3TTP     C121057   8.359   6.147   7.210 -0.0084 -0.0826  0.1085
    3TTP     C221058   8.289   6.031   7.224  0.1059 -0.1734 -0.0706
    3TTP     C321059   8.368   5.927   7.283  0.1643 -0.1454 -0.0995
    3TTP     C421060   8.507   5.742   7.388  0.2704 -0.0969 -0.1531
    3TTP    C1721061   8.577   5.859   7.374  0.1557 -0.0061  0.0261
    3TTP    C1821062   8.498   5.962   7.315  0.0973 -0.0340  0.0550
    3TTP    C3221063   8.139   6.004   7.183 -0.3638  0.2341  0.4592
    3TTP    C3321064   8.042   5.911   7.256 -0.3130 -0.2770  0.0229
    3TTP    C3421065   7.911   5.900   7.173 -0.0857 -0.4590 -0.5603
    3TTP    C3521066   7.811   5.805   7.230 -0.3998  0.2358  0.0256
    3TTP    C3621067   7.685   5.784   7.155  0.5516  0.1454  0.5786
    3TTP    C3721068   7.574   5.695   7.221  0.2776 -0.0492  0.4874
    3TTP    C3821069   7.606   5.549   7.240 -0.5723  0.1014 -0.5742
    3TTP    C3921070   7.478   5.487   7.299 -0.1314  0.3391 -0.3943
    3TTP    C4021071   7.484   5.340   7.341  0.0672 -0.1896 -0.0294
    3TTP    C4121072   7.534   5.230   7.253  0.3288  0.5238  0.4470
    3TTP    C4221073   7.560   5.095   7.324  0.4595 -0.1898  0.0349
    4BIM     F121074  10.069   5.948   7.666  0.2596 -0.1411 -0.0980
    4BIM     F221075  10.218   5.737   7.752  0.1810 -0.1003  0.1413
    4BIM     O121076   9.575   5.726   7.658  0.2351 -0.0811 -0.2351
    4BIM     N521077  10.081   5.277   7.869  0.0503  0.0012  0.3875
    4BIM     N621078   9.665   5.146   7.845  0.0467  0.0398  0.2322
    4BIM    C1921079   9.542   5.446   7.737  0.1511 -0.0207 -0.0553
    4BIM    C2021080   9.660   5.510   7.735  0.1605 -0.0376 -0.0300
    4BIM    C2121081   9.669   5.655   7.694  0.2043 -0.0684 -0.1276
    4BIM    C2221082   9.811   5.693   7.704  0.2034 -0.0801 -0.0697
    4BIM    C2321083   9.868   5.816   7.675  0.2365 -0.1079 -0.1236
    4BIM    C2421084  10.005   5.828   7.692  0.2283 -0.1141 -0.0505
    4BIM    C2521085  10.082   5.720   7.737  0.1876 -0.0930  0.0727
    4BIM    C2621086  10.026   5.596   7.765  0.1543 -0.0652  0.1272
    4BIM    C2721087   9.887   5.582   7.748  0.1621 -0.0585  0.0545
    4BIM    C2821088   9.798   5.466   7.770  0.1340 -0.0316  0.0838
    4BIM    C2921089   9.835   5.340   7.813  0.0918 -0.0058  0.1953
    4BIM    C3021090   9.970   5.306   7.844  0.0691 -0.0020  0.3005
    4BIM    C3121091   9.741   5.234   7.830  0.0672  0.0192  0.2148
    5BIM     F121092   8.589   6.901   6.954  0.0138  0.3011  0.6258
    5BIM     F221093   8.328   6.952   6.897  0.1557 -0.0263 -0.3519
    5BIM     O121094   8.555   6.392   7.137 -0.0668  0.3583  0.7706
    5BIM     N521095   7.929   6.664   6.944  0.3029 -0.4567 -1.6549
    5BIM     N621096   7.955   6.256   7.098  0.2117 -0.3459 -1.3446
    5BIM    C1921097   8.294   6.261   7.146  0.0406  0.0657 -0.1121
    5BIM    C2021098   8.313   6.387   7.103  0.0553  0.0641 -0.1103
    5BIM    C2121099   8.450   6.447   7.101 -0.0029  0.2197  0.3582
    5BIM    C2221100   8.435   6.584   7.048  0.0315  0.1744  0.2301
    5BIM    C2321101   8.535   6.679   7.028 -0.0007  0.2774  0.5434
    5BIM    C2421102   8.496   6.802   6.977  0.0427  0.2065  0.3372
    5BIM    C2521103   8.361   6.828   6.947  0.1151  0.0376 -0.1667
    5BIM    C2621104   8.261   6.734   6.967  0.1483 -0.0659 -0.4814
    5BIM    C2721105   8.299   6.609   7.019  0.1051  0.0038 -0.2795
    5BIM    C2821106   8.218   6.489   7.051  0.1230 -0.0707 -0.5087
    5BIM    C2921107   8.082   6.475   7.036  0.1891 -0.2335 -0.9968
    5BIM    C3021108   7.998   6.579   6.986  0.2514 -0.3556 -1.3570
    5BIM    C3121109   8.013   6.355   7.071  0.2010 -0.2944 -1.1853
    1BTD     S221110   6.391   8.887   4.744  0.1596  0.0256 -0.1954
    1BTD     N121111   6.475   9.042   4.782  0.2760  0.0196 -0.4188
    1BTD     N221112   6.248   8.967   4.670  0.0113  0.0341  0.0981
    1BTD     N321113   6.107   9.407   4.589 -0.0812  0.0405  0.2923
    1BTD     N421114   6.386   9.500   4.728  0.2451  0.0224 -0.3444
    1BTD     C521115   6.425   9.280   4.752  0.2561  0.0215 -0.3723
    1BTD     C621116   6.396   9.139   4.740  0.2019  0.0238 -0.2710
    1BTD     C721117   6.269   9.097   4.677  0.0538  0.0319  0.0185
    1BTD     C821118   6.178   9.198   4.629 -0.0330  0.0372  0.1918
    1BTD    C1521119   6.211   9.334   4.643  0.0243  0.0344  0.0838
    1BTD    C1621120   6.333   9.374   4.703  0.1669  0.0263 -0.1951
    1BTD    C4321121   6.301   9.614   4.786 -0.4453 -0.0038  0.5370
    1BTD    C4421122   6.345   9.768   4.783  0.3784 -0.4099  1.1297
    1BTD    C4521123   6.245   9.861   4.858 -0.1356 -0.4987  0.1559
    1BTD    C4621124   6.251   9.844   5.009  0.7427 -0.0399 -0.0309
    1BTD    C4721125   6.350   9.807   4.627  0.4525 -0.5533 -0.1695
    1BTD    C4821126   6.368   9.956   4.584 -0.6347  0.4060  0.4415
    1BTD    C4921127   6.243  10.049   4.559 -0.2143  0.2791 -0.5822
    1BTD    C5021128   6.281  10.184   4.503 -0.0577  0.0159 -0.3830
    1BTD    C7521129   6.117   9.551   4.550 -1.1797 -0.6749  0.0847
    1BTD    C7621130   6.008   9.652   4.519  0.4331  0.3188  0.1489
    1BTD    C7721131   5.948   9.700   4.653  0.4266 -0.0764  0.1621
    1BTD    C7821132   5.824   9.796   4.647  0.1090 -0.4075  0.1695
    1BTD    C7921133   6.057   9.760   4.424 -0.4465 -0.5430  0.3196
    1BTD    C8021134   6.108   9.730   4.287 -0.4617  0.1570  0.5810
    1BTD    C8121135   6.011   9.669   4.173  0.8265  0.5721 -0.1792
    1BTD    C8221136   5.897   9.767   4.139 -0.2660 -0.2944  0.2694
    2TTP     S121137   6.691   9.305   4.878  0.0433  0.0833 -0.2288
    2TTP     S521138   6.662   9.733   4.845 -0.2524  0.1349  0.6526
    2TTP     C121139   6.821   9.692   4.923 -0.0167  0.0612  0.1416
    2TTP     C221140   6.839   9.557   4.937  0.0886  0.0408 -0.1607
    2TTP     C321141   6.728   9.482   4.888 -0.0132  0.0827  0.0002
    2TTP     C421142   6.532   9.347   4.800 -0.1923  0.1574  0.2823
    2TTP    C1721143   6.514   9.481   4.785 -0.2976  0.1774  0.5845
    2TTP    C1821144   6.624   9.556   4.835 -0.1959  0.1359  0.4234
    2TTP    C3221145   6.950   9.482   5.004  0.3698  0.0411  0.1817
    2TTP    C3321146   6.939   9.453   5.153  0.3327 -0.7034  0.6318
    2TTP    C3421147   7.045   9.374   5.230  0.0297 -0.2879  0.2872
    2TTP    C3521148   7.143   9.456   5.309 -0.4696  0.2453 -0.1550
    2TTP    C3621149   7.251   9.395   5.387 -0.1465  0.2856 -0.2726
    2TTP    C3721150   7.336   9.504   5.462 -0.6090  0.2443  0.3782
    2TTP    C3821151   7.431   9.612   5.404  0.1629  0.2090  0.4169
    2TTP    C3921152   7.526   9.540   5.310  0.0386  0.0629  0.0030
    2TTP    C4021153   7.657   9.611   5.279 -0.1721  0.0625  1.1208
    2TTP    C4121154   7.747   9.643   5.399  0.3809 -0.1619 -0.3243
    2TTP    C4221155   7.878   9.682   5.351 -0.5219  0.1118  0.2299
    3TTP     S121156   5.942   9.062   4.491  0.2664  0.1786 -0.5123
    3TTP     S521157   5.778   9.451   4.407 -0.4710  0.0665  0.3685
    3TTP     C121158   5.671   9.326   4.331 -0.2940  0.0306  0.1780
    3TTP     C221159   5.715   9.198   4.352 -0.0559  0.0627 -0.1053
    3TTP     C321160   5.835   9.195   4.430 -0.0045  0.1175 -0.1820
    3TTP     C421161   6.049   9.188   4.568  0.0894  0.2146 -0.3217
    3TTP    C1721162   6.005   9.315   4.546 -0.1486  0.1823 -0.0387
    3TTP    C1821163   5.885   9.318   4.469 -0.2000  0.1278  0.0380
    3TTP    C3221164   5.652   9.071   4.298  0.0471 -0.2204  0.1659
    3TTP    C3321165   5.738   8.976   4.212 -0.0581 -0.3638  0.1820
    3TTP    C3421166   5.649   8.881   4.135 -0.0555  1.0633  0.0471
    3TTP    C3521167   5.729   8.757   4.093  0.3061  0.2114  0.2119
    3TTP    C3621168   5.759   8.650   4.194  0.0448  0.4108  0.3412
    3TTP    C3721169   5.870   8.558   4.153  0.6269 -0.0658  0.1075
    3TTP    C3821170   5.869   8.420   4.228  0.6663 -0.7441  0.3159
    3TTP    C3921171   5.978   8.324   4.182 -0.4795  0.2063  0.0405
    3TTP    C4021172   5.971   8.190   4.243 -0.0543  0.6246 -0.4901
    3TTP    C4121173   6.086   8.089   4.217  0.5259 -0.4701 -0.5283
    3TTP    C4221174   6.230   8.127   4.228 -0.0192 -0.6373  0.1484
    4BIM     F121175   6.949  10.505   4.932  0.2654  0.0055 -0.3374
    4BIM     F221176   7.204  10.458   5.016  0.0945 -0.0559  0.1528
    4BIM     O121177   6.760  10.000   4.888  0.1137  0.0627 -0.3420
    4BIM     N521178   7.434  10.029   5.105 -0.2590 -0.1034  0.8540
    4BIM     N621179   7.235   9.644   5.054 -0.3431 -0.0464  0.7516
    4BIM    C1921180   6.935   9.775   4.953 -0.1033  0.0243  0.1244
    4BIM    C2021181   6.973   9.904   4.960 -0.0583  0.0123  0.1065
    4BIM    C2121182   6.877  10.014   4.926  0.0536  0.0336 -0.1401
    4BIM    C2221183   6.950  10.141   4.945  0.0770  0.0131 -0.0932
    4BIM    C2321184   6.902  10.270   4.925  0.1711  0.0220 -0.2652
    4BIM    C2421185   6.990  10.375   4.950  0.1748 -0.0017 -0.1772
    4BIM    C2521186   7.121  10.350   4.993  0.0865 -0.0333  0.0753
    4BIM    C2621187   7.169  10.222   5.013 -0.0075 -0.0424  0.2481
    4BIM    C2721188   7.082  10.114   4.988 -0.0125 -0.0187  0.1624
    4BIM    C2821189   7.101   9.968   5.000 -0.0994 -0.0205  0.2952
    4BIM    C2921190   7.216   9.903   5.039 -0.1986 -0.0473  0.5453
    4BIM    C3021191   7.336   9.973   5.075 -0.2314 -0.0781  0.7142
    4BIM    C3121192   7.226   9.761   5.047 -0.2775 -0.0467  0.6573
    5BIM     F121193   5.231   9.985   4.104 -0.2285 -0.2267  0.3775
    5BIM     F221194   5.042   9.815   4.006 -0.1534 -0.1919  0.1732
    5BIM     O121195   5.601   9.633   4.284 -0.1961 -0.2837  0.1988
    5BIM     N521196   5.035   9.320   3.992 -0.0222 -0.1826 -0.2480
    5BIM     N621197   5.362   9.080   4.152 -0.0120 -0.2341 -0.3464
    5BIM    C1921198   5.553   9.346   4.253 -0.1126 -0.2711 -0.0599
    5BIM    C2021199   5.467   9.441   4.212 -0.1239 -0.2577 -0.0070
    5BIM    C2121200   5.499   9.586   4.231 -0.1671 -0.2656  0.1266
    5BIM    C2221201   5.385   9.662   4.175 -0.1688 -0.2472  0.1541
    5BIM    C2321202   5.369   9.800   4.170 -0.2027 -0.2472  0.2661
    5BIM    C2421203   5.253   9.849   4.113 -0.1964 -0.2280  0.2698
    5BIM    C2521204   5.156   9.761   4.062 -0.1577 -0.2102  0.1644
    5BIM    C2621205   5.171   9.623   4.067 -0.1239 -0.2108  0.0525
    5BIM    C2721206   5.288   9.572   4.125 -0.1293 -0.2298  0.0468
    5BIM    C2821207   5.334   9.433   4.145 -0.1001 -0.2351 -0.0564
    5BIM    C2921208   5.267   9.318   4.109 -0.0592 -0.2220 -0.1750
    5BIM    C3021209   5.140   9.320   4.045 -0.0390 -0.2003 -0.2147
    5BIM    C3121210   5.320   9.188   4.133 -0.0335 -0.2289 -0.2687
    1BTD     S221211   3.544   4.908   0.471 -0.0272 -0.1569 -0.2117
    1BTD     N121212   3.403   4.977   0.383  0.0358 -0.3211 -0.4398
    1BTD     N221213   3.463   4.752   0.508 -0.0391 -0.1047 -0.0116
    1BTD     N321214   3.044   4.557   0.422  0.0499 -0.2946 -0.0157
    1BTD     N421215   2.971   4.834   0.267  0.1423 -0.5611 -0.5434
    1BTD     C521216   3.179   4.899   0.324  0.0902 -0.4432 -0.4875
    1BTD     C621217   3.308   4.884   0.385  0.0442 -0.3281 -0.3592
    1BTD     C721218   3.342   4.758   0.455  0.0021 -0.2069 -0.1195
    1BTD     C821219   3.244   4.653   0.461  0.0085 -0.2069 -0.0201
    1BTD    C1521220   3.118   4.672   0.400  0.0544 -0.3221 -0.1522
    1BTD    C1621221   3.086   4.794   0.333  0.0947 -0.4387 -0.3831
    1BTD    C4321222   2.829   4.793   0.295 -0.1145  0.4297 -0.0036
    1BTD    C4421223   2.741   4.772   0.181  1.3462  0.0314  0.1594
    1BTD    C4521224   2.585   4.780   0.201 -0.6097 -0.0682  0.2661
    1BTD    C4621225   2.534   4.909   0.252  0.2883 -0.1979  0.3427
    1BTD    C4721226   2.773   4.652   0.091 -0.5135  0.3678  0.6064
    1BTD    C4821227   2.721   4.669  -0.055  0.0062 -0.6472  0.2059
    1BTD    C4921228   2.749   4.553  -0.149  0.4539 -0.5200  0.1689
    1BTD    C5021229   2.652   4.443  -0.099  0.5688  0.3065  0.6035
    1BTD    C7521230   2.967   4.500   0.315  0.2649 -0.0741 -0.1928
    1BTD    C7621231   2.851   4.398   0.355 -0.6010 -0.3669 -0.4394
    1BTD    C7721232   2.780   4.334   0.243  0.2707  0.8399  0.4136
    1BTD    C7821233   2.856   4.253   0.137  0.2038 -0.7099  0.3181
    1BTD    C7921234   2.763   4.455   0.469  0.2267 -0.7040  0.0989
    1BTD    C8021235   2.660   4.361   0.537 -0.3226  0.0672 -1.2452
    1BTD    C8121236   2.564   4.423   0.640 -0.0057 -0.0431 -0.2482
    1BTD    C8221237   2.456   4.322   0.688 -0.1823  0.5712 -0.0617
    2TTP     S121238   3.161   5.165   0.184 -0.1029 -0.1952  0.0470
    2TTP     S521239   2.770   5.063   0.037 -0.1994  0.0639  0.1230
    2TTP     C121240   2.818   5.225  -0.032 -0.0321 -0.0485 -0.0253
    2TTP     C221241   2.942   5.266   0.009  0.0076 -0.1352 -0.0572
    2TTP     C321242   3.003   5.171   0.097 -0.0927 -0.1159  0.0338
    2TTP     C421243   3.113   5.004   0.253 -0.2701 -0.0829  0.1950
    2TTP    C1721244   2.990   4.963   0.212 -0.3097  0.0037  0.2272
    2TTP    C1821245   2.929   5.057   0.124 -0.2095 -0.0155  0.1362
    2TTP    C3221246   3.018   5.391  -0.038 -0.2965  0.0614 -0.7764
    2TTP    C3321247   2.975   5.527   0.017 -0.0844  0.0273  0.0597
    2TTP    C3421248   3.046   5.651  -0.033 -0.4618 -0.8308  0.7098
    2TTP    C3521249   2.969   5.779  -0.000  0.1339  0.0722  0.1038
    2TTP    C3621250   3.033   5.907  -0.049  0.1822  0.0021 -0.0954
    2TTP    C3721251   2.974   6.042  -0.007  1.1082 -0.1315 -0.2925
    2TTP    C3821252   2.838   6.073  -0.074 -0.1704 -0.3135 -0.8256
    2TTP    C3921253   2.789   6.219  -0.052 -0.3310  0.2433  0.1350
    2TTP    C4021254   2.650   6.250  -0.119  0.2774  0.1260  0.0828
    2TTP    C4121255   2.589   6.393  -0.087  0.8658  0.2129 -0.0501
    2TTP    C4221256   2.658   6.516  -0.148 -0.0688  0.1414  0.3354
    3TTP     S121257   3.359   4.431   0.621 -0.1512 -0.0570 -0.1982
    3TTP     S521258   2.987   4.218   0.582 -0.3832  0.2919  0.0985
    3TTP     C121259   3.099   4.120   0.687 -0.4219  0.2272  0.0795
    3TTP     C221260   3.220   4.180   0.705 -0.3525  0.1156 -0.0133
    3TTP     C321261   3.229   4.305   0.637 -0.2664  0.0772 -0.0727
    3TTP     C421262   3.247   4.528   0.516 -0.1125  0.0077 -0.1792
    3TTP    C1721263   3.125   4.469   0.498 -0.1819  0.1193 -0.0864
    3TTP    C1821264   3.116   4.343   0.566 -0.2681  0.1577 -0.0270
    3TTP    C3221265   3.347   4.117   0.774 -0.2035 -0.1002 -0.1670
    3TTP    C3321266   3.412   4.197   0.889  0.1846 -0.1918  0.2838
    3TTP    C3421267   3.538   4.134   0.927 -0.6004  0.7366  0.9790
    3TTP    C3521268   3.610   4.205   1.040 -0.3232 -0.6507 -0.1796
    3TTP    C3621269   3.746   4.154   1.081 -0.3051 -0.3954  0.2683
    3TTP    C3721270   3.866   4.173   0.981  0.5135 -0.1067 -0.0079
    3TTP    C3821271   3.891   4.294   0.898 -0.5236 -1.0812  0.4837
    3TTP    C3921272   4.011   4.285   0.816 -0.3133  0.2746  0.2637
    3TTP    C4021273   4.059   4.415   0.752  0.4224  0.4202 -0.0387
    3TTP    C4121274   4.176   4.384   0.656  0.3208 -0.9463 -0.3474
    3TTP    C4221275   4.199   4.513   0.577 -0.1155  0.5995  0.0784
    4BIM     F121276   2.104   5.135  -0.426 -0.1217  0.2778  0.3126
    4BIM     F221277   2.189   5.321  -0.606  0.2173 -0.4445 -0.2856
    4BIM     O121278   2.523   5.127  -0.082 -0.2661  0.8262  0.5033
    4BIM     N521279   2.609   5.583  -0.620  0.6018 -1.0918 -1.0097
    4BIM     N621280   2.919   5.539  -0.315  0.4206 -0.5176 -0.7403
    4BIM    C1921281   2.752   5.302  -0.132  0.0065  0.3312 -0.0004
    4BIM    C2021282   2.643   5.297  -0.212  0.0296  0.2213 -0.0253
    4BIM    C2121283   2.529   5.204  -0.179 -0.1169  0.4923  0.2444
    4BIM    C2221284   2.429   5.224  -0.285 -0.0480  0.2830  0.1392
    4BIM    C2321285   2.306   5.160  -0.298 -0.1356  0.4160  0.3083
    4BIM    C2421286   2.227   5.195  -0.407 -0.0430  0.1648  0.1592
    4BIM    C2521287   2.271   5.290  -0.499  0.1316 -0.2071 -0.1489
    4BIM    C2621288   2.393   5.355  -0.487  0.2198 -0.3417 -0.3188
    4BIM    C2721289   2.474   5.321  -0.378  0.1283 -0.0916 -0.1721
    4BIM    C2821290   2.608   5.369  -0.336  0.1829 -0.1444 -0.2854
    4BIM    C2921291   2.685   5.464  -0.401  0.3446 -0.4698 -0.5760
    4BIM    C3021292   2.643   5.529  -0.521  0.4855 -0.8106 -0.8135
    4BIM    C3121293   2.813   5.505  -0.353  0.3855 -0.4944 -0.6647
    5BIM     F121294   2.428   3.651   0.763  0.2886 -0.2293 -0.1469
    5BIM     F221295   2.586   3.452   0.859  0.2912  0.0161  0.3617
    5BIM     O121296   2.794   4.042   0.681  0.1916 -0.2233 -0.5590
    5BIM     N521297   3.075   3.444   0.940  0.2259  0.3732  0.7991
    5BIM     N621298   3.329   3.789   0.857  0.1495  0.3283  0.3746
    5BIM    C1921299   3.075   3.990   0.745  0.1596  0.0132 -0.2195
    5BIM    C2021300   2.977   3.900   0.761  0.1839  0.0021 -0.1357
    5BIM    C2121301   2.835   3.934   0.726  0.1991 -0.1227 -0.3221
    5BIM    C2221302   2.754   3.814   0.757  0.2245 -0.1014 -0.1679
    5BIM    C2321303   2.617   3.797   0.741  0.2452 -0.1894 -0.2558
    5BIM    C2421304   2.563   3.674   0.776  0.2673 -0.1471 -0.0733
    5BIM    C2521305   2.645   3.572   0.826  0.2687 -0.0208  0.1886
    5BIM    C2621306   2.782   3.588   0.842  0.2482  0.0675  0.2777
    5BIM    C2721307   2.838   3.711   0.807  0.2255  0.0266  0.0958
    5BIM    C2821308   2.978   3.760   0.812  0.2006  0.0952  0.1260
    5BIM    C2921309   3.088   3.689   0.854  0.1943  0.2211  0.3531
    5BIM    C3021310   3.080   3.555   0.901  0.2117  0.3043  0.5976
    5BIM    C3121311   3.220   3.745   0.856  0.1696  0.2794  0.3636
    1BTD     S221312   0.865   3.531   3.770 -0.1469 -0.1446  0.2191
    1BTD     N121313   0.765   3.430   3.660  0.2692 -0.0333 -0.2655
    1BTD     N221314   0.943   3.391   3.852 -0.5299 -0.2290  0.4454
    1BTD     N321315   0.923   2.923   3.819 -0.5590 -0.1996  0.0319
    1BTD     N421316   0.704   2.971   3.582  0.4257  0.0416 -0.8442
    1BTD     C521317   0.736   3.190   3.622  0.3390  0.0030 -0.5571
    1BTD     C621318   0.794   3.303   3.688  0.1095 -0.0630 -0.2351
    1BTD     C721319   0.893   3.282   3.796 -0.3378 -0.1727  0.1628
    1BTD     C821320   0.930   3.148   3.832 -0.5332 -0.2108  0.2189
    1BTD    C1521321   0.870   3.039   3.765 -0.2962 -0.1433 -0.1048
    1BTD    C1621322   0.774   3.060   3.661  0.1348 -0.0377 -0.4883
    1BTD    C4321323   0.744   2.833   3.548  0.4004  0.0367  1.3218
    1BTD    C4421324   0.815   2.810   3.406  0.3853 -0.2823  0.2853
    1BTD    C4521325   0.935   2.898   3.376  0.3653 -0.1251  0.4261
    1BTD    C4621326   1.066   2.893   3.457  0.2231 -0.0224 -0.2594
    1BTD    C4721327   0.832   2.664   3.377 -0.3795 -0.2630 -0.1460
    1BTD    C4821328   0.865   2.612   3.236  0.0317  0.1445 -0.4254
    1BTD    C4921329   0.770   2.662   3.123  0.0574  0.4773  0.3666
    1BTD    C5021330   0.823   2.665   2.984 -0.3184  0.0873 -0.0464
    1BTD    C7521331   0.842   2.798   3.843  0.1527 -0.3735  0.2067
    1BTD    C7621332   0.902   2.671   3.895  0.0517  1.2386  0.1818
    1BTD    C7721333   0.983   2.580   3.794  0.0615 -0.4403  0.0609
    1BTD    C7821334   0.897   2.518   3.677 -0.4771 -0.4411 -0.4584
    1BTD    C7921335   0.796   2.588   3.983  0.9308 -0.0832  0.6787
    1BTD    C8021336   0.843   2.469   4.066 -0.4356  0.4479  0.4628
    1BTD    C8121337   0.745   2.352   4.057 -0.3229 -0.4699  0.4826
    1BTD    C8221338   0.761   2.266   4.178 -0.6279 -0.0048 -0.1448
    2TTP     S121339   0.544   3.279   3.412  0.0735 -0.1875 -0.1683
    2TTP     S521340   0.464   2.870   3.308 -0.1258 -0.1158 -0.2984
    2TTP     C121341   0.371   2.978   3.195 -0.0815 -0.0348 -0.2577
    2TTP     C221342   0.391   3.110   3.220 -0.0174 -0.0522 -0.2151
    2TTP     C321343   0.479   3.132   3.330 -0.0009 -0.1301 -0.2131
    2TTP     C421344   0.636   3.171   3.526  0.0292 -0.2684 -0.2091
    2TTP    C1721345   0.617   3.039   3.501 -0.0349 -0.2511 -0.2515
    2TTP    C1821346   0.528   3.017   3.391 -0.0514 -0.1732 -0.2536
    2TTP    C3221347   0.340   3.233   3.148  0.1172 -0.2503  0.0167
    2TTP    C3321348   0.206   3.296   3.196 -0.2241  0.1669 -0.2081
    2TTP    C3421349   0.087   3.240   3.126 -0.3121 -0.6235  0.3730
    2TTP    C3521350  -0.037   3.322   3.151  0.4240  0.2742  0.0685
    2TTP    C3621351  -0.162   3.254   3.092 -0.7994  0.3207 -0.1064
    2TTP    C3721352  -0.272   3.348   3.090  0.3692 -0.3947 -0.2721
    2TTP    C3821353  -0.379   3.294   2.998 -0.2362  0.0189 -0.5871
    2TTP    C3921354  -0.469   3.409   2.954  0.4759 -0.1060 -0.0207
    2TTP    C4021355  -0.565   3.382   2.836  0.2408 -0.1643  0.3527
    2TTP    C4121356  -0.662   3.262   2.851  0.7402  0.1631 -0.0636
    2TTP    C4221357  -0.775   3.273   2.959  0.0635 -0.0991  0.7749
    3TTP     S121358   1.171   3.163   4.010  0.2322 -0.0366 -0.0727
    3TTP     S521359   1.230   2.742   3.944  0.0063 -0.0923  0.0814
    3TTP     C121360   1.378   2.809   4.026  0.1822 -0.0742 -0.2500
    3TTP     C221361   1.369   2.943   4.051  0.2623 -0.0559 -0.3172
    3TTP     C321362   1.244   2.997   4.006  0.1877 -0.0556 -0.1093
    3TTP     C421363   1.023   3.095   3.928  0.0563 -0.0548  0.2587
    3TTP    C1721364   1.032   2.962   3.903 -0.0238 -0.0730  0.3259
    3TTP    C1821365   1.157   2.907   3.948  0.0508 -0.0734  0.1178
    3TTP    C3221366   1.463   3.034   4.123 -0.5447  0.4222  0.5968
    3TTP    C3321367   1.438   3.080   4.265 -0.0494  0.1821  0.3529
    3TTP    C3421368   1.555   3.154   4.342 -0.0151  0.1546  0.0559
    3TTP    C3521369   1.574   3.305   4.299  0.1782 -0.1217 -0.0502
    3TTP    C3621370   1.463   3.410   4.304  0.2330  0.1009 -0.1579
    3TTP    C3721371   1.439   3.466   4.442  0.1198 -0.2661 -0.0892
    3TTP    C3821372   1.311   3.545   4.456  0.2448  0.4254 -0.0918
    3TTP    C3921373   1.263   3.581   4.598 -0.3141  0.0024 -0.0160
    3TTP    C4021374   1.356   3.661   4.681  0.0140  0.5630  0.0218
    3TTP    C4121375   1.299   3.717   4.811  0.2306 -0.2201  0.0415
    3TTP    C4221376   1.410   3.756   4.904  0.2529  0.2698 -0.3790
    4BIM     F121377   0.062   2.247   2.977  0.2756  0.0429 -0.1749
    4BIM     F221378  -0.026   2.361   2.746 -0.8898  0.2929  0.3779
    4BIM     O121379   0.293   2.672   3.220  0.9980 -0.0914 -0.6199
    4BIM     N521380   0.012   2.828   2.588 -2.0502  0.5568  0.8558
    4BIM     N621381   0.210   3.137   2.824 -1.2508  0.4013  0.3967
    4BIM    C1921382   0.291   2.932   3.086  0.1413  0.0997 -0.2496
    4BIM    C2021383   0.236   2.820   3.034  0.0051  0.1237 -0.1593
    4BIM    C2121384   0.241   2.690   3.109  0.4699  0.0205 -0.3625
    4BIM    C2221385   0.173   2.591   3.024  0.1743  0.0786 -0.1957
    4BIM    C2321386   0.153   2.456   3.052  0.4252  0.0201 -0.2920
    4BIM    C2421387   0.085   2.381   2.956  0.0565  0.0947 -0.0942
    4BIM    C2521388   0.040   2.440   2.838 -0.5437  0.2233  0.1905
    4BIM    C2621389   0.060   2.574   2.809 -0.7969  0.2823  0.2881
    4BIM    C2721390   0.128   2.652   2.905 -0.4307  0.2085  0.0910
    4BIM    C2821391   0.165   2.795   2.906 -0.5586  0.2413  0.1247
    4BIM    C2921392   0.138   2.887   2.807 -1.0967  0.3585  0.3719
    4BIM    C3021393   0.069   2.854   2.687 -1.6191  0.4669  0.6371
    4BIM    C3121394   0.178   3.024   2.817 -1.1783  0.3813  0.3841
    5BIM     F121395   1.682   2.071   3.828 -0.0565 -0.0386 -0.0545
    5BIM     F221396   1.928   2.159   3.906 -0.0598 -0.0817  0.0041
    5BIM     O121397   1.380   2.509   3.932  0.0152  0.0538 -0.2333
    5BIM     N521398   2.066   2.596   4.093 -0.0133 -0.0778 -0.0391
    5BIM     N621399   1.780   2.920   4.158  0.0435  0.0032 -0.1907
    5BIM    C1921400   1.507   2.747   4.044  0.0377  0.0455 -0.2409
    5BIM    C2021401   1.574   2.634   4.015  0.0197  0.0239 -0.1982
    5BIM    C2121402   1.501   2.515   3.957  0.0091  0.0299 -0.1973
    5BIM    C2221403   1.602   2.410   3.938 -0.0098  0.0019 -0.1453
    5BIM    C2321404   1.583   2.282   3.887 -0.0246 -0.0035 -0.1263
    5BIM    C2421405   1.694   2.199   3.877 -0.0413 -0.0317 -0.0758
    5BIM    C2521406   1.821   2.245   3.918 -0.0430 -0.0540 -0.0457
    5BIM    C2621407   1.841   2.372   3.968 -0.0282 -0.0488 -0.0645
    5BIM    C2721408   1.729   2.457   3.979 -0.0113 -0.0203 -0.1156
    5BIM    C2821409   1.717   2.597   4.028  0.0068 -0.0076 -0.1467
    5BIM    C2921410   1.818   2.676   4.076  0.0109 -0.0222 -0.1310
    5BIM    C3021411   1.954   2.632   4.085 -0.0024 -0.0528 -0.0806
    5BIM    C3121412   1.797   2.810   4.121  0.0288 -0.0083 -0.1640
    1BTD     S221413   5.845   8.358   7.628  0.1096  0.1477 -0.0602
    1BTD     N121414   6.011   8.379   7.693  0.1698  0.0663 -0.1884
    1BTD     N221415   5.823   8.532   7.586  0.0608  0.2046  0.2012
    1BTD     N321416   6.080   8.924   7.619  0.0707  0.1740  0.5022
    1BTD     N421417   6.312   8.735   7.750  0.2049  0.0031  0.0221
    1BTD     C521418   6.165   8.568   7.721  0.1867  0.0358 -0.0727
    1BTD     C621419   6.041   8.508   7.681  0.1515  0.0849 -0.0377
    1BTD     C721420   5.935   8.594   7.621  0.0905  0.1624  0.1805
    1BTD     C821421   5.960   8.734   7.605  0.0678  0.1864  0.3527
    1BTD    C1521422   6.084   8.788   7.646  0.1035  0.1363  0.3108
    1BTD    C1621423   6.185   8.706   7.703  0.1622  0.0618  0.1006
    1BTD    C4321424   6.404   8.825   7.679  0.4963  0.2656  0.4261
    1BTD    C4421425   6.523   8.899   7.742 -0.1488  0.3473  0.3731
    1BTD    C4521426   6.627   8.949   7.635 -0.0497  0.5613  0.2041
    1BTD    C4621427   6.684   8.846   7.531  0.1020  0.1269 -0.3677
    1BTD    C4721428   6.495   8.990   7.860 -0.0765  0.3396  0.0685
    1BTD    C4821429   6.623   9.037   7.938  0.0045  0.5489  0.3885
    1BTD    C4921430   6.612   9.160   8.018  0.3128 -0.4444 -0.2764
    1BTD    C5021431   6.746   9.200   8.068  0.0473 -0.3434  0.2459
    1BTD    C7521432   6.140   9.031   7.703  0.1144  0.0326  0.5827
    1BTD    C7621433   6.189   9.168   7.639 -0.2521 -0.3969 -0.6618
    1BTD    C7721434   6.237   9.270   7.750 -0.3976 -0.0317 -0.1600
    1BTD    C7821435   6.149   9.297   7.876 -0.5869 -0.0610  0.0838
    1BTD    C7921436   6.274   9.152   7.519 -0.4403 -0.0976  0.1249
    1BTD    C8021437   6.320   9.282   7.454  0.0872  0.4396  0.3761
    1BTD    C8121438   6.436   9.266   7.355  0.4037  0.5255  0.2165
    1BTD    C8221439   6.506   9.382   7.293 -0.0879  0.4427  0.1812
    2TTP     S121440   6.330   8.352   7.851 -0.2400  0.0397  0.2409
    2TTP     S521441   6.620   8.650   7.959  0.0818 -0.1855  0.0005
    2TTP     C121442   6.663   8.494   8.042 -0.0423 -0.1857  0.0648
    2TTP     C221443   6.576   8.393   8.013 -0.1490 -0.1161  0.1428
    2TTP     C321444   6.472   8.435   7.925 -0.1365 -0.0601  0.1547
    2TTP     C421445   6.287   8.508   7.767 -0.1160  0.0401  0.1765
    2TTP    C1721446   6.374   8.609   7.796 -0.0093 -0.0296  0.0986
    2TTP    C1821447   6.478   8.567   7.884 -0.0216 -0.0856  0.0869
    2TTP    C3221448   6.580   8.250   8.060 -0.4675  0.4707 -0.0589
    2TTP    C3321449   6.589   8.139   7.955  0.0044 -0.0577  0.1446
    2TTP    C3421450   6.548   8.001   8.014 -0.6418 -0.0586  0.3927
    2TTP    C3521451   6.566   7.899   7.902  0.8668  0.4263 -0.6163
    2TTP    C3621452   6.555   7.755   7.951  0.3709  0.2468  0.0273
    2TTP    C3721453   6.522   7.647   7.847 -0.4159  0.1743  0.2468
    2TTP    C3821454   6.526   7.511   7.914 -0.7051  0.8193  0.3155
    2TTP    C3921455   6.494   7.378   7.841 -0.3330 -0.3064 -0.1516
    2TTP    C4021456   6.347   7.367   7.795  0.0362  0.6845  0.1566
    2TTP    C4121457   6.237   7.375   7.903 -0.3286  0.5402 -0.2376
    2TTP    C4221458   6.106   7.388   7.832 -0.0995  0.1310  0.5200
    3TTP     S121459   5.720   8.858   7.469  0.1290 -0.2457  0.2054
    3TTP     S521460   5.901   9.245   7.520  0.0082 -0.0873 -0.5333
    3TTP     C121461   5.739   9.267   7.440 -0.0166 -0.2883 -0.5392
    3TTP     C221462   5.674   9.149   7.419  0.0191 -0.3493 -0.3115
    3TTP     C321463   5.749   9.037   7.466  0.0675 -0.2391 -0.1240
    3TTP     C421464   5.881   8.836   7.549  0.1539 -0.0443  0.2112
    3TTP    C1721465   5.947   8.954   7.570  0.1181  0.0162 -0.0164
    3TTP    C1821466   5.872   9.066   7.523  0.0697 -0.0939 -0.2040
    3TTP    C3221467   5.533   9.128   7.362  0.4640  0.2089 -0.1226
    3TTP    C3321468   5.510   9.022   7.254  0.0903  0.4433 -0.0485
    3TTP    C3421469   5.373   8.966   7.258  0.4293 -0.1309 -0.4638
    3TTP    C3521470   5.349   8.834   7.179  0.2163  0.9165 -0.4358
    3TTP    C3621471   5.216   8.780   7.223  0.3766 -0.8442  0.1418
    3TTP    C3721472   5.180   8.650   7.155 -0.0818 -0.3491  0.1810
    3TTP    C3821473   5.047   8.587   7.194  0.3580  0.0726 -0.2717
    3TTP    C3921474   5.044   8.527   7.329 -0.4376  0.6937 -0.8192
    3TTP    C4021475   4.999   8.632   7.435  0.4669  0.4946  0.5167
    3TTP    C4121476   4.999   8.576   7.570 -0.2522  0.9526  0.0498
    3TTP    C4221477   4.936   8.663   7.675 -0.2493 -0.5046 -0.3750
    4BIM     F121478   7.363   8.896   8.220  0.1259  0.2062 -0.1240
    4BIM     F221479   7.452   8.671   8.344  0.1316  0.2396 -0.0682
    4BIM     O121480   6.872   8.735   8.056  0.1023  0.1752 -0.0224
    4BIM     N521481   7.231   8.233   8.405  0.1233  0.2654  0.0846
    4BIM     N621482   6.830   8.152   8.253  0.1037  0.2344  0.1531
    4BIM    C1921483   6.784   8.463   8.117  0.0994  0.1959  0.0669
    4BIM    C2021484   6.904   8.512   8.153  0.1054  0.2024  0.0396
    4BIM    C2121485   6.942   8.653   8.118  0.1063  0.1910 -0.0060
    4BIM    C2221486   7.078   8.674   8.172  0.1130  0.2019 -0.0272
    4BIM    C2321487   7.155   8.790   8.165  0.1161  0.1974 -0.0696
    4BIM    C2421488   7.281   8.786   8.224  0.1225  0.2099 -0.0824
    4BIM    C2521489   7.327   8.670   8.287  0.1255  0.2274 -0.0535
    4BIM    C2621490   7.250   8.554   8.295  0.1223  0.2322 -0.0112
    4BIM    C2721491   7.122   8.556   8.236  0.1160  0.2193  0.0024
    4BIM    C2821492   7.017   8.452   8.227  0.1113  0.2203  0.0446
    4BIM    C2921493   7.024   8.324   8.277  0.1124  0.2348  0.0811
    4BIM    C3021494   7.138   8.274   8.348  0.1184  0.2515  0.0830
    4BIM    C3121495   6.917   8.230   8.263  0.1076  0.2346  0.1204
    5BIM     F121496   6.040  10.019   7.280  0.0180 -0.1273 -0.0242
    5BIM     F221497   5.791  10.094   7.201 -0.0083  0.0608  0.2366
    5BIM     O121498   5.954   9.501   7.412 -0.1489 -0.1707 -0.2987
    5BIM     N521499   5.371   9.833   7.183 -0.1649  0.3011  0.4164
    5BIM     N621500   5.354   9.413   7.303 -0.2900  0.2291  0.1493
    5BIM    C1921501   5.685   9.389   7.385 -0.2334 -0.0061 -0.1468
    5BIM    C2021502   5.717   9.516   7.354 -0.1904 -0.0029 -0.0880
    5BIM    C2121503   5.857   9.567   7.371 -0.1485 -0.0899 -0.1729
    5BIM    C2221504   5.856   9.708   7.329 -0.1076 -0.0615 -0.0774
    5BIM    C2321505   5.964   9.797   7.328 -0.0614 -0.1183 -0.1085
    5BIM    C2421506   5.939   9.926   7.284 -0.0287 -0.0752 -0.0008
    5BIM    C2521507   5.810   9.965   7.244 -0.0420  0.0216  0.1336
    5BIM    C2621508   5.702   9.877   7.245 -0.0883  0.0789  0.1655
    5BIM    C2721509   5.726   9.745   7.289 -0.1220  0.0365  0.0576
    5BIM    C2821510   5.635   9.629   7.303 -0.1733  0.0768  0.0564
    5BIM    C2921511   5.501   9.626   7.273 -0.1998  0.1695  0.1681
    5BIM    C3021512   5.430   9.740   7.224 -0.1805  0.2413  0.3042
    5BIM    C3121513   5.421   9.509   7.290 -0.2494  0.2019  0.1570
    1BTD     S221514   9.209   0.690   2.423 -0.0927  0.2536 -0.0381
    1BTD     N121515   9.282   0.545   2.499 -0.0479  0.3432  0.0896
    1BTD     N221516   9.060   0.605   2.368 -0.0014  0.1270 -0.0890
    1BTD     N321517   8.890   0.168   2.396  0.2654  0.0304  0.0380
    1BTD     N421518   9.164   0.094   2.557  0.2086  0.2969  0.2581
    1BTD     C521519   9.217   0.310   2.527  0.0865  0.3158  0.1749
    1BTD     C621520   9.197   0.445   2.481  0.0286  0.2774  0.0879
    1BTD     C721521   9.072   0.479   2.408  0.0548  0.1564 -0.0121
    1BTD     C821522   8.975   0.376   2.384  0.1371  0.0798 -0.0200
    1BTD    C1521523   8.999   0.245   2.431  0.1917  0.1211  0.0673
    1BTD    C1621524   9.119   0.213   2.502  0.1667  0.2377  0.1635
    1BTD    C4321525   9.075   0.003   2.639 -0.6380 -0.5811  0.2415
    1BTD    C4421526   9.104  -0.143   2.685  0.1554  0.3494 -0.1075
    1BTD    C4521527   9.028  -0.183   2.813 -0.0545  0.4900  0.2798
    1BTD    C4621528   9.059  -0.092   2.932  0.4453  0.3884 -0.2549
    1BTD    C4721529   9.103  -0.236   2.562  0.1558 -0.0068  0.1894
    1BTD    C4821530   9.124  -0.388   2.574  0.2141  0.0803 -0.0651
    1BTD    C4921531   9.241  -0.425   2.654  0.3517  0.6297 -0.0485
    1BTD    C5021532   9.250  -0.575   2.658 -0.4865  0.5654  1.0365
    1BTD    C7521533   8.900   0.029   2.355 -1.2382  0.2086  0.8217
    1BTD    C7621534   8.790  -0.077   2.355 -0.3217  0.0309 -1.0147
    1BTD    C7721535   8.819  -0.209   2.284  0.3351  0.1556  0.7775
    1BTD    C7821536   8.843  -0.200   2.133  0.4970 -0.1005 -0.5397
    1BTD    C7921537   8.727  -0.092   2.498 -0.6934 -0.2729  0.0025
    1BTD    C8021538   8.627  -0.202   2.515  0.1479 -0.4426  0.9049
    1BTD    C8121539   8.529  -0.196   2.628  0.2197 -0.8074  0.2139
    1BTD    C8221540   8.595  -0.214   2.765 -0.4410  0.2953  0.0291
    2TTP     S121541   9.489   0.285   2.665 -0.0311 -0.1820 -0.2036
    2TTP     S521542   9.409  -0.132   2.733  0.0794 -0.2091 -0.2399
    2TTP     C121543   9.569  -0.091   2.808  0.0835 -0.1805 -0.2642
    2TTP     C221544   9.603   0.040   2.792  0.0498 -0.1705 -0.2543
    2TTP     C321545   9.504   0.113   2.719  0.0193 -0.1850 -0.2274
    2TTP     C421546   9.329   0.244   2.590 -0.0355 -0.2105 -0.1793
    2TTP    C1721547   9.295   0.113   2.606 -0.0016 -0.2206 -0.1892
    2TTP    C1821548   9.394   0.040   2.679  0.0288 -0.2061 -0.2162
    2TTP    C3221549   9.731   0.104   2.847  0.3897  0.8321 -0.0592
    2TTP    C3321550   9.823   0.135   2.732 -0.2653 -0.0342  0.1605
    2TTP    C3421551   9.938   0.235   2.750 -0.3106  0.0907 -0.2887
    2TTP    C3521552  10.026   0.201   2.865 -0.2796  0.4469 -0.1592
    2TTP    C3621553  10.132   0.307   2.890  0.1415 -0.2625  0.3771
    2TTP    C3721554  10.195   0.288   3.026 -0.6450 -0.2073  0.3124
    2TTP    C3821555  10.305   0.384   3.063 -1.4242 -0.6345  0.8214
    2TTP    C3921556  10.408   0.414   2.950 -0.1626 -0.0961 -0.1809
    2TTP    C4021557  10.532   0.495   2.992  0.4414  0.4256  0.5919
    2TTP    C4121558  10.614   0.509   2.868 -0.2065  0.2953 -0.1809
    2TTP    C4221559  10.750   0.568   2.906 -0.0915  0.0424 -0.1560
    3TTP     S121560   8.737   0.505   2.265 -0.1144  0.2630  0.0160
    3TTP     S521561   8.524   0.133   2.305  0.3581 -0.0290 -0.1580
    3TTP     C121562   8.409   0.259   2.240  0.3109 -0.2566 -0.5201
    3TTP     C221563   8.468   0.381   2.224  0.1624 -0.1798 -0.4877
    3TTP     C321564   8.606   0.380   2.262  0.0801  0.0615 -0.1758
    3TTP     C421565   8.851   0.379   2.330 -0.0675  0.4906  0.3781
    3TTP    C1721566   8.792   0.257   2.346  0.0815  0.4139  0.3457
    3TTP    C1821567   8.654   0.258   2.308  0.1633  0.1725  0.0337
    3TTP    C3221568   8.401   0.512   2.193 -0.0550 -0.3041  0.6042
    3TTP    C3321569   8.413   0.626   2.294  0.4127 -0.6061 -0.0092
    3TTP    C3421570   8.359   0.591   2.436  0.0861  0.2369 -0.7194
    3TTP    C3521571   8.216   0.539   2.460 -0.0758 -0.8259 -0.6118
    3TTP    C3621572   8.120   0.654   2.462  0.2539  0.0191  0.0961
    3TTP    C3721573   7.975   0.617   2.437 -0.6164  0.2349 -0.1958
    3TTP    C3821574   7.868   0.713   2.440  0.4999 -0.3913  0.3453
    3TTP    C3921575   7.861   0.819   2.334  1.1226 -0.3045 -0.2883
    3TTP    C4021576   7.868   0.797   2.190 -0.1727 -0.0157 -0.1738
    3TTP    C4121577   7.749   0.719   2.142  0.4110  0.6843  0.0856
    3TTP    C4221578   7.740   0.667   1.998 -0.5444  0.0774 -0.9674
    4BIM     F121579   9.419  -0.758   3.279 -0.3109  0.1235 -0.2878
    4BIM     F221580   9.686  -0.771   3.329 -0.3708  0.1314  0.0410
    4BIM     O121581   9.396  -0.321   2.959  0.0825  0.0665 -0.3939
    4BIM     N521582  10.054  -0.480   3.173 -0.1769  0.1009  0.4383
    4BIM     N621583   9.983  -0.136   2.913  0.1425  0.0548  0.2891
    4BIM    C1921584   9.644  -0.179   2.894  0.1648  0.0532 -0.1174
    4BIM    C2021585   9.639  -0.289   2.972  0.0682  0.0672 -0.1035
    4BIM    C2121586   9.508  -0.356   3.001  0.0315  0.0732 -0.2514
    4BIM    C2221587   9.538  -0.471   3.089 -0.0762  0.0887 -0.1934
    4BIM    C2321588   9.449  -0.563   3.143 -0.1426  0.0987 -0.2859
    4BIM    C2421589   9.501  -0.663   3.223 -0.2409  0.1130 -0.2038
    4BIM    C2521590   9.639  -0.670   3.249 -0.2719  0.1169 -0.0343
    4BIM    C2621591   9.729  -0.578   3.196 -0.2062  0.1068  0.0588
    4BIM    C2721592   9.678  -0.476   3.114 -0.1060  0.0925 -0.0222
    4BIM    C2821593   9.745  -0.364   3.043 -0.0184  0.0796  0.0397
    4BIM    C2921594   9.880  -0.337   3.043 -0.0179  0.0787  0.1994
    4BIM    C3021595   9.975  -0.416   3.115 -0.1053  0.0908  0.3303
    4BIM    C3121596   9.936  -0.227   2.972  0.0704  0.0656  0.2478
    5BIM     F121597   7.885  -0.367   2.302  0.0093 -0.0582 -0.3456
    5BIM     F221598   7.683  -0.198   2.234 -0.0219  0.1364  0.2224
    5BIM     O121599   8.310  -0.032   2.283  0.1237 -0.2091 -0.4539
    5BIM     N521600   7.695   0.284   2.123  0.0148  0.3083  0.9617
    5BIM     N621601   8.068   0.512   2.122  0.1109  0.1510  0.7626
    5BIM    C1921602   8.268   0.249   2.211  0.1349 -0.0770  0.0502
    5BIM    C2021603   8.169   0.158   2.219  0.1070 -0.0466  0.0553
    5BIM    C2121604   8.198   0.015   2.256  0.1032 -0.1190 -0.2128
    5BIM    C2221605   8.069  -0.056   2.255  0.0706 -0.0618 -0.1321
    5BIM    C2321606   8.046  -0.190   2.283  0.0563 -0.0968 -0.3086
    5BIM    C2421607   7.915  -0.235   2.276  0.0251 -0.0286 -0.1835
    5BIM    C2521608   7.811  -0.148   2.241  0.0091  0.0717  0.1092
    5BIM    C2621609   7.833  -0.014   2.212  0.0234  0.1070  0.2866
    5BIM    C2721610   7.965   0.034   2.219  0.0550  0.0391  0.1638
    5BIM    C2821611   8.022   0.168   2.196  0.0765  0.0524  0.2905
    5BIM    C2921612   7.953   0.281   2.160  0.0699  0.1397  0.5722
    5BIM    C3021613   7.811   0.283   2.140  0.0398  0.2321  0.7854
    5BIM    C3121614   8.017   0.408   2.139  0.0925  0.1455  0.6753
    1BTD     S221615   8.831   0.520   4.099  0.3269  0.0207  0.1592
    1BTD     N121616   8.962   0.431   4.185 -0.0024  0.1108  0.7604
    1BTD     N221617   8.710   0.388   4.117  0.4103 -0.1760 -0.6424
    1BTD     N321618   8.699  -0.040   4.309 -0.0141 -0.4141 -1.1902
    1BTD     N421619   9.009   0.013   4.394 -0.5229 -0.0608  0.5385
    1BTD     C521620   8.983   0.212   4.293 -0.2680  0.0169  0.6237
    1BTD     C621621   8.911   0.314   4.221 -0.0317 -0.0044  0.3538
    1BTD     C721622   8.770   0.290   4.183  0.1996 -0.1650 -0.4314
    1BTD     C821623   8.708   0.165   4.218  0.1829 -0.2961 -0.9075
    1BTD    C1521624   8.782   0.068   4.289 -0.0526 -0.2696 -0.6191
    1BTD    C1621625   8.918   0.092   4.326 -0.2754 -0.1149  0.1374
    1BTD    C4321626   9.023  -0.134   4.421 -0.1429  0.4493 -0.0925
    1BTD    C4421627   9.102  -0.218   4.319 -0.3914 -0.4903  0.5661
    1BTD    C4521628   9.050  -0.215   4.169 -0.1194 -0.0161  0.1362
    1BTD    C4621629   8.930  -0.301   4.133  0.3455  0.9415  0.8446
    1BTD    C4721630   9.135  -0.356   4.382  0.9670  0.1365 -1.0726
    1BTD    C4821631   9.241  -0.437   4.311 -0.5068 -0.6588  0.1249
    1BTD    C4921632   9.259  -0.571   4.377  0.2741 -0.3870 -0.2773
    1BTD    C5021633   9.384  -0.650   4.337 -0.3422  0.2665  0.2828
    1BTD    C7521634   8.709  -0.154   4.410  0.0169 -0.5510 -0.3920
    1BTD    C7621635   8.644  -0.148   4.549 -0.7493 -0.0911  0.4965
    1BTD    C7721636   8.689  -0.032   4.639 -0.1160  0.1866  0.6653
    1BTD    C7821637   8.671   0.108   4.594  0.6717 -1.0445 -0.0983
    1BTD    C7921638   8.653  -0.291   4.604 -0.1982  0.0259  0.2143
    1BTD    C8021639   8.788  -0.346   4.642  0.2241 -0.1223  0.1115
    1BTD    C8121640   8.783  -0.477   4.723 -0.9543  0.6434  0.3119
    1BTD    C8221641   8.926  -0.517   4.766  0.0267 -0.3767 -0.4108
    2TTP     S121642   9.276   0.297   4.322 -0.1341 -0.0139 -0.3218
    2TTP     S521643   9.352  -0.084   4.506  0.1230 -0.0291 -0.4584
    2TTP     C121644   9.510   0.003   4.485  0.0539  0.1258 -0.3406
    2TTP     C221645   9.496   0.126   4.427 -0.0293  0.1396 -0.2915
    2TTP     C321646   9.360   0.155   4.397 -0.0417  0.0284 -0.3451
    2TTP     C421647   9.117   0.210   4.343 -0.0653 -0.1687 -0.4398
    2TTP    C1721648   9.131   0.087   4.401  0.0182 -0.1825 -0.4888
    2TTP    C1821649   9.268   0.057   4.431  0.0308 -0.0713 -0.4352
    2TTP    C3221650   9.600   0.223   4.391  0.1500  0.1607  0.4875
    2TTP    C3321651   9.605   0.357   4.463  0.6116  0.1455 -0.4371
    2TTP    C3421652   9.730   0.439   4.434 -0.1823 -1.0749 -0.1914
    2TTP    C3521653   9.755   0.573   4.516  0.6226  0.1885  0.3848
    2TTP    C3621654   9.647   0.680   4.475  0.5090  0.4284  0.0987
    2TTP    C3721655   9.665   0.815   4.535 -0.0273  0.1133 -0.2986
    2TTP    C3821656   9.583   0.930   4.480  1.1438  0.7680 -0.4047
    2TTP    C3921657   9.619   0.978   4.341 -0.4339 -0.2814 -0.1677
    2TTP    C4021658   9.727   1.089   4.321  0.2673 -0.4151 -0.0815
    2TTP    C4121659   9.679   1.220   4.376  0.1266  0.0764 -0.1104
    2TTP    C4221660   9.787   1.331   4.374  0.1555  0.2108 -0.4177
    3TTP     S121661   8.433   0.140   4.086  0.2591 -0.2553 -0.2758
    3TTP     S521662   8.402  -0.266   4.225  0.0944 -0.0899  0.1712
    3TTP     C121663   8.258  -0.230   4.120  0.0800 -0.1301  0.1772
    3TTP     C221664   8.259  -0.102   4.071  0.1299 -0.1833  0.0397
    3TTP     C321665   8.373  -0.029   4.114  0.1817 -0.1945 -0.0757
    3TTP     C421666   8.576   0.104   4.191  0.2735 -0.2153 -0.2818
    3TTP    C1721667   8.575  -0.024   4.240  0.2232 -0.1622 -0.1443
    3TTP    C1821668   8.461  -0.097   4.197  0.1719 -0.1507 -0.0290
    3TTP    C3221669   8.157  -0.041   3.968  0.1088  0.0018 -0.1828
    3TTP    C3321670   8.091   0.093   4.009 -0.0694  0.7888  0.2701
    3TTP    C3421671   7.954   0.134   3.963 -0.4825 -0.2540  0.6368
    3TTP    C3521672   7.942   0.172   3.815 -0.2956  0.0890  0.4837
    3TTP    C3621673   8.045   0.274   3.763 -0.1664 -0.4116  0.3361
    3TTP    C3721674   8.047   0.318   3.617  0.2611  0.2907  0.4576
    3TTP    C3821675   8.120   0.445   3.583 -0.5435  0.7723 -0.1864
    3TTP    C3921676   8.099   0.573   3.662  0.2479 -0.1657  0.1448
    3TTP    C4021677   8.158   0.701   3.593  0.7115  0.4410  0.3619
    3TTP    C4121678   8.092   0.835   3.628  0.0456  0.2184  0.0008
    3TTP    C4221679   8.150   0.948   3.554 -0.1397 -0.7330 -0.5450
    4BIM     F121680   9.843  -0.742   4.561  0.0642  0.0312  0.6435
    4BIM     F221681  10.067  -0.625   4.663  0.4960  0.2105 -0.4878
    4BIM     O121682   9.537  -0.306   4.464 -0.3362 -0.1376  1.1346
    4BIM     N521683  10.171  -0.148   4.739  0.8313  0.3476 -1.7644
    4BIM     N621684   9.887   0.169   4.642  0.4315  0.1793 -1.1526
    4BIM    C1921685   9.642  -0.040   4.526 -0.0659 -0.0267  0.2282
    4BIM    C2021686   9.710  -0.154   4.546  0.0180  0.0088  0.1488
    4BIM    C2121687   9.650  -0.287   4.512 -0.1316 -0.0527  0.6360
    4BIM    C2221688   9.750  -0.390   4.547  0.0124  0.0079  0.4036
    4BIM    C2321689   9.739  -0.528   4.533 -0.0511 -0.0179  0.6938
    4BIM    C2421690   9.847  -0.604   4.572  0.1152  0.0515  0.3832
    4BIM    C2521691   9.963  -0.544   4.625  0.3375  0.1442 -0.1997
    4BIM    C2621692   9.974  -0.407   4.639  0.4020  0.1702 -0.4921
    4BIM    C2721693   9.866  -0.327   4.599  0.2360  0.1004 -0.1847
    4BIM    C2821694   9.846  -0.180   4.601  0.2483  0.1051 -0.3643
    4BIM    C2921695   9.936  -0.086   4.645  0.4371  0.1831 -0.9034
    4BIM    C3021696  10.065  -0.120   4.697  0.6532  0.2732 -1.3751
    4BIM    C3121697   9.908   0.054   4.643  0.4329  0.1805 -1.0374
    5BIM     F121698   8.099  -1.016   4.267  0.1886  0.1736  0.3092
    5BIM     F221699   7.839  -0.969   4.201  0.2817 -0.1373 -0.2904
    5BIM     O121700   8.318  -0.528   4.182 -0.1299  0.3464  0.4762
    5BIM     N521701   7.622  -0.552   4.045  0.1880 -0.4616 -1.0338
    5BIM     N621702   7.845  -0.181   3.992 -0.0799 -0.2639 -0.7824
    5BIM    C1921703   8.147  -0.309   4.088 -0.1545  0.1108 -0.0377
    5BIM    C2021704   8.102  -0.434   4.112 -0.0780  0.0794 -0.0563
    5BIM    C2121705   8.196  -0.541   4.160 -0.0706  0.2069  0.2182
    5BIM    C2221706   8.115  -0.664   4.176  0.0210  0.1330  0.1192
    5BIM    C2321707   8.158  -0.789   4.218  0.0591  0.2046  0.2939
    5BIM    C2421708   8.063  -0.890   4.226  0.1469  0.1105  0.1501
    5BIM    C2521709   7.930  -0.865   4.192  0.1946 -0.0495 -0.1590
    5BIM    C2621710   7.886  -0.740   4.149  0.1570 -0.1218 -0.3346
    5BIM    C2721711   7.981  -0.637   4.141  0.0682 -0.0284 -0.1931
    5BIM    C2821712   7.967  -0.495   4.101  0.0093 -0.0677 -0.3130
    5BIM    C2921713   7.852  -0.432   4.060  0.0312 -0.2131 -0.6062
    5BIM    C3021714   7.726  -0.498   4.052  0.1173 -0.3493 -0.8403
    5BIM    C3121715   7.849  -0.294   4.023 -0.0300 -0.2401 -0.7014
    1BTD     S221716   5.285   2.449   4.959 -0.0427  0.1353  0.0388
    1BTD     N121717   5.260   2.275   4.921 -0.0736  0.1393  0.0415
    1BTD     N221718   5.428   2.421   5.065 -0.0709  0.1082  0.0694
    1BTD     N321719   5.674   2.049   5.212 -0.1841  0.0601  0.1369
    1BTD     N421720   5.467   1.869   5.036 -0.1874  0.0984  0.1024
    1BTD     C521721   5.371   2.065   4.983 -0.1329  0.1175  0.0737
    1BTD     C621722   5.355   2.208   4.986 -0.1018  0.1211  0.0640
    1BTD     C721723   5.449   2.290   5.066 -0.1004  0.1037  0.0795
    1BTD     C821724   5.554   2.224   5.140 -0.1301  0.0836  0.1042
    1BTD    C1521725   5.566   2.084   5.134 -0.1601  0.0807  0.1128
    1BTD    C1621726   5.475   2.006   5.056 -0.1614  0.0975  0.0980
    1BTD    C4321727   5.506   1.764   5.134  0.7253  0.1013 -0.0935
    1BTD    C4421728   5.541   1.626   5.097 -0.0052 -0.6914 -0.0016
    1BTD    C4521729   5.657   1.630   4.997 -0.3564 -0.2652 -0.1799
    1BTD    C4621730   5.680   1.495   4.924  0.1063 -0.8298 -0.3598
    1BTD    C4721731   5.567   1.529   5.211  0.0972  0.2555 -0.4975
    1BTD    C4821732   5.449   1.499   5.300  0.1782  0.2432 -0.3557
    1BTD    C4921733   5.473   1.447   5.439  0.0074  0.1771  0.1381
    1BTD    C5021734   5.348   1.421   5.518  0.2871  0.1022 -0.2429
    1BTD    C7521735   5.773   1.947   5.175 -0.4922  0.2716 -0.3266
    1BTD    C7621736   5.856   1.870   5.283  0.2225 -0.0540  0.7079
    1BTD    C7721737   5.779   1.788   5.393 -0.0988 -0.1830  0.7310
    1BTD    C7821738   5.709   1.864   5.503 -0.4420  0.4945  0.3650
    1BTD    C7921739   5.974   1.794   5.228  0.4773 -0.1479  0.4639
    1BTD    C8021740   6.092   1.873   5.148  0.1178  0.0347 -0.0060
    1BTD    C8121741   6.167   2.000   5.205 -0.4995  0.1827  0.1139
    1BTD    C8221742   6.258   1.965   5.328  0.4353 -0.0506  0.3206
    2TTP     S121743   5.170   1.948   4.790 -0.1858 -0.0259  0.0340
    2TTP     S521744   5.331   1.557   4.868  0.0505 -0.0208 -0.4224
    2TTP     C121745   5.204   1.543   4.738 -0.2597 -0.0121 -0.1230
    2TTP     C221746   5.147   1.663   4.707 -0.3508 -0.0132  0.0354
    2TTP     C321747   5.201   1.770   4.784 -0.1791 -0.0209 -0.0737
    2TTP     C421748   5.297   1.962   4.920  0.1243 -0.0345 -0.2655
    2TTP    C1721749   5.354   1.842   4.951  0.2154 -0.0334 -0.4240
    2TTP    C1821750   5.300   1.735   4.874  0.0437 -0.0258 -0.3147
    2TTP    C3221751   5.044   1.690   4.590  0.4423  0.7739  0.3887
    2TTP    C3321752   4.899   1.710   4.650 -0.3055 -0.4576  0.3256
    2TTP    C3421753   4.788   1.735   4.551  0.3036 -0.3204 -0.0484
    2TTP    C3521754   4.775   1.885   4.510 -0.5178  0.7393  0.2443
    2TTP    C3621755   4.685   1.892   4.391  0.0750  0.4818 -0.2962
    2TTP    C3721756   4.636   2.034   4.382 -0.5636  0.5555  0.4907
    2TTP    C3821757   4.593   2.069   4.236  0.3914  0.1884 -0.2139
    2TTP    C3921758   4.685   2.082   4.123  0.2531  0.3633  0.1280
    2TTP    C4021759   4.599   2.113   4.006 -0.4166 -0.6513 -0.3965
    2TTP    C4121760   4.664   2.197   3.892  0.1739 -0.3964 -0.1635
    2TTP    C4221761   4.588   2.203   3.759  0.3556  0.1259  0.3336
    3TTP     S121762   5.699   2.433   5.294  0.0830  0.2284 -0.1696
    3TTP     S521763   5.947   2.129   5.469 -0.2608 -0.0826 -0.2193
    3TTP     C121764   5.994   2.290   5.539 -0.1537 -0.1614 -0.1098
    3TTP     C221765   5.920   2.393   5.489 -0.0411 -0.0701 -0.0879
    3TTP     C321766   5.824   2.349   5.394 -0.0355  0.0655 -0.1570
    3TTP     C421767   5.651   2.272   5.224 -0.0243  0.3074 -0.2791
    3TTP    C1721768   5.725   2.168   5.274 -0.1367  0.2159 -0.3010
    3TTP    C1821769   5.822   2.212   5.369 -0.1423  0.0803 -0.2320
    3TTP    C3221770   5.927   2.542   5.526 -0.5866 -0.0236  0.4937
    3TTP    C3321771   5.947   2.649   5.418 -0.0008  0.1645  0.3757
    3TTP    C3421772   5.960   2.796   5.466  0.3177  0.4418  0.4504
    3TTP    C3521773   6.002   2.899   5.365  0.2953  0.1099 -0.3260
    3TTP    C3621774   6.027   3.044   5.412  0.5148  0.5724 -0.3029
    3TTP    C3721775   6.045   3.135   5.289  0.4149  0.2798 -0.2118
    3TTP    C3821776   6.054   3.281   5.326 -0.4869  0.1839  0.2613
    3TTP    C3921777   6.056   3.376   5.208  0.1487 -0.4145 -0.1361
    3TTP    C4021778   6.086   3.519   5.255  0.6810  0.4776  0.2685
    3TTP    C4121779   6.146   3.606   5.143  0.2537 -0.4348 -0.3775
    3TTP    C4221780   6.138   3.751   5.181  0.1067  0.0639 -0.8416
    4BIM     F121781   5.587   0.833   4.600 -0.1541  0.0548 -0.0242
    4BIM     F221782   5.376   0.754   4.448 -0.0995 -0.0153 -0.0639
    4BIM     O121783   5.433   1.333   4.740 -0.2831  0.0553 -0.1673
    4BIM     N521784   4.961   0.997   4.330 -0.1131 -0.1156 -0.2234
    4BIM     N621785   4.883   1.404   4.470 -0.2249 -0.1011 -0.3273
    4BIM    C1921786   5.176   1.435   4.645 -0.2769 -0.0114 -0.2564
    4BIM    C2021787   5.223   1.312   4.616 -0.2465 -0.0089 -0.2186
    4BIM    C2121788   5.356   1.267   4.668 -0.2520  0.0264 -0.1742
    4BIM    C2221789   5.377   1.130   4.618 -0.2134  0.0198 -0.1407
    4BIM    C2321790   5.486   1.046   4.640 -0.2041  0.0444 -0.0948
    4BIM    C2421791   5.483   0.921   4.582 -0.1655  0.0319 -0.0697
    4BIM    C2521792   5.373   0.880   4.504 -0.1374 -0.0042 -0.0904
    4BIM    C2621793   5.264   0.963   4.481 -0.1466 -0.0289 -0.1361
    4BIM    C2721794   5.266   1.091   4.539 -0.1856 -0.0167 -0.1620
    4BIM    C2821795   5.167   1.201   4.535 -0.2047 -0.0358 -0.2108
    4BIM    C2921796   5.046   1.201   4.468 -0.1872 -0.0716 -0.2426
    4BIM    C3021797   5.000   1.089   4.393 -0.1465 -0.0956 -0.2319
    4BIM    C3121798   4.957   1.313   4.470 -0.2080 -0.0876 -0.2890
    5BIM     F121799   6.421   1.832   6.069 -0.3380  0.1344  0.0913
    5BIM     F221800   6.576   2.049   6.121 -0.0938 -0.0154 -0.0091
    5BIM     O121801   6.070   2.040   5.712 -0.2999  0.4444  0.2340
    5BIM     N521802   6.550   2.510   5.942  0.2840 -0.0097 -0.0515
    5BIM     N621803   6.245   2.629   5.653  0.2646  0.2627  0.0805
    5BIM    C1921804   6.095   2.322   5.636 -0.0531  0.4114  0.1891
    5BIM    C2021805   6.177   2.261   5.723 -0.0724  0.3392  0.1570
    5BIM    C2121806   6.158   2.116   5.758 -0.2018  0.3620  0.1832
    5BIM    C2221807   6.263   2.082   5.855 -0.1891  0.2677  0.1367
    5BIM    C2321808   6.286   1.959   5.916 -0.2838  0.2516  0.1407
    5BIM    C2421809   6.392   1.951   6.005 -0.2491  0.1556  0.0907
    5BIM    C2521810   6.472   2.063   6.032 -0.1232  0.0786  0.0391
    5BIM    C2621811   6.450   2.186   5.971 -0.0283  0.0940  0.0352
    5BIM    C2721812   6.343   2.196   5.881 -0.0618  0.1908  0.0851
    5BIM    C2821813   6.293   2.310   5.801  0.0151  0.2317  0.0955
    5BIM    C2921814   6.345   2.438   5.799  0.1428  0.1797  0.0556
    5BIM    C3021815   6.458   2.477   5.878  0.2199  0.0757 -0.0031
    5BIM    C3121816   6.290   2.542   5.719  0.2091  0.2256  0.0695
    1BTD     S221817   1.922   2.579   0.563  0.2741 -0.0543 -0.0642
    1BTD     N121818   1.970   2.466   0.694  0.4033 -0.2474 -0.2772
    1BTD     N221819   2.041   2.706   0.609  0.0170  0.0691  0.2760
    1BTD     N321820   2.371   2.759   0.938 -0.2738 -0.0282  0.5843
    1BTD     N421821   2.284   2.463   1.044  0.2022 -0.4183 -0.0973
    1BTD     C521822   2.135   2.468   0.876  0.2925 -0.3319 -0.1751
    1BTD     C621823   2.067   2.525   0.762  0.2558 -0.2118 -0.0934
    1BTD     C721824   2.107   2.659   0.714  0.0396 -0.0346  0.2163
    1BTD     C821825   2.213   2.730   0.782 -0.1290  0.0136  0.4288
    1BTD    C1521826   2.276   2.670   0.893 -0.0856 -0.1083  0.3387
    1BTD    C1621827   2.237   2.541   0.939  0.1228 -0.2790  0.0404
    1BTD    C4321828   2.400   2.478   1.133 -0.0198  0.5774 -0.1985
    1BTD    C4421829   2.525   2.406   1.093  0.1161 -0.3440  0.4322
    1BTD    C4521830   2.574   2.444   0.947 -0.7843  0.3767 -0.5843
    1BTD    C4621831   2.658   2.341   0.871  0.4409  1.1515 -0.0375
    1BTD    C4721832   2.637   2.392   1.200 -0.1446 -0.1080  0.2256
    1BTD    C4821833   2.605   2.293   1.314  0.1383 -0.6815  0.0458
    1BTD    C4921834   2.708   2.284   1.420  0.3351  0.0055  0.3441
    1BTD    C5021835   2.690   2.160   1.501  0.3084 -0.2118 -0.0874
    1BTD    C7521836   2.405   2.790   1.074  0.2065 -0.8232 -0.7113
    1BTD    C7621837   2.537   2.863   1.120 -0.3635  0.8079  0.1194
    1BTD    C7721838   2.546   2.911   1.263  0.3156 -1.1260  0.2076
    1BTD    C7821839   2.446   3.026   1.297  0.7342 -0.1640 -0.2281
    1BTD    C7921840   2.648   2.758   1.114 -0.7934 -0.6258  0.1624
    1BTD    C8021841   2.799   2.802   1.115  0.0365 -0.5154 -0.0770
    1BTD    C8121842   2.876   2.675   1.125 -0.1456  0.3973  0.2214
    1BTD    C8221843   3.022   2.708   1.098  0.3095 -0.3625 -0.3678
    2TTP     S121844   2.012   2.197   0.939 -0.0213  0.1687 -0.1036
    2TTP     S521845   2.273   2.174   1.280 -0.0289  0.3193 -0.0876
    2TTP     C121846   2.160   2.032   1.284  0.3132  0.0410 -0.3070
    2TTP     C221847   2.073   2.030   1.178  0.3357 -0.0219 -0.3248
    2TTP     C321848   2.092   2.142   1.091  0.0836  0.1475 -0.1659
    2TTP     C421849   2.125   2.340   0.936 -0.3635  0.4470  0.1158
    2TTP    C1721850   2.212   2.342   1.041 -0.3859  0.5099  0.1336
    2TTP    C1821851   2.193   2.230   1.128 -0.1339  0.3406 -0.0253
    2TTP    C3221852   1.964   1.924   1.143  0.0873 -0.2603 -0.1559
    2TTP    C3321853   2.012   1.785   1.104 -0.3745 -0.2874 -0.7359
    2TTP    C3421854   1.903   1.674   1.072  0.2364 -0.5799 -0.6340
    2TTP    C3521855   1.844   1.608   1.198 -0.6628  0.0290  0.0533
    2TTP    C3621856   1.771   1.483   1.171 -0.0170 -0.2503 -0.0486
    2TTP    C3721857   1.741   1.407   1.300  0.1703 -0.2386  0.4722
    2TTP    C3821858   1.869   1.338   1.351 -0.1736 -0.5837 -0.1689
    2TTP    C3921859   1.844   1.257   1.479  0.5663 -0.2010 -0.3164
    2TTP    C4021860   1.953   1.269   1.582 -0.3913  0.2195  0.1459
    2TTP    C4121861   1.981   1.405   1.645 -1.0288  0.0787 -0.3331
    2TTP    C4221862   2.096   1.405   1.745  0.2571  0.3225 -0.5543
    3TTP     S121863   2.289   2.953   0.608 -0.0089 -0.2056  0.0174
    3TTP     S521864   2.639   3.008   0.851 -0.1060  0.4114  0.0210
    3TTP     C121865   2.656   3.110   0.701 -0.0749  0.0807 -0.2025
    3TTP     C221866   2.549   3.099   0.617 -0.0432 -0.1292 -0.2168
    3TTP     C321867   2.449   3.010   0.668 -0.0421 -0.0366 -0.0517
    3TTP     C421868   2.272   2.851   0.758 -0.0400  0.1251  0.2409
    3TTP    C1721869   2.379   2.862   0.842 -0.0717  0.3350  0.2552
    3TTP    C1821870   2.479   2.952   0.791 -0.0728  0.2424  0.0901
    3TTP    C3221871   2.525   3.179   0.488  0.3218  0.0170 -0.5681
    3TTP    C3321872   2.400   3.270   0.461 -0.2711 -0.7324 -0.5379
    3TTP    C3421873   2.389   3.374   0.578 -0.1722 -0.2901  0.0556
    3TTP    C3521874   2.279   3.475   0.559 -0.0258  0.3082 -0.7016
    3TTP    C3621875   2.300   3.583   0.454  0.3198  0.2945  0.5403
    3TTP    C3721876   2.183   3.679   0.434  0.0575 -0.1173 -0.2968
    3TTP    C3821877   2.198   3.775   0.309  0.1388 -0.2271 -0.7290
    3TTP    C3921878   2.072   3.861   0.316 -0.3198 -0.2208 -0.2074
    3TTP    C4021879   2.056   3.982   0.213 -0.4207 -0.7728 -0.2965
    3TTP    C4121880   1.921   4.053   0.222 -0.3809 -0.4521 -0.2570
    3TTP    C4221881   1.798   3.974   0.180 -0.0102 -0.0816 -0.4337
    4BIM     F121882   2.564   1.903   1.985  0.1140  0.0756  0.0373
    4BIM     F221883   2.337   1.793   2.088  0.1428 -0.0026  0.0170
    4BIM     O121884   2.404   2.013   1.480  0.1379 -0.0279  0.0072
    4BIM     N521885   1.898   1.713   1.875  0.2011 -0.1889 -0.0334
    4BIM     N621886   1.819   1.820   1.460  0.2139 -0.2541 -0.0529
    4BIM    C1921887   2.131   1.946   1.398  0.1737 -0.1395 -0.0228
    4BIM    C2021888   2.180   1.923   1.521  0.1667 -0.1104 -0.0145
    4BIM    C2121889   2.322   1.960   1.556  0.1481 -0.0532  0.0009
    4BIM    C2221890   2.342   1.921   1.696  0.1445 -0.0336  0.0068
    4BIM    C2321891   2.458   1.936   1.773  0.1291  0.0171  0.0207
    4BIM    C2421892   2.453   1.892   1.904  0.1289  0.0264  0.0238
    4BIM    C2521893   2.336   1.835   1.957  0.1437 -0.0140  0.0133
    4BIM    C2621894   2.221   1.820   1.881  0.1592 -0.0647 -0.0005
    4BIM    C2721895   2.223   1.864   1.748  0.1597 -0.0748 -0.0038
    4BIM    C2821896   2.119   1.863   1.643  0.1738 -0.1236 -0.0173
    4BIM    C2921897   1.991   1.816   1.655  0.1904 -0.1718 -0.0300
    4BIM    C3021898   1.940   1.759   1.776  0.1962 -0.1810 -0.0319
    4BIM    C3121899   1.897   1.819   1.547  0.2033 -0.2168 -0.0425
    5BIM     F121900   3.452   3.039   0.873  0.0961  0.1316  0.0245
    5BIM     F221901   3.491   3.281   0.754  0.0294  0.0647 -0.1353
    5BIM     O121902   2.920   2.973   0.797  0.0796  0.0217  0.2344
    5BIM     N521903   3.169   3.582   0.530 -0.0783 -0.1100 -0.2155
    5BIM     N621904   2.745   3.482   0.495 -0.0778 -0.1823 -0.0193
    5BIM    C1921905   2.768   3.181   0.657  0.0099 -0.0813  0.1562
    5BIM    C2021906   2.901   3.188   0.681  0.0167 -0.0510  0.1096
    5BIM    C2121907   2.971   3.077   0.753  0.0532  0.0015  0.1545
    5BIM    C2221908   3.113   3.117   0.762  0.0513  0.0238  0.0852
    5BIM    C2321909   3.218   3.046   0.820  0.0786  0.0719  0.0950
    5BIM    C2421910   3.344   3.103   0.816  0.0705  0.0846  0.0196
    5BIM    C2521911   3.364   3.228   0.756  0.0360  0.0501 -0.0627
    5BIM    C2621912   3.260   3.299   0.697  0.0088  0.0020 -0.0729
    5BIM    C2721913   3.132   3.243   0.700  0.0165 -0.0115  0.0027
    5BIM    C2821914   3.002   3.292   0.648 -0.0062 -0.0589  0.0144
    5BIM    C2921915   2.980   3.410   0.581 -0.0416 -0.1019 -0.0506
    5BIM    C3021916   3.084   3.504   0.553 -0.0616 -0.1062 -0.1410
    5BIM    C3121917   2.851   3.449   0.534 -0.0613 -0.1459 -0.0330
    1BTD     S221918   4.538   7.204   0.450  0.2893  0.0127 -0.3449
    1BTD     N121919   4.367   7.165   0.414  0.3320 -0.0315 -0.5029
    1BTD     N221920   4.576   7.043   0.520  0.2044  0.1010 -0.0941
    1BTD     N321921   4.342   6.644   0.599  0.1085  0.2013  0.1315
    1BTD     N421922   4.084   6.794   0.468  0.2656  0.0383 -0.3721
    1BTD     C521923   4.222   6.970   0.444  0.2954  0.0068 -0.4285
    1BTD     C621924   4.347   7.041   0.454  0.2832  0.0192 -0.3676
    1BTD     C721925   4.464   6.972   0.514  0.2120  0.0933 -0.1388
    1BTD     C821926   4.450   6.836   0.560  0.1562  0.1514  0.0176
    1BTD    C1521927   4.326   6.771   0.547  0.1706  0.1366 -0.0494
    1BTD    C1621928   4.213   6.837   0.490  0.2392  0.0651 -0.2699
    1BTD    C4321929   4.010   6.695   0.552 -0.0222 -0.2341 -0.2014
    1BTD    C4421930   3.906   6.602   0.498 -0.2436  0.5480  0.7132
    1BTD    C4521931   3.942   6.509   0.387 -0.1990 -0.3725 -0.0855
    1BTD    C4621932   3.992   6.551   0.256 -0.1173 -0.0216  0.0755
    1BTD    C4721933   3.819   6.533   0.609 -0.2028 -0.3407  0.6178
    1BTD    C4821934   3.704   6.438   0.571 -0.4553 -0.6969  0.2254
    1BTD    C4921935   3.599   6.487   0.473  0.2178 -0.0985  0.6864
    1BTD    C5021936   3.492   6.384   0.450  0.2708 -0.0664 -0.2772
    1BTD    C7521937   4.286   6.522   0.534 -0.0556  0.3847  0.0932
    1BTD    C7621938   4.275   6.377   0.589  0.8590 -0.2644 -0.2963
    1BTD    C7721939   4.170   6.389   0.704  0.0951 -0.1155  0.5813
    1BTD    C7821940   4.186   6.282   0.811  0.3034 -0.7274  0.2054
    1BTD    C7921941   4.255   6.262   0.488  0.5207  0.2855 -0.5795
    1BTD    C8021942   4.353   6.246   0.371  0.5230 -0.3615  0.6004
    1BTD    C8121943   4.375   6.111   0.309 -0.3694  0.1053 -0.0516
    1BTD    C8221944   4.430   6.007   0.411 -0.1607  0.4632 -0.0808
    2TTP     S121945   4.019   7.135   0.285 -0.1603  0.0677 -0.0982
    2TTP     S521946   3.746   6.803   0.306 -0.2853  0.1651 -0.1740
    2TTP     C121947   3.672   6.933   0.202 -0.1659  0.1507 -0.2790
    2TTP     C221948   3.751   7.043   0.190 -0.1203  0.1199 -0.2617
    2TTP     C321949   3.874   7.029   0.262 -0.1779  0.1063 -0.1650
    2TTP     C421950   4.093   7.005   0.388 -0.2795  0.0819  0.0068
    2TTP    C1721951   4.014   6.895   0.401 -0.3252  0.1128 -0.0105
    2TTP    C1821952   3.891   6.909   0.329 -0.2676  0.1265 -0.1072
    2TTP    C3221953   3.730   7.174   0.107  0.0543 -0.5019  0.1855
    2TTP    C3321954   3.806   7.176  -0.025 -0.3469  0.1989 -0.2455
    2TTP    C3421955   3.769   7.304  -0.100  0.1271  0.1049 -0.2041
    2TTP    C3521956   3.806   7.285  -0.248 -0.4413 -0.7380 -1.2617
    2TTP    C3621957   3.783   7.408  -0.334 -0.4912 -0.5409  0.2367
    2TTP    C3721958   3.645   7.466  -0.340  0.5812  0.5999 -0.5060
    2TTP    C3821959   3.643   7.599  -0.414 -0.3056  0.6454 -0.4623
    2TTP    C3921960   3.505   7.667  -0.434 -0.1571  0.1889  0.0810
    2TTP    C4021961   3.402   7.614  -0.535 -0.0761 -0.5835  0.2660
    2TTP    C4121962   3.438   7.631  -0.687 -0.3381 -0.0980 -0.0548
    2TTP    C4221963   3.499   7.519  -0.763  0.6092  0.1554  0.2721
    3TTP     S121964   4.715   6.736   0.665 -0.1365  0.0946  0.3369
    3TTP     S521965   4.530   6.361   0.768 -0.0803 -0.1113 -0.3033
    3TTP     C121966   4.708   6.350   0.804 -0.1769  0.0678  0.2599
    3TTP     C221967   4.776   6.464   0.774 -0.1999  0.1420  0.4908
    3TTP     C321968   4.689   6.566   0.722 -0.1421  0.0600  0.2312
    3TTP     C421969   4.537   6.747   0.630 -0.0398 -0.0845 -0.2263
    3TTP    C1721970   4.469   6.633   0.659 -0.0168 -0.1587 -0.4572
    3TTP    C1821971   4.556   6.531   0.711 -0.0746 -0.0765 -0.1976
    3TTP    C3221972   4.925   6.486   0.800  0.7055  0.3044 -0.7109
    3TTP    C3321973   5.005   6.585   0.726 -0.1038  0.2297  0.6760
    3TTP    C3421974   5.137   6.628   0.785 -0.1143 -0.6441  0.2279
    3TTP    C3521975   5.249   6.530   0.811 -0.4570 -0.3358  0.5533
    3TTP    C3621976   5.385   6.605   0.831 -0.2018  0.1346  0.0066
    3TTP    C3721977   5.519   6.533   0.816 -0.1252  0.1745 -0.5079
    3TTP    C3821978   5.543   6.454   0.689 -0.4354  0.4315 -0.4424
    3TTP    C3921979   5.534   6.531   0.560 -0.4003 -0.5118  0.1981
    3TTP    C4021980   5.528   6.441   0.445 -0.8550 -0.1802 -0.1980
    3TTP    C4121981   5.525   6.516   0.312  0.5563 -0.3767 -0.0817
    3TTP    C4221982   5.556   6.425   0.198 -0.1796  0.1427  0.6646
    4BIM     F121983   3.149   6.321   0.046  0.1437 -0.0311 -0.1909
    4BIM     F221984   2.957   6.506  -0.010  0.0547 -0.0982 -0.1092
    4BIM     O121985   3.571   6.640   0.159  0.0502  0.1191 -0.2654
    4BIM     N521986   2.984   7.001  -0.009 -0.1400 -0.0880 -0.0448
    4BIM     N621987   3.352   7.213   0.090 -0.1952  0.0428 -0.1194
    4BIM    C1921988   3.538   6.931   0.146 -0.0680  0.1082 -0.2138
    4BIM    C2021989   3.440   6.843   0.119 -0.0411  0.0730 -0.1982
    4BIM    C2121990   3.464   6.695   0.128  0.0199  0.0813 -0.2268
    4BIM    C2221991   3.337   6.630   0.094  0.0359  0.0360 -0.1998
    4BIM    C2321992   3.310   6.493   0.088  0.0881  0.0263 -0.2121
    4BIM    C2421993   3.182   6.454   0.053  0.0932 -0.0191 -0.1810
    4BIM    C2521994   3.083   6.550   0.025  0.0473 -0.0537 -0.1389
    4BIM    C2621995   3.109   6.687   0.030 -0.0050 -0.0442 -0.1264
    4BIM    C2721996   3.239   6.728   0.065 -0.0110  0.0017 -0.1575
    4BIM    C2821997   3.298   6.863   0.080 -0.0601  0.0228 -0.1548
    4BIM    C2921998   3.234   6.983   0.060 -0.1130  0.0005 -0.1189
    4BIM    C3021999   3.096   6.992   0.022 -0.1277 -0.0480 -0.0782
    4BIM    C3122000   3.299   7.109   0.077 -0.1579  0.0238 -0.1194
    5BIM     F122001   4.515   5.553   0.787 -0.0124 -0.0340  0.0907
    5BIM     F222002   4.744   5.503   0.925  0.0192 -0.0066  0.0476
    5BIM     O122003   4.549   6.090   0.722 -0.0755 -0.0335  0.0617
    5BIM     N522004   5.098   5.814   1.077  0.0196  0.0330 -0.0349
    5BIM     N622005   5.078   6.243   0.998 -0.0361  0.0279 -0.0489
    5BIM    C1922006   4.780   6.233   0.830 -0.0677 -0.0072  0.0103
    5BIM    C2022007   4.762   6.100   0.842 -0.0532 -0.0085  0.0192
    5BIM    C2122008   4.641   6.033   0.783 -0.0582 -0.0222  0.0459
    5BIM    C2222009   4.653   5.889   0.813 -0.0389 -0.0198  0.0494
    5BIM    C2322010   4.565   5.788   0.778 -0.0360 -0.0296  0.0711
    5BIM    C2422011   4.598   5.659   0.818 -0.0164 -0.0248  0.0699
    5BIM    C2522012   4.716   5.633   0.889 -0.0000 -0.0106  0.0477
    5BIM    C2622013   4.805   5.734   0.923 -0.0029 -0.0011  0.0260
    5BIM    C2722014   4.773   5.866   0.885 -0.0228 -0.0056  0.0269
    5BIM    C2822015   4.845   5.994   0.905 -0.0308  0.0021  0.0074
    5BIM    C2922016   4.965   6.011   0.970 -0.0197  0.0160 -0.0169
    5BIM    C3022017   5.037   5.903   1.029  0.0020  0.0254 -0.0267
    5BIM    C3122018   5.026   6.139   0.985 -0.0287  0.0224 -0.0343
    1BTD     S222019   0.156   9.307   4.975 -0.0087  0.1647 -0.0463
    1BTD     N122020   0.054   9.447   4.926  0.0332  0.1342 -0.2211
    1BTD     N222021   0.305   9.406   4.996 -0.0272  0.1783  0.0215
    1BTD     N322022   0.424   9.858   4.951  0.0108  0.1512 -0.1560
    1BTD     N422023   0.114   9.908   4.864  0.0853  0.0966 -0.4551
    1BTD     C522024   0.089   9.687   4.895  0.0595  0.1152 -0.3396
    1BTD     C622025   0.132   9.554   4.928  0.0314  0.1359 -0.2201
    1BTD     C722026   0.272   9.531   4.967 -0.0024  0.1607 -0.0842
    1BTD     C822027   0.363   9.642   4.972 -0.0064  0.1638 -0.0749
    1BTD    C1522028   0.317   9.771   4.938  0.0218  0.1428 -0.1948
    1BTD    C1622029   0.181   9.793   4.900  0.0544  0.1193 -0.3254
    1BTD    C4322030   0.128  10.051   4.911 -0.5530  0.0010  0.1069
    1BTD    C4422031   0.050  10.097   5.037  0.1269 -0.7606  0.2739
    1BTD    C4522032   0.097  10.023   5.159 -0.5050  0.1352  0.1875
    1BTD    C4622033   0.034  10.055   5.292  0.0437 -0.2737 -0.1646
    1BTD    C4722034   0.057  10.255   5.052 -0.0098  0.5362  0.5034
    1BTD    C4822035   0.029  10.342   4.925 -0.4473 -0.0085  0.0440
    1BTD    C4922036   0.055  10.492   4.943  0.5696 -0.8854 -0.4139
    1BTD    C5022037   0.016  10.572   4.815 -0.6377 -0.6601 -0.2883
    1BTD    C7522038   0.445   9.972   4.857 -0.5816 -0.0352  0.1995
    1BTD    C7622039   0.539  10.093   4.878  0.0707 -0.5604 -0.1391
    1BTD    C7722040   0.572  10.185   4.758  0.3988  0.1937  0.3751
    1BTD    C7822041   0.632  10.123   4.636 -0.1633 -0.4136 -0.1160
    1BTD    C7922042   0.502  10.171   5.007 -0.0944 -0.2220 -0.4849
    1BTD    C8022043   0.571  10.297   5.064  0.3681 -0.6634  0.3442
    1BTD    C8122044   0.726  10.313   5.056  0.1281  0.1764  0.0531
    1BTD    C8222045   0.780  10.420   5.152 -0.5785  0.4484  0.4203
    2TTP     S122046  -0.208   9.689   4.824  0.1844 -0.2654  0.0561
    2TTP     S522047  -0.170  10.101   4.707  0.5271 -0.2475  0.2294
    2TTP     C122048  -0.341  10.048   4.676  0.5472 -0.1636 -0.0247
    2TTP     C222049  -0.363   9.917   4.710  0.4423 -0.1641 -0.0932
    2TTP     C322050  -0.245   9.855   4.762  0.3428 -0.2309  0.0525
    2TTP     C422051  -0.037   9.742   4.855  0.1645 -0.3493  0.3101
    2TTP    C1722052  -0.015   9.873   4.821  0.2694 -0.3487  0.3786
    2TTP    C1822053  -0.133   9.935   4.769  0.3688 -0.2820  0.2331
    2TTP    C3222054  -0.493   9.836   4.708 -0.0536 -0.1400  0.4655
    2TTP    C3322055  -0.581   9.880   4.822 -0.2407  0.4518 -0.1901
    2TTP    C3422056  -0.547   9.858   4.973 -0.1535 -0.9024  0.3595
    2TTP    C3522057  -0.507   9.726   5.033  0.2794 -0.5497  0.1049
    2TTP    C3622058  -0.605   9.617   4.994 -0.5190  0.0202 -0.6024
    2TTP    C3722059  -0.592   9.477   5.065 -0.0123 -0.3469  0.0432
    2TTP    C3822060  -0.460   9.404   5.038 -0.3739  0.0606 -0.6653
    2TTP    C3922061  -0.437   9.331   4.910 -0.5179 -0.2806 -0.2043
    2TTP    C4022062  -0.308   9.264   4.911 -0.4973 -0.0085 -0.1500
    2TTP    C4122063  -0.286   9.199   4.778  0.0815 -0.3422  0.0752
    2TTP    C4222064  -0.142   9.159   4.759 -0.6663 -0.4907 -0.0312
    3TTP     S122065   0.639   9.546   5.047 -0.0483  0.0595  0.2120
    3TTP     S522066   0.777   9.953   5.035 -0.2010  0.0990 -0.2701
    3TTP     C122067   0.918   9.845   5.075 -0.1669  0.2014 -0.1110
    3TTP     C222068   0.884   9.713   5.081 -0.1177  0.1953  0.0473
    3TTP     C322069   0.745   9.693   5.054 -0.1052  0.1094  0.0485
    3TTP     C422070   0.498   9.654   5.007 -0.0825 -0.0430  0.0526
    3TTP    C1722071   0.532   9.786   5.001 -0.1317 -0.0368 -0.1055
    3TTP    C1822072   0.671   9.807   5.028 -0.1441  0.0491 -0.1067
    3TTP    C3222073   0.954   9.590   5.122 -0.4497  0.2024  0.2575
    3TTP    C3322074   0.962   9.536   5.266  0.2639  0.2303  0.2344
    3TTP    C3422075   0.960   9.629   5.385 -0.1161 -0.2110  0.1059
    3TTP    C3522076   0.978   9.572   5.526 -0.5428  0.7651 -0.8679
    3TTP    C3622077   1.119   9.504   5.540 -0.4284  0.2201  0.6851
    3TTP    C3722078   1.181   9.500   5.683 -0.6797 -0.3483  0.3531
    3TTP    C3822079   1.330   9.454   5.669 -0.1531  0.0015 -0.1692
    3TTP    C3922080   1.405   9.465   5.807 -0.2666  0.2359  0.0260
    3TTP    C4022081   1.359   9.377   5.932  0.6252 -0.5907 -0.2095
    3TTP    C4122082   1.408   9.231   5.941  0.0651  0.5448  0.2808
    3TTP    C4222083   1.336   9.159   6.050 -0.6333  0.6351  0.0767
    4BIM     F122084  -0.361  10.810   4.371 -0.5193  0.3648  0.4196
    4BIM     F222085  -0.594  10.748   4.245 -0.0939 -0.0215 -0.1928
    4BIM     O122086  -0.261  10.346   4.633 -0.3183  0.4485  0.4910
    4BIM     N522087  -0.858  10.330   4.251  0.6611 -0.5172 -1.0222
    4BIM     N622088  -0.733   9.980   4.481  0.7324 -0.3739 -0.8430
    4BIM    C1922089  -0.448  10.123   4.605  0.1597  0.1092 -0.0686
    4BIM    C2022090  -0.464  10.242   4.544  0.0925  0.1032 -0.0627
    4BIM    C2122091  -0.363  10.352   4.563 -0.1564  0.2839  0.2340
    4BIM    C2222092  -0.411  10.467   4.484 -0.1695  0.2263  0.1589
    4BIM    C2322093  -0.351  10.591   4.470 -0.3643  0.3442  0.3592
    4BIM    C2422094  -0.415  10.684   4.389 -0.3337  0.2568  0.2345
    4BIM    C2522095  -0.535  10.652   4.324 -0.1147  0.0578 -0.0811
    4BIM    C2622096  -0.596  10.528   4.338  0.0808 -0.0606 -0.2823
    4BIM    C2722097  -0.532  10.433   4.419  0.0534  0.0252 -0.1603
    4BIM    C2822098  -0.570  10.294   4.454  0.2232 -0.0584 -0.3091
    4BIM    C2922099  -0.681  10.225   4.410  0.4566 -0.2491 -0.6163
    4BIM    C3022100  -0.778  10.283   4.323  0.5682 -0.3959 -0.8384
    4BIM    C3122101  -0.709  10.091   4.449  0.6070 -0.3167 -0.7391
    5BIM     F122102   1.312  10.511   4.803 -0.0328  0.2974  0.1184
    5BIM     F222103   1.537  10.420   4.924  0.1214  0.0403 -0.3556
    5BIM     O122104   0.964  10.113   4.921 -0.0529  0.3566  0.2584
    5BIM     N522105   1.614  10.005   5.183  0.3287 -0.2873 -0.9373
    5BIM     N622106   1.297   9.713   5.251  0.2819 -0.1892 -0.7324
    5BIM    C1922107   1.056   9.885   5.079  0.0873  0.1319 -0.1447
    5BIM    C2022108   1.135   9.988   5.045  0.0862  0.1271 -0.1615
    5BIM    C2122109   1.080  10.102   4.963  0.0119  0.2467  0.0539
    5BIM    C2222110   1.191  10.197   4.944  0.0314  0.2075 -0.0265
    5BIM    C2322111   1.189  10.318   4.874 -0.0185  0.2852  0.1099
    5BIM    C2422112   1.307  10.391   4.870  0.0133  0.2263 -0.0056
    5BIM    C2522113   1.423  10.343   4.932  0.0928  0.0938 -0.2498
    5BIM    C2622114   1.426  10.223   5.001  0.1430  0.0158 -0.3870
    5BIM    C2722115   1.308  10.148   5.007  0.1118  0.0736 -0.2731
    5BIM    C2822116   1.277  10.018   5.072  0.1487  0.0189 -0.3659
    5BIM    C2922117   1.365   9.940   5.143  0.2258 -0.1078 -0.5970
    5BIM    C3022118   1.502   9.976   5.165  0.2821 -0.2060 -0.7833
    5BIM    C3122119   1.327   9.815   5.202  0.2562 -0.1519 -0.6702
    1BTD     S222120   5.549   6.467   5.825 -0.1380  0.2538  0.0500
    1BTD     N122121   5.460   6.614   5.772 -0.0199  0.3250  0.0470
    1BTD     N222122   5.710   6.527   5.769 -0.1173  0.0474 -0.1158
    1BTD     N322123   5.875   6.914   5.561  0.1380 -0.2453 -0.4588
    1BTD     N422124   5.568   7.021   5.564  0.2582  0.0967 -0.2586
    1BTD     C522125   5.520   6.826   5.663  0.1239  0.2018 -0.1148
    1BTD     C622126   5.550   6.696   5.718  0.0265  0.1976 -0.0713
    1BTD     C722127   5.689   6.647   5.717 -0.0281  0.0422 -0.1624
    1BTD     C822128   5.792   6.730   5.661  0.0174 -0.1014 -0.2924
    1BTD    C1522129   5.759   6.856   5.608  0.1128 -0.0917 -0.3309
    1BTD    C1622130   5.624   6.903   5.609  0.1654  0.0580 -0.2433
    1BTD    C4322131   5.630   7.152   5.593  0.3575  0.2245  0.0279
    1BTD    C4422132   5.608   7.277   5.508  0.9739 -0.3283 -0.1272
    1BTD    C4522133   5.638   7.251   5.357  0.0117 -0.2175  0.0262
    1BTD    C4622134   5.581   7.342   5.256 -0.1667  0.0355  0.3909
    1BTD    C4722135   5.655   7.406   5.564 -0.0942 -0.2151 -0.0028
    1BTD    C4822136   5.585   7.458   5.691  0.4560 -0.1514 -0.5384
    1BTD    C4922137   5.502   7.587   5.650 -0.0007  0.1129  0.3933
    1BTD    C5022138   5.437   7.657   5.768 -0.4449 -0.7061  0.0513
    1BTD    C7522139   5.876   7.024   5.454  0.0477 -0.2498 -0.6943
    1BTD    C7622140   5.987   7.121   5.423 -0.5226 -0.3998 -0.1928
    1BTD    C7722141   6.011   7.232   5.534 -0.0235  0.2577 -0.4540
    1BTD    C7822142   6.121   7.339   5.516 -0.3229 -0.0294  0.5446
    1BTD    C7922143   5.973   7.188   5.289  0.1210  0.1614 -0.4727
    1BTD    C8022144   5.999   7.096   5.167  0.1671 -0.3623 -0.2223
    1BTD    C8122145   5.925   7.148   5.047 -0.6434 -0.1712  0.6454
    1BTD    C8222146   5.919   7.039   4.936  0.2207 -0.3839 -0.1965
    2TTP     S122147   5.221   6.869   5.673 -0.1489 -0.1684  0.2482
    2TTP     S522148   5.274   7.254   5.491 -0.0306 -0.1301  0.3635
    2TTP     C122149   5.097   7.228   5.520 -0.0428 -0.1035  0.3145
    2TTP     C222150   5.070   7.108   5.578 -0.0800 -0.1138  0.2760
    2TTP     C322151   5.188   7.031   5.602 -0.1003 -0.1428  0.2838
    2TTP     C422152   5.399   6.895   5.644 -0.1366 -0.1949  0.2973
    2TTP    C1722153   5.426   7.015   5.586 -0.0995 -0.1845  0.3357
    2TTP    C1822154   5.307   7.091   5.562 -0.0792 -0.1554  0.3277
    2TTP    C3222155   4.938   7.047   5.611  1.1332  0.2506 -0.0178
    2TTP    C3322156   4.911   7.050   5.759  0.3188 -0.1150  0.1910
    2TTP    C3422157   4.765   7.010   5.801 -0.8520  1.1313 -0.5553
    2TTP    C3522158   4.645   7.092   5.751 -0.5482  0.0107  0.9284
    2TTP    C3622159   4.511   7.027   5.779 -0.0735  0.3051 -0.7227
    2TTP    C3722160   4.390   7.087   5.710 -0.5591  0.1429  0.0418
    2TTP    C3822161   4.385   7.099   5.555 -0.3494 -0.5023 -0.3925
    2TTP    C3922162   4.247   7.122   5.493 -0.2884  0.1255 -0.0978
    2TTP    C4022163   4.141   7.009   5.486 -0.0178 -0.3480  0.5533
    2TTP    C4122164   4.081   6.972   5.612 -0.2736  0.5288  0.1877
    2TTP    C4222165   3.992   6.846   5.601  0.6511 -0.6966 -0.5288
    3TTP     S122166   6.058   6.594   5.705  0.0838 -0.2083 -0.3423
    3TTP     S522167   6.249   6.944   5.544  0.1056  0.0919  0.3302
    3TTP     C122168   6.378   6.832   5.607  0.1011 -0.0587  0.0706
    3TTP     C222169   6.326   6.717   5.660  0.0941 -0.1605 -0.1525
    3TTP     C322170   6.183   6.714   5.653  0.0920 -0.1228 -0.1262
    3TTP     C422171   5.930   6.707   5.643  0.0883 -0.0578 -0.0825
    3TTP    C1722172   5.981   6.822   5.589  0.0953  0.0440  0.1403
    3TTP    C1822173   6.124   6.825   5.596  0.0974  0.0064  0.1142
    3TTP    C3222174   6.401   6.599   5.729  0.3871  0.3454  0.0613
    3TTP    C3322175   6.384   6.465   5.660  0.1532 -0.0930  0.4171
    3TTP    C3422176   6.452   6.352   5.732 -0.0746  0.1457 -0.6841
    3TTP    C3522177   6.441   6.232   5.638 -0.2442 -0.0354 -0.1199
    3TTP    C3622178   6.487   6.108   5.717 -0.9409 -0.4363 -0.2097
    3TTP    C3722179   6.443   5.973   5.661  0.4631 -0.4995  0.0665
    3TTP    C3822180   6.295   5.941   5.705 -0.6916  0.3964 -0.5447
    3TTP    C3922181   6.233   5.855   5.600  0.2077 -0.0360 -0.0346
    3TTP    C4022182   6.090   5.812   5.631 -0.1311 -0.0292 -0.3490
    3TTP    C4122183   6.010   5.753   5.520  1.2329  0.8633  0.3922
    3TTP    C4222184   5.857   5.763   5.551 -0.2054 -0.5745  0.3369
    4BIM     F122185   5.089   8.050   5.504  0.0912 -0.2072 -0.3873
    4BIM     F222186   4.823   8.040   5.445  0.0272 -0.3421 -0.0782
    4BIM     O122187   5.205   7.523   5.542  0.3558 -0.1438 -0.3092
    4BIM     N522188   4.525   7.650   5.388  0.1241 -0.4908  0.4214
    4BIM     N622189   4.669   7.240   5.430  0.3438 -0.4139  0.4201
    4BIM    C1922190   4.993   7.326   5.500  0.3890 -0.2498  0.0137
    4BIM    C2022191   4.974   7.459   5.492  0.3248 -0.2607 -0.0181
    4BIM    C2122192   5.088   7.554   5.516  0.3119 -0.2035 -0.1873
    4BIM    C2222193   5.033   7.690   5.500  0.2372 -0.2325 -0.1789
    4BIM    C2322194   5.101   7.811   5.512  0.2010 -0.1992 -0.3054
    4BIM    C2422195   5.028   7.927   5.493  0.1303 -0.2372 -0.2680
    4BIM    C2522196   4.891   7.922   5.463  0.0975 -0.3068 -0.1087
    4BIM    C2622197   4.823   7.801   5.451  0.1336 -0.3405  0.0180
    4BIM    C2722198   4.895   7.683   5.470  0.2049 -0.3027 -0.0175
    4BIM    C2822199   4.853   7.541   5.464  0.2575 -0.3226  0.0877
    4BIM    C2922200   4.727   7.494   5.437  0.2459 -0.3865  0.2517
    4BIM    C3022201   4.616   7.580   5.410  0.1791 -0.4435  0.3445
    4BIM    C3122202   4.696   7.354   5.433  0.2998 -0.4011  0.3434
    5BIM     F122203   6.852   7.492   5.453  0.2677 -0.0499 -0.6160
    5BIM     F222204   7.071   7.342   5.515  0.1743  0.0957  0.0827
    5BIM     O122205   6.456   7.130   5.525  0.1858  0.0216 -0.7087
    5BIM     N522206   7.103   6.868   5.655 -0.0187  0.3561  1.0210
    5BIM     N622207   6.749   6.616   5.698 -0.0639  0.3824  0.8076
    5BIM    C1922208   6.524   6.858   5.609  0.0674  0.1861 -0.0742
    5BIM    C2022209   6.615   6.955   5.589  0.0917  0.1626 -0.0783
    5BIM    C2122210   6.573   7.092   5.545  0.1528  0.0769 -0.4150
    5BIM    C2222211   6.696   7.172   5.533  0.1655  0.0716 -0.3260
    5BIM    C2322212   6.707   7.306   5.495  0.2168  0.0043 -0.5522
    5BIM    C2422213   6.834   7.360   5.490  0.2184  0.0141 -0.4075
    5BIM    C2522214   6.947   7.283   5.522  0.1702  0.0892 -0.0473
    5BIM    C2622215   6.936   7.149   5.559  0.1189  0.1568  0.1799
    5BIM    C2722216   6.808   7.093   5.565  0.1163  0.1479  0.0380
    5BIM    C2822217   6.763   6.956   5.601  0.0690  0.2067  0.2047
    5BIM    C2922218   6.843   6.851   5.638  0.0147  0.2869  0.5542
    5BIM    C3022219   6.986   6.861   5.647 -0.0036  0.3246  0.8096
    5BIM    C3122220   6.791   6.722   5.671 -0.0283  0.3392  0.6917
    1BTD     S222221   4.956   0.305   2.635  0.0825 -0.2596 -0.1011
    1BTD     N122222   4.964   0.126   2.621  0.0199 -0.2611 -0.1116
    1BTD     N222223   4.799   0.320   2.548  0.0123 -0.2134  0.0337
    1BTD     N322224   4.493   0.026   2.347 -0.2443 -0.1221  0.2894
    1BTD     N422225   4.696  -0.213   2.437 -0.2347 -0.1807  0.1104
    1BTD     C522226   4.822  -0.048   2.524 -0.1130 -0.2184  0.0065
    1BTD     C622227   4.855   0.088   2.556 -0.0467 -0.2288 -0.0189
    1BTD     C722228   4.762   0.197   2.515 -0.0509 -0.2021  0.0624
    1BTD     C822229   4.642   0.163   2.444 -0.1216 -0.1665  0.1650
    1BTD    C1522230   4.614   0.029   2.415 -0.1850 -0.1576  0.1863
    1BTD    C1622231   4.702  -0.076   2.454 -0.1808 -0.1836  0.1080
    1BTD    C4322232   4.571  -0.290   2.417  0.3390 -0.2538 -0.0690
    1BTD    C4422233   4.557  -0.427   2.350  0.6041 -0.0372 -0.2995
    1BTD    C4522234   4.609  -0.429   2.208 -0.1590  0.0302  0.3251
    1BTD    C4622235   4.600  -0.560   2.122  0.0351 -0.2612  0.1346
    1BTD    C4722236   4.438  -0.518   2.393 -0.5863  0.1886  0.2440
    1BTD    C4822237   4.407  -0.535   2.536 -0.3776  0.2708  0.3285
    1BTD    C4922238   4.518  -0.606   2.620  0.1097 -0.4201  0.5767
    1BTD    C5022239   4.477  -0.601   2.766 -0.1274  0.3245  0.1884
    1BTD    C7522240   4.478  -0.060   2.225  0.0819  0.2400 -0.4593
    1BTD    C7622241   4.349  -0.110   2.150 -0.1711  0.2507  0.0639
    1BTD    C7722242   4.247  -0.199   2.225 -0.7173  0.4241  0.0744
    1BTD    C7822243   4.176  -0.160   2.354  0.1786 -0.5418  0.3300
    1BTD    C7922244   4.393  -0.171   2.014  0.0545 -0.5173  0.4490
    1BTD    C8022245   4.286  -0.216   1.908 -0.1619  0.2632 -0.1414
    1BTD    C8122246   4.181  -0.113   1.871 -0.3532  0.4034  0.1412
    1BTD    C8222247   4.081  -0.156   1.780  0.2909  0.1380 -0.2815
    2TTP     S122248   5.032  -0.235   2.635 -0.1009 -0.2405  0.2897
    2TTP     S522249   4.831  -0.569   2.455  0.1270  0.0134 -0.4432
    2TTP     C122250   4.982  -0.630   2.537 -0.0424 -0.1203 -0.2278
    2TTP     C222251   5.053  -0.530   2.597 -0.1224 -0.2069  0.0112
    2TTP     C322252   4.991  -0.402   2.581 -0.0534 -0.1700  0.0328
    2TTP     C422253   4.881  -0.175   2.553  0.0684 -0.1066  0.0741
    2TTP    C1722254   4.810  -0.274   2.493  0.1486 -0.0198 -0.1648
    2TTP    C1822255   4.872  -0.402   2.509  0.0795 -0.0570 -0.1864
    2TTP    C3222256   5.194  -0.531   2.662  0.6066 -0.1264 -0.5370
    2TTP    C3322257   5.197  -0.505   2.811  0.1159 -0.1625 -0.6741
    2TTP    C3422258   5.341  -0.476   2.853 -0.0389 -0.4155  0.3315
    2TTP    C3522259   5.359  -0.401   2.985 -0.0491 -0.9822 -0.5892
    2TTP    C3622260   5.507  -0.365   3.010 -0.2036 -0.1625 -0.1562
    2TTP    C3722261   5.523  -0.273   3.134 -0.4481  0.4325 -0.3921
    2TTP    C3822262   5.657  -0.229   3.194  0.3377  0.2280  0.3907
    2TTP    C3922263   5.769  -0.188   3.099 -0.0808  0.2286  0.3366
    2TTP    C4022264   5.739  -0.073   3.009 -0.5458  0.3013  0.2787
    2TTP    C4122265   5.861  -0.040   2.916  0.3810 -1.0233  0.1635
    2TTP    C4222266   5.835   0.082   2.828  0.1001 -0.1427 -0.5641
    3TTP     S122267   4.480   0.410   2.379 -0.2468 -0.3357  0.2211
    3TTP     S522268   4.163   0.160   2.232 -0.2285 -0.0079 -0.3828
    3TTP     C122269   4.104   0.332   2.235 -0.0846  0.0420 -0.4135
    3TTP     C222270   4.198   0.419   2.281 -0.0818 -0.0563 -0.2289
    3TTP     C322271   4.321   0.354   2.315 -0.1931 -0.1745 -0.0564
    3TTP     C422272   4.538   0.238   2.377 -0.3908 -0.3855  0.2517
    3TTP    C1722273   4.444   0.151   2.331 -0.3937 -0.2873  0.0672
    3TTP    C1822274   4.322   0.216   2.297 -0.2823 -0.1690 -0.1053
    3TTP    C3222275   4.200   0.573   2.299  0.6427  0.3418  0.3738
    3TTP    C3322276   4.256   0.667   2.184  0.4974 -0.8825  0.0014
    3TTP    C3422277   4.205   0.639   2.040 -0.1079  0.5572 -0.9586
    3TTP    C3522278   4.063   0.668   2.010  0.3084 -0.7140  0.2197
    3TTP    C3622279   4.011   0.619   1.877  0.5494 -0.1279  0.3376
    3TTP    C3722280   3.861   0.648   1.860  0.3148 -0.0013  0.1444
    3TTP    C3822281   3.805   0.604   1.726 -0.1103  0.2024  0.3439
    3TTP    C3922282   3.659   0.646   1.700 -0.4439 -0.0175 -0.1928
    3TTP    C4022283   3.604   0.644   1.561 -0.0315 -0.6248 -0.6034
    3TTP    C4122284   3.491   0.747   1.531 -0.9730 -0.4138  0.6038
    3TTP    C4222285   3.447   0.745   1.386 -0.5120 -0.2792 -0.5901
    4BIM     F122286   4.757  -1.364   2.239 -0.0865 -0.0737  0.1385
    4BIM     F222287   4.972  -1.473   2.367 -0.0426 -0.0398  0.0929
    4BIM     O122288   4.809  -0.843   2.377 -0.1379 -0.0656  0.1266
    4BIM     N522289   5.318  -1.257   2.647 -0.0157  0.0145  0.0187
    4BIM     N622290   5.315  -0.828   2.729 -0.0647  0.0141  0.0187
    4BIM    C1922291   5.032  -0.761   2.547 -0.1140 -0.0304  0.0789
    4BIM    C2022292   5.011  -0.888   2.508 -0.1028 -0.0334  0.0836
    4BIM    C2122293   4.894  -0.923   2.420 -0.1162 -0.0517  0.1086
    4BIM    C2222294   4.900  -1.068   2.396 -0.0988 -0.0510  0.1075
    4BIM    C2322295   4.813  -1.146   2.321 -0.1029 -0.0648  0.1262
    4BIM    C2422296   4.840  -1.281   2.312 -0.0837 -0.0605  0.1207
    4BIM    C2522297   4.950  -1.337   2.378 -0.0610 -0.0431  0.0972
    4BIM    C2622298   5.038  -1.260   2.454 -0.0567 -0.0293  0.0784
    4BIM    C2722299   5.013  -1.122   2.463 -0.0762 -0.0331  0.0836
    4BIM    C2822300   5.085  -1.014   2.534 -0.0776 -0.0219  0.0679
    4BIM    C2922301   5.199  -1.028   2.610 -0.0592 -0.0041  0.0436
    4BIM    C3022302   5.264  -1.154   2.630 -0.0354  0.0060  0.0300
    4BIM    C3122303   5.262  -0.918   2.675 -0.0623  0.0060  0.0300
    5BIM     F122304   3.562   0.017   1.713  0.1047  0.0057  0.0716
    5BIM     F222305   3.397   0.226   1.767  0.0040 -0.0983  0.1685
    5BIM     O122306   3.987   0.137   2.027  0.0896  0.1182  0.0489
    5BIM     N522307   3.462   0.614   2.068 -0.1516 -0.1676  0.2917
    5BIM     N622308   3.827   0.666   2.303 -0.1432 -0.0588  0.2545
    5BIM    C1922309   3.980   0.381   2.190 -0.0121  0.0588  0.1335
    5BIM    C2022310   3.879   0.342   2.109 -0.0043  0.0346  0.1354
    5BIM    C2122311   3.890   0.216   2.028  0.0492  0.0678  0.0903
    5BIM    C2222312   3.765   0.204   1.952  0.0437  0.0290  0.1052
    5BIM    C2322313   3.729   0.103   1.863  0.0827  0.0407  0.0760
    5BIM    C2422314   3.604   0.113   1.802  0.0682 -0.0029  0.0983
    5BIM    C2522315   3.519   0.221   1.830  0.0163 -0.0565  0.1482
    5BIM    C2622316   3.555   0.322   1.919 -0.0228 -0.0684  0.1776
    5BIM    C2722317   3.680   0.314   1.981 -0.0088 -0.0248  0.1557
    5BIM    C2822318   3.747   0.403   2.079 -0.0405 -0.0235  0.1763
    5BIM    C2922319   3.697   0.520   2.131 -0.0931 -0.0677  0.2239
    5BIM    C3022320   3.568   0.571   2.097 -0.1251 -0.1225  0.2611
    5BIM    C3122321   3.769   0.599   2.225 -0.1203 -0.0625  0.2404
    1BTD     S222322   1.982   8.993   8.138  0.2939  0.1821  0.0457
    1BTD     N122323   2.148   8.955   8.197  0.2891  0.0198 -0.0443
    1BTD     N222324   1.913   8.834   8.185  0.1515  0.2666  0.1252
    1BTD     N322325   2.072   8.440   8.386 -0.1475  0.1452  0.1252
    1BTD     N422326   2.361   8.590   8.401  0.0222 -0.1588 -0.0834
    1BTD     C522327   2.256   8.763   8.304  0.1478 -0.0696 -0.0622
    1BTD     C622328   2.143   8.832   8.246  0.1869  0.0360 -0.0119
    1BTD     C722329   2.012   8.764   8.239  0.1099  0.1740  0.0827
    1BTD     C822330   2.000   8.630   8.290 -0.0026  0.1996  0.1225
    1BTD    C1522331   2.112   8.566   8.346 -0.0372  0.0928  0.0707
    1BTD    C1622332   2.239   8.632   8.352  0.0370 -0.0401 -0.0207
    1BTD    C4322333   2.414   8.456   8.392 -0.0392  0.5852  0.3553
    1BTD    C4422334   2.511   8.392   8.489 -0.0821 -0.1675  0.2041
    1BTD    C4522335   2.447   8.397   8.624 -0.4896 -0.2465 -0.3844
    1BTD    C4622336   2.539   8.395   8.750 -0.1963 -0.0342 -0.1664
    1BTD    C4722337   2.573   8.257   8.457 -0.1139 -0.1769  0.1356
    1BTD    C4822338   2.665   8.276   8.332 -0.5594  0.6312  1.1758
    1BTD    C4922339   2.712   8.140   8.265  0.5009 -0.0605  1.0146
    1BTD    C5022340   2.586   8.065   8.215 -0.1748  0.2719 -0.6223
    1BTD    C7522341   2.110   8.387   8.520 -0.3149 -0.2005  0.0174
    1BTD    C7622342   2.110   8.242   8.557  0.6618 -0.2280  0.3538
    1BTD    C7722343   2.186   8.143   8.465  0.4810  0.3162  0.4875
    1BTD    C7822344   2.166   7.989   8.479 -0.0953  0.3230  0.2559
    1BTD    C7922345   2.131   8.226   8.711  0.0453  0.6761  0.5333
    1BTD    C8022346   2.037   8.272   8.824  0.2038 -0.0782 -0.5393
    1BTD    C8122347   1.886   8.237   8.822  0.1610 -0.1345 -0.6032
    1BTD    C8222348   1.807   8.251   8.945 -0.4020 -0.1912 -0.4288
    2TTP     S122349   2.501   8.942   8.293  0.2475 -0.1662 -0.2286
    2TTP     S522350   2.728   8.635   8.492  0.3119 -0.1535 -0.2828
    2TTP     C122351   2.833   8.782   8.472  0.2272 -0.0679 -0.1035
    2TTP     C222352   2.770   8.885   8.410  0.2024 -0.0668 -0.0756
    2TTP     C322353   2.635   8.852   8.375  0.2493 -0.1335 -0.1960
    2TTP     C422354   2.395   8.795   8.313  0.3323 -0.2518 -0.4084
    2TTP    C1722355   2.459   8.691   8.376  0.3572 -0.2528 -0.4357
    2TTP    C1822356   2.594   8.725   8.410  0.3102 -0.1862 -0.3157
    2TTP    C3222357   2.834   9.019   8.366 -0.5935 -0.4085  0.5714
    2TTP    C3322358   2.775   9.139   8.445 -0.1540 -0.2883 -0.0315
    2TTP    C3422359   2.874   9.256   8.451 -0.3706 -0.6424  0.4644
    2TTP    C3522360   2.846   9.381   8.541 -0.3097 -0.2100 -0.7342
    2TTP    C3622361   2.706   9.439   8.543  0.6785  0.1126 -0.0411
    2TTP    C3722362   2.643   9.493   8.410 -0.0124  0.1010  0.2856
    2TTP    C3822363   2.699   9.624   8.354 -0.3192 -0.2407 -0.1627
    2TTP    C3922364   2.627   9.670   8.230 -0.6009  0.0727  0.2935
    2TTP    C4022365   2.675   9.808   8.177  0.1973  0.3276  0.6731
    2TTP    C4122366   2.604   9.855   8.047 -0.4771  0.1446  0.0819
    2TTP    C4222367   2.618   9.766   7.923  0.3732  0.2993  0.1925
    3TTP     S122368   1.726   8.526   8.218  0.4305 -0.0445 -0.2927
    3TTP     S522369   1.816   8.153   8.412  0.0269  0.1488  0.2730
    3TTP     C122370   1.652   8.140   8.335  0.1492  0.1021  0.0153
    3TTP     C222371   1.614   8.255   8.271  0.2811  0.0398 -0.1748
    3TTP     C322372   1.714   8.357   8.280  0.2902  0.0262 -0.1235
    3TTP     C422373   1.891   8.539   8.295  0.3081  0.0019 -0.0348
    3TTP    C1722374   1.928   8.424   8.359  0.1763  0.0644  0.1553
    3TTP    C1822375   1.828   8.322   8.350  0.1672  0.0780  0.1040
    3TTP    C3222376   1.484   8.288   8.193  0.3409  0.1362  0.6309
    3TTP    C3322377   1.493   8.250   8.043  0.4048 -0.3467 -0.4957
    3TTP    C3422378   1.361   8.278   7.969 -0.2674  0.4389 -0.2437
    3TTP    C3522379   1.349   8.246   7.827 -0.0960  0.0926  0.3096
    3TTP    C3622380   1.220   8.262   7.753 -0.3652 -0.0799 -0.6217
    3TTP    C3722381   1.193   8.407   7.728  0.3503 -0.7559 -0.5005
    3TTP    C3822382   1.080   8.430   7.627  0.3212 -0.1433 -0.6393
    3TTP    C3922383   1.038   8.581   7.627  0.3213  0.9055  0.2033
    3TTP    C4022384   0.916   8.602   7.533  0.2413  0.5787 -0.4551
    3TTP    C4122385   0.894   8.751   7.520  0.1995  0.5076  0.2511
    3TTP    C4222386   0.783   8.784   7.415 -0.2565  0.3812 -0.5195
    4BIM     F122387   3.283   8.437   9.065 -0.0235  0.1304  0.3059
    4BIM     F222388   3.499   8.578   8.977  0.1734 -0.3853 -0.0436
    4BIM     O122389   2.901   8.611   8.724  0.0252  0.4351  0.4055
    4BIM     N522390   3.536   8.904   8.607  0.4914 -0.9096 -0.4759
    4BIM     N622391   3.193   9.012   8.358  0.4898 -0.5677 -0.3278
    4BIM    C1922392   2.970   8.807   8.518  0.2307  0.0507  0.1066
    4BIM    C2022393   3.058   8.758   8.608  0.2108 -0.0060  0.0951
    4BIM    C2122394   3.015   8.657   8.711  0.1031  0.2022  0.2549
    4BIM    C2222395   3.134   8.625   8.791  0.1087  0.0751  0.1965
    4BIM    C2322396   3.143   8.537   8.898  0.0282  0.1898  0.2980
    4BIM    C2422397   3.267   8.523   8.959  0.0523  0.0299  0.2138
    4BIM    C2522398   3.378   8.596   8.913  0.1539 -0.2357  0.0333
    4BIM    C2622399   3.370   8.684   8.806  0.2345 -0.3507 -0.0687
    4BIM    C2722400   3.245   8.700   8.744  0.2116 -0.1926  0.0145
    4BIM    C2822401   3.203   8.784   8.629  0.2784 -0.2530 -0.0551
    4BIM    C2922402   3.283   8.870   8.557  0.3830 -0.4923 -0.2260
    4BIM    C3022403   3.422   8.888   8.585  0.4423 -0.7207 -0.3626
    4BIM    C3122404   3.233   8.947   8.448  0.4412 -0.5324 -0.2809
    5BIM     F122405   1.685   7.394   8.682  0.1599  0.1677  0.0196
    5BIM     F222406   1.415   7.373   8.650  0.2112 -0.0581 -0.2887
    5BIM     O122407   1.778   7.877   8.457 -0.0180  0.3479  0.3324
    5BIM     N522408   1.094   7.689   8.446  0.1581 -0.2543 -0.5083
    5BIM     N622409   1.221   8.071   8.276  0.0088 -0.0679 -0.2017
    5BIM    C1922410   1.554   8.030   8.348 -0.0322  0.1961  0.1493
    5BIM    C2022411   1.541   7.909   8.405  0.0105  0.1597  0.0827
    5BIM    C2122412   1.661   7.837   8.459  0.0150  0.2428  0.1845
    5BIM    C2222413   1.612   7.709   8.515  0.0660  0.1751  0.0749
    5BIM    C2322414   1.686   7.609   8.576  0.0874  0.2148  0.1140
    5BIM    C2422415   1.618   7.497   8.620  0.1363  0.1342 -0.0111
    5BIM    C2522416   1.479   7.487   8.604  0.1628  0.0181 -0.1691
    5BIM    C2622417   1.404   7.587   8.543  0.1415 -0.0222 -0.2093
    5BIM    C2722418   1.472   7.701   8.498  0.0920  0.0581 -0.0846
    5BIM    C2822419   1.422   7.823   8.430  0.0590  0.0441 -0.0861
    5BIM    C2922420   1.292   7.851   8.396  0.0711 -0.0571 -0.2186
    5BIM    C3022421   1.184   7.762   8.423  0.1189 -0.1652 -0.3774
    5BIM    C3122422   1.254   7.972   8.330  0.0367 -0.0623 -0.2086
    1BTD     S222423   2.199   1.100   8.829 -0.1861 -0.0580  0.1482
    1BTD     N122424   2.039   1.039   8.776  0.0700 -0.4828 -0.1452
    1BTD     N222425   2.223   1.205   8.685 -0.3918  0.3403  0.4008
    1BTD     N322426   1.983   1.309   8.295 -0.3484  0.3849  0.3862
    1BTD     N422427   1.756   1.104   8.407  0.2207 -0.6293 -0.2868
    1BTD     C522428   1.894   1.075   8.582  0.1418 -0.5471 -0.2110
    1BTD     C622429   2.013   1.097   8.659 -0.0070 -0.3146 -0.0451
    1BTD     C722430   2.116   1.190   8.609 -0.2655  0.1462  0.2608
    1BTD     C822431   2.095   1.257   8.483 -0.3623  0.3513  0.3848
    1BTD    C1522432   1.977   1.233   8.410 -0.2098  0.1110  0.2141
    1BTD    C1622433   1.878   1.143   8.459  0.0392 -0.3329 -0.0803
    1BTD    C4322434   1.731   1.080   8.260 -0.7356 -0.9493 -0.4805
    1BTD    C4422435   1.591   1.085   8.193 -0.0318  0.1369  0.5622
    1BTD    C4522436   1.591   1.033   8.048  0.3038 -0.1336  0.3049
    1BTD    C4622437   1.617   0.886   8.030  0.7121  0.6985 -0.1382
    1BTD    C4722438   1.537   1.230   8.216 -0.2276  0.6526  0.2773
    1BTD    C4822439   1.405   1.271   8.163 -0.3715 -0.1703 -0.0361
    1BTD    C4922440   1.368   1.416   8.188 -0.2745 -0.3604 -0.3809
    1BTD    C5022441   1.266   1.467   8.088  0.0821 -0.6625  0.1351
    1BTD    C7522442   1.870   1.388   8.254  0.5476 -0.3183 -0.1744
    1BTD    C7622443   1.855   1.445   8.120 -0.2568 -0.3528 -0.0130
    1BTD    C7722444   1.736   1.539   8.108  0.0228  0.3365 -0.1957
    1BTD    C7822445   1.753   1.679   8.165 -0.1619 -0.7581  0.3229
    1BTD    C7922446   1.865   1.336   8.006 -0.1678 -0.0280  0.2290
    1BTD    C8022447   1.856   1.407   7.865 -0.4904  0.6554 -0.1752
    1BTD    C8122448   1.838   1.320   7.741 -0.1055 -0.4487  0.2180
    1BTD    C8222449   1.850   1.399   7.611  0.0429 -0.4757  0.3684
    2TTP     S122450   1.710   0.882   8.725  0.2023 -0.2885 -0.0924
    2TTP     S522451   1.405   0.962   8.431  0.1812 -0.3851 -0.0970
    2TTP     C122452   1.336   0.852   8.559  0.1366 -0.2010  0.0386
    2TTP     C222453   1.426   0.821   8.657  0.1405 -0.1604  0.0479
    2TTP     C322454   1.553   0.883   8.635  0.1789 -0.2731 -0.0517
    2TTP     C422455   1.779   0.992   8.597  0.2469 -0.4726 -0.2284
    2TTP    C1722456   1.689   1.023   8.499  0.2430 -0.5132 -0.2373
    2TTP    C1822457   1.562   0.961   8.521  0.2047 -0.4005 -0.1378
    2TTP    C3222458   1.396   0.719   8.768 -0.0396  0.2923 -0.4210
    2TTP    C3322459   1.451   0.582   8.738  0.0868  0.0123  0.5598
    2TTP    C3422460   1.443   0.497   8.863  0.4937  0.3386  0.2754
    2TTP    C3522461   1.475   0.351   8.840  0.6784  0.3533 -0.2872
    2TTP    C3622462   1.405   0.272   8.734 -0.3529 -0.1345  0.5763
    2TTP    C3722463   1.442   0.129   8.742 -0.0831  0.1929 -0.6971
    2TTP    C3822464   1.336   0.042   8.680 -0.2782  0.1744 -0.2018
    2TTP    C3922465   1.381  -0.102   8.677  0.1168 -0.0164  0.0553
    2TTP    C4022466   1.287  -0.206   8.603 -0.1589 -0.4679 -0.6391
    2TTP    C4122467   1.345  -0.350   8.620 -0.0516  0.2714 -0.3734
    2TTP    C4222468   1.375  -0.413   8.758 -0.4190 -0.2840 -0.0742
    3TTP     S122469   2.343   1.421   8.404  0.1846 -0.1841 -0.3306
    3TTP     S522470   2.172   1.482   8.014  0.0216  0.1111 -0.2136
    3TTP     C122471   2.337   1.557   8.017  0.2585 -0.3898 -0.4045
    3TTP     C222472   2.400   1.543   8.138  0.3228 -0.5105 -0.4520
    3TTP     C322473   2.320   1.472   8.232  0.1872 -0.2117 -0.3390
    3TTP     C422474   2.178   1.345   8.401 -0.0523  0.3168 -0.1397
    3TTP    C1722475   2.115   1.360   8.280 -0.1165  0.4375 -0.0922
    3TTP    C1822476   2.195   1.431   8.186  0.0190  0.1387 -0.2048
    3TTP    C3222477   2.548   1.585   8.167 -0.9480  0.2264  0.3595
    3TTP    C3322478   2.584   1.648   8.298 -0.2246  0.6280 -0.2826
    3TTP    C3422479   2.544   1.791   8.333  0.5332 -0.1855  0.2435
    3TTP    C3522480   2.395   1.836   8.334 -0.2487  0.8579  0.1485
    3TTP    C3622481   2.310   1.786   8.457 -0.5563  0.1343 -0.2803
    3TTP    C3722482   2.169   1.836   8.449 -0.1915 -0.5291  0.8164
    3TTP    C3822483   2.071   1.809   8.564 -0.4565 -0.4340 -0.3255
    3TTP    C3922484   1.932   1.840   8.520  0.0808  0.9155  0.1918
    3TTP    C4022485   1.822   1.825   8.623  0.5210 -0.3744  0.0744
    3TTP    C4122486   1.688   1.842   8.553 -0.2800  0.4627  0.0109
    3TTP    C4222487   1.584   1.913   8.636 -0.5556  0.2162  0.2125
    4BIM     F122488   0.682   0.983   8.075  0.3249 -0.2962 -0.3948
    4BIM     F222489   0.574   0.754   8.174 -0.1370  0.2103  0.2961
    4BIM     O122490   1.145   1.006   8.356  0.6450 -0.6822 -0.8881
    4BIM     N522491   0.748   0.440   8.515 -0.5729  0.6634  0.9384
    4BIM     N622492   1.131   0.505   8.714 -0.2296  0.2598  0.4141
    4BIM    C1922493   1.206   0.795   8.549  0.3175 -0.3353 -0.4026
    4BIM    C2022494   1.094   0.799   8.475  0.2550 -0.2580 -0.3054
    4BIM    C2122495   1.069   0.910   8.377  0.4335 -0.4478 -0.5703
    4BIM    C2222496   0.939   0.883   8.314  0.3075 -0.3007 -0.3784
    4BIM    C2322497   0.874   0.959   8.217  0.3995 -0.3937 -0.5128
    4BIM    C2422498   0.752   0.913   8.171  0.2458 -0.2174 -0.2798
    4BIM    C2522499   0.696   0.795   8.222  0.0079  0.0435  0.0762
    4BIM    C2622500   0.760   0.719   8.319 -0.0850  0.1376  0.2122
    4BIM    C2722501   0.884   0.763   8.366  0.0678 -0.0380 -0.0193
    4BIM    C2822502   0.977   0.707   8.467  0.0261 -0.0014  0.0391
    4BIM    C2922503   0.959   0.591   8.540 -0.1845  0.2268  0.3529
    4BIM    C3022504   0.843   0.509   8.526 -0.3973  0.4661  0.6738
    4BIM    C3122505   1.054   0.544   8.635 -0.2081  0.2436  0.3846
    5BIM     F122506   2.158   1.575   7.221 -0.1399  0.2113  0.2214
    5BIM     F222507   2.332   1.782   7.193  0.1772 -0.0643  0.1336
    5BIM     O122508   2.213   1.466   7.748 -0.3140  0.3561  0.2693
    5BIM     N522509   2.621   2.003   7.528  0.5089 -0.3574  0.0423
    5BIM     N622510   2.629   1.876   7.946  0.3089 -0.1888  0.0975
    5BIM    C1922511   2.398   1.626   7.909 -0.0729  0.1442  0.2028
    5BIM    C2022512   2.378   1.645   7.777 -0.0415  0.1185  0.1942
    5BIM    C2122513   2.281   1.559   7.702 -0.1718  0.2329  0.2301
    5BIM    C2222514   2.283   1.606   7.562 -0.0973  0.1698  0.2096
    5BIM    C2322515   2.209   1.557   7.455 -0.1705  0.2349  0.2297
    5BIM    C2422516   2.228   1.618   7.331 -0.0752  0.1536  0.2034
    5BIM    C2522517   2.317   1.725   7.317  0.0881  0.0116  0.1584
    5BIM    C2622518   2.391   1.775   7.424  0.1620 -0.0541  0.1379
    5BIM    C2722519   2.374   1.714   7.549  0.0675  0.0265  0.1639
    5BIM    C2822520   2.436   1.742   7.681  0.1082 -0.0106  0.1527
    5BIM    C2922521   2.529   1.840   7.709  0.2564 -0.1400  0.1121
    5BIM    C3022522   2.579   1.929   7.609  0.3947 -0.2591  0.0738
    5BIM    C3122523   2.583   1.859   7.839  0.2844 -0.1660  0.1042
    1BTD     S222524   2.830   0.499   6.463  0.0226 -0.0335 -0.0199
    1BTD     N122525   2.958   0.622   6.437  0.0495 -0.0439  0.0610
    1BTD     N222526   2.944   0.362   6.483 -0.0073 -0.0718 -0.1106
    1BTD     N322527   3.410   0.304   6.474 -0.0199 -0.1683 -0.1497
    1BTD     N422528   3.427   0.625   6.417  0.0501 -0.1339  0.0619
    1BTD     C522529   3.203   0.620   6.427  0.0490 -0.0913  0.0590
    1BTD     C622530   3.074   0.558   6.443  0.0355 -0.0737  0.0184
    1BTD     C722531   3.066   0.412   6.469  0.0037 -0.0893 -0.0776
    1BTD     C822532   3.188   0.336   6.478 -0.0131 -0.1218 -0.1285
    1BTD    C1522533   3.312   0.401   6.461  0.0011 -0.1380 -0.0860
    1BTD    C1622534   3.319   0.541   6.436  0.0317 -0.1230  0.0067
    1BTD    C4322535   3.568   0.621   6.454  0.0655  1.4240 -0.9248
    1BTD    C4422536   3.624   0.670   6.586  0.2916 -0.2104  0.7749
    1BTD    C4522537   3.541   0.645   6.712 -0.2899  0.3670  0.5717
    1BTD    C4622538   3.597   0.696   6.844  0.6038 -0.7498  0.4241
    1BTD    C4722539   3.773   0.635   6.594  0.2752 -0.2899 -0.2459
    1BTD    C4822540   3.886   0.678   6.503 -0.2469  0.5423 -0.3357
    1BTD    C4922541   3.909   0.829   6.507 -0.0709 -0.1953 -0.1820
    1BTD    C5022542   4.017   0.862   6.411 -0.3033 -0.4532 -0.3362
    1BTD    C7522543   3.550   0.308   6.425 -0.2020  0.3997 -0.0697
    1BTD    C7622544   3.579   0.275   6.275  0.1086 -0.1041  0.5092
    1BTD    C7722545   3.493   0.370   6.178 -0.4054 -0.3880 -0.2677
    1BTD    C7822546   3.499   0.336   6.035  0.6632  0.5859  0.0957
    1BTD    C7922547   3.730   0.269   6.246  0.0537 -0.4039  0.4566
    1BTD    C8022548   3.810   0.157   6.315  0.1463  0.0890 -0.8871
    1BTD    C8122549   3.786   0.011   6.281  0.4107 -0.0589 -0.1762
    1BTD    C8222550   3.894  -0.082   6.339  0.4171  0.0249  0.0357
    2TTP     S122551   3.167   0.921   6.388  0.0464  0.2621 -0.1210
    2TTP     S522552   3.592   0.957   6.329  0.1121  0.2365  0.3234
    2TTP     C122553   3.516   1.121   6.309  0.1741  0.2855  0.4918
    2TTP     C222554   3.381   1.120   6.326  0.1576  0.2963  0.3644
    2TTP     C322555   3.332   0.989   6.356  0.0952  0.2663  0.1292
    2TTP     C422556   3.243   0.756   6.408 -0.0157  0.2132 -0.2894
    2TTP    C1722557   3.378   0.758   6.390  0.0009  0.2024 -0.1622
    2TTP    C1822558   3.427   0.889   6.361  0.0634  0.2324  0.0730
    2TTP    C3222559   3.289   1.243   6.329  0.5436 -0.4529  0.3149
    2TTP    C3322560   3.204   1.277   6.446 -0.6755  0.6435  0.2353
    2TTP    C3422561   3.295   1.308   6.566  0.3208  0.4702  0.2502
    2TTP    C3522562   3.205   1.358   6.680 -0.7366 -0.5258 -0.4575
    2TTP    C3622563   3.111   1.488   6.671  0.1522 -0.0918  0.2425
    2TTP    C3722564   3.054   1.524   6.808 -0.3945 -0.1211  0.6259
    2TTP    C3822565   2.938   1.619   6.823 -0.0580 -0.2330  0.1385
    2TTP    C3922566   2.806   1.577   6.758 -0.3607  0.1638 -0.9193
    2TTP    C4022567   2.682   1.656   6.795 -0.1759 -0.2492 -0.0984
    2TTP    C4122568   2.644   1.680   6.946 -0.7201 -0.2290  0.5633
    2TTP    C4222569   2.514   1.745   6.975  0.0668 -0.9850  0.2417
    3TTP     S122570   3.115   0.042   6.498 -0.0198  0.0416  0.0274
    3TTP     S522571   3.533  -0.056   6.511 -0.0390 -0.0093  0.2787
    3TTP     C122572   3.438  -0.210   6.516 -0.0634  0.0084  0.3657
    3TTP     C222573   3.303  -0.189   6.512 -0.0590  0.0253  0.2933
    3TTP     C322574   3.270  -0.050   6.505 -0.0360  0.0248  0.1664
    3TTP     C422575   3.210   0.196   6.494  0.0046  0.0239 -0.0597
    3TTP    C1722576   3.345   0.176   6.497  0.0003  0.0072  0.0127
    3TTP    C1822577   3.378   0.037   6.504 -0.0227  0.0077  0.1397
    3TTP    C3222578   3.192  -0.291   6.505  0.4236 -0.4282  0.4713
    3TTP    C3322579   3.113  -0.304   6.371 -0.0736 -0.0265  0.0924
    3TTP    C3422580   3.001  -0.404   6.386  0.3416 -0.5059 -0.1887
    3TTP    C3522581   2.956  -0.452   6.241  0.2662  0.1084 -0.0804
    3TTP    C3622582   2.843  -0.551   6.250  0.1394 -0.0195  0.4046
    3TTP    C3722583   2.760  -0.576   6.129 -0.4037  0.0448  0.2893
    3TTP    C3822584   2.646  -0.671   6.159 -0.1481 -0.0391  0.2751
    3TTP    C3922585   2.553  -0.689   6.043 -0.0383 -0.5715  0.2103
    3TTP    C4022586   2.440  -0.793   6.060  0.2838  0.3191  0.0304
    3TTP    C4122587   2.339  -0.776   5.943  0.3340  0.5216 -0.0727
    3TTP    C4222588   2.241  -0.887   5.948  0.0075  0.5413  0.0830
    4BIM     F122589   4.301   1.349   6.385  0.2966 -0.1190 -0.0949
    4BIM     F222590   4.248   1.564   6.226  0.2975 -0.1578 -0.1477
    4BIM     O122591   3.811   1.121   6.415  0.2732 -0.0494  0.0496
    4BIM     N522592   3.822   1.710   6.020  0.2823 -0.1642 -0.1209
    4BIM     N622593   3.450   1.488   6.076  0.2638 -0.1020  0.0027
    4BIM    C1922594   3.587   1.245   6.275  0.2658 -0.0619  0.0504
    4BIM    C2022595   3.712   1.294   6.273  0.2717 -0.0778  0.0160
    4BIM    C2122596   3.822   1.225   6.348  0.2751 -0.0701  0.0181
    4BIM    C2222597   3.944   1.304   6.325  0.2812 -0.0917 -0.0244
    4BIM    C2322598   4.072   1.279   6.374  0.2861 -0.0935 -0.0376
    4BIM    C2422599   4.173   1.368   6.339  0.2916 -0.1160 -0.0794
    4BIM    C2522600   4.145   1.479   6.258  0.2920 -0.1359 -0.1066
    4BIM    C2622601   4.018   1.504   6.208  0.2873 -0.1343 -0.0935
    4BIM    C2722602   3.915   1.415   6.243  0.2817 -0.1117 -0.0513
    4BIM    C2822603   3.771   1.413   6.207  0.2758 -0.1040 -0.0275
    4BIM    C2922604   3.705   1.505   6.129  0.2745 -0.1183 -0.0430
    4BIM    C3022605   3.770   1.617   6.069  0.2787 -0.1435 -0.0858
    4BIM    C3122606   3.565   1.495   6.100  0.2686 -0.1092 -0.0179
    5BIM     F122607   4.170  -0.554   6.679  0.1950  0.1712 -0.5783
    5BIM     F222608   4.067  -0.795   6.606 -0.0842 -0.0579  0.5262
    5BIM     O122609   3.737  -0.234   6.621  0.2602  0.1934 -0.9469
    5BIM     N522610   3.609  -0.913   6.458 -0.4393 -0.3722  1.8518
    5BIM     N622611   3.292  -0.614   6.427 -0.3321 -0.3090  1.3412
    5BIM    C1922612   3.485  -0.351   6.530  0.0165 -0.0183 -0.0224
    5BIM    C2022613   3.597  -0.422   6.547  0.0111 -0.0145  0.0272
    5BIM    C2122614   3.724  -0.355   6.594  0.1409  0.0973 -0.4674
    5BIM    C2222615   3.826  -0.460   6.603  0.0980  0.0701 -0.2693
    5BIM    C2322616   3.959  -0.446   6.642  0.1822  0.1464 -0.5774
    5BIM    C2422617   4.038  -0.561   6.642  0.1180  0.1007 -0.2988
    5BIM    C2522618   3.984  -0.685   6.604 -0.0259 -0.0171  0.2702
    5BIM    C2622619   3.852  -0.699   6.565 -0.1104 -0.0937  0.5803
    5BIM    C2722620   3.771  -0.584   6.564 -0.0474 -0.0491  0.3054
    5BIM    C2822621   3.628  -0.566   6.529 -0.1066 -0.1061  0.5102
    5BIM    C2922622   3.541  -0.663   6.486 -0.2440 -0.2220  1.0453
    5BIM    C3022623   3.579  -0.800   6.471 -0.3510 -0.3042  1.4869
    5BIM    C3122624   3.404  -0.636   6.454 -0.2917 -0.2689  1.2050
    1BTD     S222625   0.712   4.164   9.140  0.0972  0.2006 -0.0165
    1BTD     N122626   0.880   4.177   9.202  0.0837  0.0217  0.0594
    1BTD     N222627   0.692   3.992   9.188 -0.0622  0.1835 -0.1407
    1BTD     N322628   0.955   3.665   9.399 -0.4115 -0.1747 -0.2570
    1BTD     N422629   1.187   3.893   9.416 -0.2317 -0.3741 -0.0103
    1BTD     C522630   1.038   4.026   9.313 -0.0832 -0.1825  0.0198
    1BTD     C622631   0.911   4.059   9.253 -0.0329 -0.0385 -0.0083
    1BTD     C722632   0.806   3.955   9.245 -0.1146  0.0520 -0.1202
    1BTD     C822633   0.832   3.824   9.299 -0.2424 -0.0058 -0.1986
    1BTD    C1522634   0.957   3.797   9.357 -0.2875 -0.1474 -0.1673
    1BTD    C1622635   1.059   3.897   9.364 -0.2089 -0.2347 -0.0591
    1BTD    C4322636   1.226   3.830   9.545  0.3602  0.2234  0.4051
    1BTD    C4422637   1.374   3.791   9.567  0.2028 -0.3965  0.0937
    1BTD    C4522638   1.411   3.781   9.715  0.3397 -0.0429  0.2996
    1BTD    C4622639   1.386   3.904   9.806  0.4614 -0.3127  0.4444
    1BTD    C4722640   1.415   3.671   9.485  0.2711 -0.6572  0.9276
    1BTD    C4822641   1.568   3.649   9.468 -0.1167 -0.3903  0.0303
    1BTD    C4922642   1.599   3.531   9.395  0.0013  0.1510  1.0988
    1BTD    C5022643   1.753   3.513   9.380  0.6149  0.3280  0.1857
    1BTD    C7522644   1.078   3.571   9.395  0.3541 -0.1911  0.0935
    1BTD    C7622645   1.093   3.454   9.498 -0.1256  0.3559  0.2227
    1BTD    C7722646   1.119   3.488   9.650 -0.1775 -0.2332  0.4197
    1BTD    C7822647   1.027   3.582   9.717  0.4280 -0.0670  0.0106
    1BTD    C7922648   1.205   3.359   9.460 -0.2000  0.8841  0.1349
    1BTD    C8022649   1.186   3.267   9.332  0.1389 -0.2362  0.1079
    1BTD    C8122650   1.296   3.166   9.325 -0.3799  0.7832  1.0055
    1BTD    C8222651   1.435   3.215   9.288 -0.3966 -0.1933  0.1527
    2TTP     S122652   1.238   4.236   9.234 -0.2109  0.0176  0.0788
    2TTP     S522653   1.554   4.009   9.415 -0.4404 -0.0361  0.4127
    2TTP     C122654   1.627   4.150   9.327 -0.3087 -0.1589  0.3258
    2TTP     C222655   1.534   4.228   9.266 -0.2300 -0.1493  0.2174
    2TTP     C322656   1.401   4.180   9.286 -0.2710 -0.0451  0.1993
    2TTP     C422657   1.164   4.095   9.322 -0.3426  0.1403  0.1659
    2TTP    C1722658   1.258   4.017   9.383 -0.4212  0.1307  0.2742
    2TTP    C1822659   1.390   4.065   9.363 -0.3803  0.0265  0.2923
    2TTP    C3222660   1.550   4.350   9.179 -0.4819 -0.1355  0.2922
    2TTP    C3322661   1.514   4.490   9.216 -0.0781 -0.0489 -0.1625
    2TTP    C3422662   1.530   4.574   9.088  0.0143 -0.2134 -0.2014
    2TTP    C3522663   1.496   4.727   9.102 -0.2591  0.1999  0.7587
    2TTP    C3622664   1.593   4.809   9.188  0.1430 -0.1128 -0.0567
    2TTP    C3722665   1.745   4.822   9.149  0.3894 -0.0778 -0.3166
    2TTP    C3822666   1.845   4.887   9.252  0.4371 -0.2010  0.2568
    2TTP    C3922667   1.869   4.825   9.389  0.3758 -0.3475  0.1340
    2TTP    C4022668   1.967   4.900   9.477 -1.0691 -0.3764 -0.1156
    2TTP    C4122669   2.110   4.921   9.430 -0.3735 -0.2679 -0.0790
    2TTP    C4222670   2.195   4.800   9.408 -0.3137 -0.0594  0.5041
    3TTP     S122671   0.593   3.650   9.254  0.1926 -0.1146 -0.0952
    3TTP     S522672   0.791   3.331   9.462 -0.2059 -0.1158  0.2851
    3TTP     C122673   0.626   3.274   9.413 -0.1897 -0.0457  0.1495
    3TTP     C222674   0.555   3.369   9.346 -0.0657 -0.0412  0.0241
    3TTP     C322675   0.629   3.490   9.331  0.0210 -0.0929  0.0305
    3TTP     C422676   0.759   3.707   9.303  0.1765 -0.1846  0.0405
    3TTP    C1722677   0.830   3.612   9.371  0.0524 -0.1891  0.1662
    3TTP    C1822678   0.756   3.490   9.386 -0.0343 -0.1374  0.1595
    3TTP    C3222679   0.413   3.362   9.291 -0.2269  0.1463  0.0881
    3TTP    C3322680   0.364   3.420   9.162  0.7447 -0.2877  0.0936
    3TTP    C3422681   0.204   3.403   9.165  0.2831 -0.1597  0.0987
    3TTP    C3522682   0.133   3.501   9.067 -0.6544  0.1990 -0.0335
    3TTP    C3622683   0.032   3.435   8.975  0.2282  0.2409 -0.8442
    3TTP    C3722684  -0.025   3.531   8.876  0.0684  0.2578  0.0249
    3TTP    C3822685   0.067   3.576   8.763 -0.1216 -0.0743 -0.0135
    3TTP    C3922686   0.104   3.478   8.649  0.3751 -0.2617 -0.4507
    3TTP    C4022687  -0.016   3.436   8.562  0.4113  0.4122  0.2199
    3TTP    C4122688   0.026   3.385   8.424 -0.0542 -0.1479  0.7147
    3TTP    C4222689   0.075   3.491   8.327 -0.0656  0.1849  0.3203
    4BIM     F122690   2.301   3.693   9.423 -0.0398 -0.0867 -0.2873
    4BIM     F222691   2.450   3.920   9.413 -0.0632 -0.0495  0.1638
    4BIM     O122692   1.803   3.894   9.351  0.0157 -0.0811 -0.6537
    4BIM     N522693   2.311   4.390   9.347 -0.0570  0.0081  0.5517
    4BIM     N622694   1.892   4.502   9.292 -0.0089  0.0049  0.1748
    4BIM    C1922695   1.770   4.183   9.315  0.0131 -0.0435 -0.3528
    4BIM    C2022696   1.889   4.123   9.334  0.0001 -0.0464 -0.2780
    4BIM    C2122697   1.898   3.975   9.351  0.0024 -0.0662 -0.4435
    4BIM    C2222698   2.041   3.943   9.369 -0.0142 -0.0641 -0.3064
    4BIM    C2322699   2.099   3.818   9.389 -0.0183 -0.0785 -0.3843
    4BIM    C2422700   2.237   3.814   9.404 -0.0349 -0.0732 -0.2221
    4BIM    C2522701   2.314   3.931   9.398 -0.0469 -0.0540  0.0103
    4BIM    C2622702   2.257   4.056   9.379 -0.0429 -0.0396  0.0894
    4BIM    C2722703   2.117   4.063   9.364 -0.0262 -0.0448 -0.0722
    4BIM    C2822704   2.027   4.178   9.342 -0.0178 -0.0330 -0.0458
    4BIM    C2922705   2.064   4.310   9.331 -0.0253 -0.0135  0.1562
    4BIM    C3022706   2.199   4.354   9.340 -0.0427 -0.0018  0.3731
    4BIM    C3122707   1.969   4.415   9.309 -0.0163 -0.0033  0.1650
    5BIM     F122708   0.759   2.660   9.946 -0.0349 -0.1246 -0.1004
    5BIM     F222709   0.573   2.513   9.813 -0.0943 -0.0873 -0.0591
    5BIM     O122710   0.744   3.122   9.665  0.0894 -0.1678 -0.1783
    5BIM     N522711   0.295   2.630   9.421 -0.0910 -0.0645 -0.0553
    5BIM     N622712   0.321   3.021   9.228  0.0181 -0.1058 -0.1240
    5BIM    C1922713   0.561   3.146   9.438  0.0768 -0.1476 -0.1662
    5BIM    C2022714   0.572   3.035   9.514  0.0479 -0.1382 -0.1483
    5BIM    C2122715   0.669   3.031   9.629  0.0567 -0.1496 -0.1559
    5BIM    C2222716   0.655   2.897   9.690  0.0189 -0.1349 -0.1318
    5BIM    C2322717   0.724   2.846   9.799  0.0122 -0.1385 -0.1292
    5BIM    C2422718   0.694   2.717   9.839 -0.0262 -0.1221 -0.1047
    5BIM    C2522719   0.599   2.641   9.770 -0.0567 -0.1030 -0.0833
    5BIM    C2622720   0.529   2.691   9.660 -0.0502 -0.0994 -0.0856
    5BIM    C2722721   0.558   2.822   9.619 -0.0116 -0.1156 -0.1104
    5BIM    C2822722   0.503   2.904   9.508  0.0050 -0.1168 -0.1197
    5BIM    C2922723   0.407   2.865   9.418 -0.0155 -0.1012 -0.1049
    5BIM    C3022724   0.346   2.736   9.420 -0.0569 -0.0811 -0.0775
    5BIM    C3122725   0.360   2.951   9.314  0.0031 -0.1039 -0.1156
    1BTD     S222726   1.984   7.130   0.234 -0.0760  0.1204  0.1328
    1BTD     N122727   2.052   7.296   0.244 -0.4542  0.2693  0.2840
    1BTD     N222728   1.872   7.169   0.098  0.2331 -0.1566 -0.2049
    1BTD     N322729   1.769   7.548  -0.159  0.1801 -0.4522 -0.6201
    1BTD     N422730   1.991   7.704   0.021 -0.6669  0.0726 -0.0176
    1BTD     C522731   2.018   7.507   0.126 -0.5550  0.1601  0.1192
    1BTD     C622732   1.992   7.368   0.151 -0.3368  0.1130  0.0852
    1BTD     C722733   1.891   7.297   0.069  0.0480 -0.1254 -0.1885
    1BTD     C822734   1.821   7.369  -0.034  0.1952 -0.3045 -0.4146
    1BTD    C1522735   1.850   7.505  -0.055 -0.0287 -0.2502 -0.3717
    1BTD    C1622736   1.947   7.574   0.023 -0.3994 -0.0206 -0.1080
    1BTD    C4322737   1.906   7.821  -0.011 -0.1000 -0.2228  0.2770
    1BTD    C4422738   1.965   7.953  -0.067  0.4459  0.2955 -0.2777
    1BTD    C4522739   2.042   7.929  -0.201  0.6715  0.0960  0.3602
    1BTD    C4622740   2.115   8.036  -0.281  0.7422  0.2066 -0.0998
    1BTD    C4722741   1.872   8.074  -0.055  0.0633 -0.2716  0.1821
    1BTD    C4822742   1.787   8.088   0.082 -0.1260  0.0600  0.1168
    1BTD    C4922743   1.871   8.112   0.210  0.3820  0.2035  1.1905
    1BTD    C5022744   1.776   8.125   0.328 -0.8162  0.4504  0.8913
    1BTD    C7522745   1.804   7.657  -0.255 -0.1798  0.0853  0.2424
    1BTD    C7622746   1.685   7.738  -0.307 -0.7142  0.3349 -0.0241
    1BTD    C7722747   1.596   7.789  -0.187 -0.3697  0.4380  0.0634
    1BTD    C7822748   1.478   7.879  -0.227 -1.0362  0.7479  0.4460
    1BTD    C7922749   1.743   7.848  -0.401  0.3381 -0.0950  0.2221
    1BTD    C8022750   1.843   7.835  -0.514 -0.2970  0.3088  0.0178
    1BTD    C8122751   1.796   7.745  -0.626 -0.3612 -1.2352  0.4283
    1BTD    C8222752   1.914   7.747  -0.723 -0.1247 -0.2291  0.1190
    2TTP     S122753   2.279   7.589   0.254  0.2087 -0.1576  0.2118
    2TTP     S522754   2.228   7.985   0.094  0.1546 -0.3384 -0.2221
    2TTP     C122755   2.390   7.975   0.175  0.1529 -0.2251 -0.2060
    2TTP     C222756   2.416   7.853   0.230  0.1697 -0.1626 -0.0711
    2TTP     C322757   2.308   7.761   0.209  0.1842 -0.2018  0.0245
    2TTP     C422758   2.117   7.598   0.172  0.2103 -0.2708  0.1957
    2TTP    C1722759   2.091   7.721   0.118  0.1936 -0.3332  0.0608
    2TTP    C1822760   2.199   7.812   0.139  0.1791 -0.2941 -0.0348
    2TTP    C3222761   2.537   7.815   0.314  0.5232 -0.3977  0.5241
    2TTP    C3322762   2.519   7.723   0.430 -0.0993  0.5880 -0.1842
    2TTP    C3422763   2.657   7.716   0.499 -0.0914 -0.3504  0.4058
    2TTP    C3522764   2.653   7.645   0.638 -0.2631  0.3607  0.0198
    2TTP    C3622765   2.796   7.627   0.698  0.3986 -0.1374 -0.1379
    2TTP    C3722766   2.883   7.516   0.631 -0.5570 -0.2680 -0.1016
    2TTP    C3822767   3.005   7.489   0.721  0.1102  0.5870  0.0794
    2TTP    C3922768   2.985   7.428   0.865  0.0747 -0.8592  0.1353
    2TTP    C4022769   2.864   7.338   0.882  0.0990  0.0778  0.0075
    2TTP    C4122770   2.853   7.266   1.019  0.7083  0.6346  1.3425
    2TTP    C4222771   2.710   7.198   1.021 -0.3042 -0.2472 -0.0178
    3TTP     S122772   1.637   7.176  -0.185  0.0273 -0.2616  0.0365
    3TTP     S522773   1.512   7.499  -0.441  0.0941 -0.1954  0.0870
    3TTP     C122774   1.431   7.346  -0.497  0.0370 -0.1639  0.0834
    3TTP     C222775   1.465   7.238  -0.421  0.0130 -0.1823  0.0675
    3TTP     C322776   1.556   7.271  -0.316  0.0389 -0.2222  0.0579
    3TTP     C422777   1.719   7.329  -0.130  0.0843 -0.2931  0.0405
    3TTP    C1722778   1.685   7.438  -0.205  0.1084 -0.2747  0.0563
    3TTP    C1822779   1.594   7.404  -0.310  0.0825 -0.2348  0.0660
    3TTP    C3222780   1.412   7.094  -0.438  0.0912  0.4124  0.5505
    3TTP    C3322781   1.316   7.032  -0.335  0.4068 -0.1446  0.4748
    3TTP    C3422782   1.205   7.120  -0.274  0.0758  0.0997  0.0304
    3TTP    C3522783   1.221   7.143  -0.127 -0.5718 -0.0470  0.0466
    3TTP    C3622784   1.190   7.021  -0.036 -0.2403  0.4996  0.0559
    3TTP    C3722785   1.245   7.039   0.102 -0.6157  0.1570  0.0284
    3TTP    C3822786   1.238   6.917   0.191  0.0031  0.6418  0.6996
    3TTP    C3922787   1.329   6.916   0.311 -0.4079 -0.5474 -0.2585
    3TTP    C4022788   1.476   6.941   0.286  0.0042 -0.4148 -0.2699
    3TTP    C4122789   1.558   6.927   0.410 -0.0224 -0.0339 -0.1236
    3TTP    C4222790   1.700   6.963   0.372 -0.3267 -0.2944  0.7954
    4BIM     F122791   2.504   8.641  -0.285  0.0674 -0.0746 -0.1752
    4BIM     F222792   2.712   8.710  -0.125 -0.1133  0.0131  0.0224
    4BIM     O122793   2.352   8.173  -0.059  0.0688 -0.1545 -0.3393
    4BIM     N522794   2.903   8.477   0.268 -0.3719  0.0815  0.1898
    4BIM     N622795   2.742   8.098   0.413 -0.3343  0.0014  0.0218
    4BIM    C1922796   2.496   8.074   0.176 -0.1032 -0.0997 -0.2086
    4BIM    C2022797   2.527   8.189   0.112 -0.0965 -0.0827 -0.1751
    4BIM    C2122798   2.448   8.233  -0.008 -0.0056 -0.1132 -0.2470
    4BIM    C2222799   2.506   8.361  -0.052 -0.0228 -0.0844 -0.1862
    4BIM    C2322800   2.467   8.440  -0.159  0.0407 -0.0975 -0.2193
    4BIM    C2422801   2.538   8.557  -0.181  0.0083 -0.0639 -0.1474
    4BIM    C2522802   2.645   8.593  -0.098 -0.0848 -0.0190 -0.0461
    4BIM    C2622803   2.685   8.514   0.009 -0.1485 -0.0057 -0.0119
    4BIM    C2722804   2.614   8.395   0.033 -0.1170 -0.0391 -0.0835
    4BIM    C2822805   2.631   8.291   0.137 -0.1660 -0.0362 -0.0728
    4BIM    C2922806   2.726   8.290   0.237 -0.2581  0.0021  0.0153
    4BIM    C3022807   2.823   8.393   0.254 -0.3204  0.0455  0.1109
    4BIM    C3122808   2.734   8.184   0.333 -0.2996  0.0014  0.0184
    5BIM     F122809   0.848   7.838  -0.812  0.3619  0.3244 -0.1853
    5BIM     F222810   0.767   7.630  -0.967  0.2016  0.3022 -0.0725
    5BIM     O122811   1.253   7.608  -0.536  0.2018  0.1690 -0.0787
    5BIM     N522812   0.939   7.167  -0.994 -0.1429  0.1594  0.1657
    5BIM     N622813   1.272   7.029  -0.747 -0.2358  0.0424  0.2260
    5BIM    C1922814   1.320   7.328  -0.586 -0.0082  0.0925  0.0668
    5BIM    C2022815   1.221   7.394  -0.650  0.0383  0.1326  0.0358
    5BIM    C2122816   1.193   7.538  -0.618  0.1465  0.1702 -0.0393
    5BIM    C2222817   1.080   7.578  -0.704  0.1732  0.2084 -0.0567
    5BIM    C2322818   1.018   7.703  -0.711  0.2654  0.2509 -0.1202
    5BIM    C2422819   0.913   7.717  -0.800  0.2728  0.2819 -0.1239
    5BIM    C2522820   0.872   7.610  -0.880  0.1901  0.2703 -0.0660
    5BIM    C2622821   0.933   7.485  -0.874  0.0979  0.2278 -0.0024
    5BIM    C2722822   1.039   7.469  -0.784  0.0890  0.1962  0.0024
    5BIM    C2822823   1.124   7.351  -0.754  0.0028  0.1490  0.0618
    5BIM    C2922824   1.115   7.226  -0.811 -0.0918  0.1254  0.1276
    5BIM    C3022825   1.019   7.194  -0.912 -0.1196  0.1441  0.1483
    5BIM    C3122826   1.202   7.119  -0.776 -0.1705  0.0799  0.1814
    1BTD     S222827   7.411   7.399   1.607  0.0907  0.0211 -0.1172
    1BTD     N122828   7.524   7.538   1.593  0.0329  0.0900  0.0900
    1BTD     N222829   7.519   7.303   1.714  0.1144 -0.0777 -0.2291
    1BTD     N322830   7.943   7.360   1.907  0.0583 -0.1551 -0.0831
    1BTD     N422831   7.949   7.649   1.758 -0.0422  0.0516  0.3101
    1BTD     C522832   7.746   7.593   1.681 -0.0050  0.0676  0.2001
    1BTD     C622833   7.631   7.508   1.665  0.0341  0.0384  0.0663
    1BTD     C722834   7.628   7.376   1.733  0.0799 -0.0556 -0.1123
    1BTD     C822835   7.741   7.336   1.813  0.0840 -0.1158 -0.1481
    1BTD    C1522836   7.851   7.423   1.826  0.0446 -0.0840 -0.0130
    1BTD    C1622837   7.854   7.549   1.760  0.0007  0.0061  0.1591
    1BTD    C4322838   8.097   7.647   1.778  0.2352  0.1353 -0.0290
    1BTD    C4422839   8.179   7.609   1.653  0.1988  0.2048  0.2329
    1BTD    C4522840   8.155   7.480   1.573  0.4604 -0.2562 -0.3870
    1BTD    C4622841   8.225   7.464   1.440 -0.0192  0.7009  0.0979
    1BTD    C4722842   8.328   7.641   1.683 -0.0338 -0.4844  0.1583
    1BTD    C4822843   8.374   7.784   1.735 -0.2743  0.6934 -0.3579
    1BTD    C4922844   8.523   7.791   1.775  0.1633  0.0971  0.2240
    1BTD    C5022845   8.572   7.935   1.807 -0.3886  0.1223 -0.0401
    1BTD    C7522846   8.039   7.427   1.995 -0.0745 -0.4088 -0.0612
    1BTD    C7622847   8.178   7.369   2.035 -0.1823 -0.3022  0.2565
    1BTD    C7722848   8.265   7.338   1.912 -0.1027  0.2939  0.2008
    1BTD    C7822849   8.386   7.247   1.932 -0.7539  0.2467 -0.2298
    1BTD    C7922850   8.254   7.457   2.127  0.0889 -0.2200 -0.1220
    1BTD    C8022851   8.290   7.599   2.095  0.1753 -0.5408 -0.1112
    1BTD    C8122852   8.381   7.657   2.198 -0.5608  0.8069 -0.3751
    1BTD    C8222853   8.423   7.800   2.179 -0.3935  0.4555  0.1297
    2TTP     S122854   7.712   7.846   1.514 -0.0955 -0.1282 -0.0953
    2TTP     S522855   8.081   7.995   1.677 -0.2251  0.0124  0.0707
    2TTP     C122856   8.013   8.120   1.564 -0.0902 -0.1222 -0.1586
    2TTP     C222857   7.895   8.081   1.507 -0.0424 -0.1736 -0.2234
    2TTP     C322858   7.854   7.952   1.551 -0.1103 -0.1084 -0.0943
    2TTP     C422859   7.780   7.721   1.628 -0.2302  0.0064  0.1340
    2TTP    C1722860   7.897   7.760   1.685 -0.2782  0.0578  0.1987
    2TTP    C1822861   7.939   7.890   1.641 -0.2103 -0.0074  0.0696
    2TTP    C3222862   7.798   8.155   1.417 -0.0554 -0.4791 -0.1279
    2TTP    C3322863   7.771   8.083   1.282  0.2376 -0.5297 -0.0177
    2TTP    C3422864   7.886   8.035   1.202  0.7281 -0.0173 -0.1070
    2TTP    C3522865   7.839   7.940   1.093 -0.2225  0.3657  0.1047
    2TTP    C3622866   7.948   7.886   1.003  0.2799 -0.8736  0.0489
    2TTP    C3722867   7.896   7.771   0.917 -0.5086  0.0273 -0.0883
    2TTP    C3822868   8.004   7.724   0.821  0.2414 -0.8017  0.3445
    2TTP    C3922869   8.009   7.571   0.799 -0.1063 -0.3899 -0.5613
    2TTP    C4022870   8.016   7.483   0.925 -0.2548 -0.1498  0.4856
    2TTP    C4122871   8.042   7.339   0.895 -0.0033 -0.5826  0.3017
    2TTP    C4222872   8.037   7.252   1.012  0.0451  0.6640  0.1026
    3TTP     S122873   7.690   7.060   1.904 -0.1474 -0.2492  0.1468
    3TTP     S522874   8.090   7.043   2.060 -0.1266  0.2084  0.1456
    3TTP     C122875   8.013   6.880   2.082 -0.0502  0.2096  0.4388
    3TTP     C222876   7.885   6.876   2.035 -0.0522  0.0683  0.4564
    3TTP     C322877   7.843   7.001   1.980 -0.1140 -0.0460  0.2390
    3TTP     C422878   7.767   7.223   1.883 -0.2236 -0.2505 -0.1463
    3TTP    C1722879   7.896   7.228   1.930 -0.2218 -0.1093 -0.1640
    3TTP    C1822880   7.937   7.102   1.984 -0.1600  0.0051  0.0534
    3TTP    C3222881   7.794   6.756   2.032 -0.0540  0.0342  0.2657
    3TTP    C3322882   7.675   6.766   2.131  0.1404  0.1932 -0.4300
    3TTP    C3422883   7.597   6.632   2.165 -0.0534 -0.0603  0.1948
    3TTP    C3522884   7.527   6.566   2.048 -0.6027 -0.2037 -0.1012
    3TTP    C3622885   7.442   6.452   2.092  0.3948 -0.1049 -0.5086
    3TTP    C3722886   7.371   6.377   1.978 -0.0556  0.4158  0.0204
    3TTP    C3822887   7.252   6.300   2.020 -0.1246  0.1315  0.0432
    3TTP    C3922888   7.167   6.249   1.904 -0.0662 -0.1817  0.1244
    3TTP    C4022889   7.037   6.181   1.937  0.0482 -0.3670 -0.3638
    3TTP    C4122890   6.975   6.107   1.821 -0.4511  0.2839 -0.1675
    3TTP    C4222891   6.830   6.084   1.804  0.1252  0.6013 -0.0109
    4BIM     F122892   8.699   8.523   1.755 -0.1485 -0.0823  0.0858
    4BIM     F222893   8.600   8.740   1.624  0.1957 -0.1690 -0.3229
    4BIM     O122894   8.297   8.168   1.681 -0.3731  0.1700  0.0908
    4BIM     N522895   8.172   8.800   1.384  0.5298 -0.1142 -0.9070
    4BIM     N622896   7.878   8.478   1.353  0.2848  0.1004 -0.8206
    4BIM    C1922897   8.060   8.249   1.530 -0.1246  0.1767 -0.2979
    4BIM    C2022898   8.165   8.330   1.554 -0.0813  0.1163 -0.2832
    4BIM    C2122899   8.283   8.281   1.633 -0.2165  0.1171 -0.0778
    4BIM    C2222900   8.379   8.393   1.640 -0.1264  0.0436 -0.1170
    4BIM    C2322901   8.503   8.396   1.702 -0.1976  0.0181  0.0262
    4BIM    C2422902   8.575   8.514   1.695 -0.0862 -0.0537 -0.0474
    4BIM    C2522903   8.524   8.626   1.628  0.0907 -0.0985 -0.2581
    4BIM    C2622904   8.400   8.624   1.565  0.1631 -0.0732 -0.4018
    4BIM    C2722905   8.326   8.505   1.571  0.0522 -0.0007 -0.3302
    4BIM    C2822906   8.192   8.471   1.516  0.0870  0.0422 -0.4407
    4BIM    C2922907   8.110   8.554   1.443  0.2449  0.0179 -0.6491
    4BIM    C3022908   8.144   8.689   1.411  0.4008 -0.0546 -0.7902
    4BIM    C3122909   7.983   8.512   1.394  0.2658  0.0634 -0.7423
    5BIM     F122910   8.674   6.739   2.551  0.0548  0.1416  0.1960
    5BIM     F222911   8.593   6.481   2.578  0.2592  0.0700  0.1305
    5BIM     O122912   8.286   6.935   2.228 -0.0615 -0.1011  0.1874
    5BIM     N522913   8.200   6.249   2.387  0.4694 -0.2061  0.0303
    5BIM     N622914   7.913   6.455   2.129  0.3376 -0.3814  0.0368
    5BIM    C1922915   8.071   6.758   2.139  0.0923 -0.2558  0.1218
    5BIM    C2022916   8.172   6.719   2.219  0.1135 -0.1918  0.1265
    5BIM    C2122917   8.279   6.816   2.261  0.0305 -0.1143  0.1611
    5BIM    C2222918   8.372   6.741   2.347  0.0796 -0.0579  0.1572
    5BIM    C2322919   8.487   6.789   2.409  0.0331  0.0215  0.1822
    5BIM    C2422920   8.559   6.699   2.486  0.0956  0.0630  0.1725
    5BIM    C2522921   8.517   6.566   2.500  0.2007  0.0259  0.1388
    5BIM    C2622922   8.403   6.518   2.438  0.2475 -0.0533  0.1137
    5BIM    C2722923   8.328   6.607   2.360  0.1855 -0.0963  0.1230
    5BIM    C2822924   8.203   6.588   2.282  0.2105 -0.1801  0.1028
    5BIM    C2922925   8.131   6.472   2.270  0.3059 -0.2360  0.0687
    5BIM    C3022926   8.169   6.350   2.334  0.3955 -0.2193  0.0477
    5BIM    C3122927   8.011   6.463   2.193  0.3228 -0.3155  0.0514
    1BTD     S222928   3.430   3.155   5.626  0.0213 -0.1066  0.0566
    1BTD     N122929   3.281   3.227   5.556  0.1497 -0.0461 -0.1563
    1BTD     N222930   3.355   2.996   5.661 -0.1772  0.0246  0.2335
    1BTD     N322931   2.933   2.799   5.605 -0.3501  0.4009  0.2095
    1BTD     N422932   2.841   3.083   5.475  0.0528  0.3138 -0.2708
    1BTD     C522933   3.053   3.148   5.515  0.0941  0.1429 -0.2103
    1BTD     C622934   3.188   3.133   5.562  0.0434  0.0630 -0.0882
    1BTD     C722935   3.229   3.003   5.621 -0.1396  0.1025  0.1301
    1BTD     C822936   3.134   2.897   5.630 -0.2627  0.2199  0.2152
    1BTD    C1522937   3.002   2.917   5.584 -0.2071  0.2951  0.0899
    1BTD    C1622938   2.962   3.041   5.527 -0.0307  0.2570 -0.1205
    1BTD    C4322939   2.709   3.033   5.515  0.0856 -0.9207  0.0047
    1BTD    C4422940   2.588   3.034   5.417  0.3807 -0.2430 -0.1362
    1BTD    C4522941   2.451   2.994   5.471 -0.3446  0.6948 -0.6769
    1BTD    C4622942   2.405   3.079   5.593  0.6841 -0.3892  0.2576
    1BTD    C4722943   2.618   2.968   5.282 -0.2110  0.0698 -0.3534
    1BTD    C4822944   2.530   3.011   5.167  0.0226  0.4828  0.6748
    1BTD    C4922945   2.558   2.930   5.036  0.0707 -0.7710 -0.2360
    1BTD    C5022946   2.468   2.956   4.915  0.1032 -0.2855 -0.4005
    1BTD    C7522947   2.820   2.747   5.529 -0.0521 -0.1250  0.5458
    1BTD    C7622948   2.708   2.653   5.569 -0.2401 -0.4472 -0.5833
    1BTD    C7722949   2.645   2.690   5.706  0.0238 -0.1568 -0.6222
    1BTD    C7822950   2.525   2.605   5.759 -0.0880  0.2257  0.7403
    1BTD    C7922951   2.615   2.609   5.452 -0.2163  0.5353 -0.0449
    1BTD    C8022952   2.668   2.587   5.307 -0.1478  0.2032 -0.2526
    1BTD    C8122953   2.795   2.502   5.298  0.0866 -0.3190  0.3442
    1BTD    C8222954   2.781   2.349   5.342  0.0512 -0.4603  0.3518
    2TTP     S122955   3.023   3.420   5.395  0.0747  0.3188  0.1184
    2TTP     S522956   2.607   3.344   5.321  0.1767 -0.2254  0.0966
    2TTP     C122957   2.646   3.512   5.265 -0.0458 -0.1651  0.1214
    2TTP     C222958   2.777   3.546   5.284 -0.0904  0.0065  0.1295
    2TTP     C322959   2.851   3.440   5.345  0.0495  0.0965  0.1165
    2TTP     C422960   2.984   3.252   5.452  0.2973  0.2585  0.0936
    2TTP    C1722961   2.854   3.218   5.432  0.3419  0.0869  0.0856
    2TTP    C1822962   2.779   3.324   5.372  0.2019 -0.0032  0.0985
    2TTP    C3222963   2.852   3.673   5.248  0.0941 -0.1654  0.1441
    2TTP    C3322964   2.898   3.764   5.365  0.5003 -0.0504 -0.4776
    2TTP    C3422965   2.951   3.909   5.349 -0.3061  0.9381  0.7467
    2TTP    C3522966   3.088   3.916   5.271  0.1349  0.4145 -0.2485
    2TTP    C3622967   3.142   4.056   5.295  0.1394  0.3260  0.0851
    2TTP    C3722968   3.262   4.070   5.207  0.2863 -0.0773 -0.5485
    2TTP    C3822969   3.319   4.205   5.233  0.0268 -0.2664  0.5022
    2TTP    C3922970   3.381   4.280   5.111  0.6115 -0.6106  0.1259
    2TTP    C4022971   3.448   4.417   5.144  0.5552  0.2491  0.6191
    2TTP    C4122972   3.484   4.491   5.013 -0.4297  0.1356 -0.6148
    2TTP    C4222973   3.587   4.599   5.045 -0.4507 -0.7766  0.5062
    3TTP     S122974   3.272   2.645   5.738  0.1058  0.0202 -0.0715
    3TTP     S522975   2.897   2.435   5.714  0.0509  0.1191 -0.0867
    3TTP     C122976   3.025   2.320   5.775  0.0432  0.0534 -0.1945
    3TTP     C222977   3.148   2.378   5.786  0.0597  0.0189 -0.1962
    3TTP     C322978   3.146   2.516   5.747  0.0790  0.0433 -0.1124
    3TTP     C422979   3.144   2.760   5.677  0.1134  0.0859  0.0364
    3TTP    C1722980   3.021   2.702   5.666  0.0970  0.1204  0.0380
    3TTP    C1822981   3.023   2.564   5.706  0.0777  0.0961 -0.0458
    3TTP    C3222982   3.284   2.306   5.780  0.0732  0.4127 -0.0614
    3TTP    C3322983   3.364   2.312   5.910  1.0257 -0.1580  0.0464
    3TTP    C3422984   3.501   2.246   5.905  0.3481  0.2056  0.5626
    3TTP    C3522985   3.548   2.206   6.038 -0.5093  0.0125  0.0669
    3TTP    C3622986   3.673   2.119   6.022  0.8884  0.4380 -0.4237
    3TTP    C3722987   3.727   2.104   6.162  0.6139  0.0653 -0.9048
    3TTP    C3822988   3.845   2.010   6.165 -0.7336 -0.1255  0.6636
    3TTP    C3922989   3.914   1.972   6.295 -0.3750 -0.0884 -0.4050
    3TTP    C4022990   4.046   1.898   6.305 -0.2719  0.7841  0.4446
    3TTP    C4122991   4.086   1.846   6.442 -0.1979  0.1984 -1.1432
    3TTP    C4222992   4.005   1.724   6.478  0.4326 -0.4553 -0.5581
    4BIM     F122993   1.922   3.459   4.883  0.1430 -0.1565 -0.4799
    4BIM     F222994   1.948   3.719   4.809 -0.1613  0.1027  0.2990
    4BIM     O122995   2.379   3.387   5.165  0.1472 -0.4165 -0.5528
    4BIM     N522996   2.311   4.042   4.903 -0.5958  0.2900  1.3667
    4BIM     N622997   2.663   3.933   5.138 -0.5312  0.0347  1.1530
    4BIM    C1922998   2.566   3.610   5.194 -0.1421 -0.2611  0.1655
    4BIM    C2022999   2.450   3.618   5.126 -0.1312 -0.2059  0.1533
    4BIM    C2123000   2.359   3.499   5.116  0.0216 -0.2924 -0.2273
    4BIM    C2223001   2.243   3.542   5.035 -0.0077 -0.2009 -0.1360
    4BIM    C2323002   2.132   3.466   4.999  0.0989 -0.2345 -0.3951
    4BIM    C2423003   2.034   3.528   4.923  0.0440 -0.1303 -0.2405
    4BIM    C2523004   2.048   3.662   4.885 -0.1129  0.0030  0.1610
    4BIM    C2623005   2.159   3.739   4.920 -0.2198  0.0374  0.4209
    4BIM    C2723006   2.258   3.677   4.998 -0.1664 -0.0666  0.2699
    4BIM    C2823007   2.386   3.729   5.052 -0.2486 -0.0645  0.4637
    4BIM    C2923008   2.436   3.857   5.036 -0.4037  0.0473  0.8559
    4BIM    C3023009   2.367   3.958   4.963 -0.5088  0.1804  1.1355
    4BIM    C3123010   2.560   3.898   5.092 -0.4730  0.0398  1.0171
    5BIM     F123011   2.342   1.902   5.953  0.0045 -0.2247  0.0662
    5BIM     F223012   2.492   1.676   5.979  0.0581 -0.2412 -0.3715
    5BIM     O123013   2.726   2.266   5.835 -0.1295  0.0174  0.3737
    5BIM     N523014   2.980   1.611   5.932  0.0396 -0.0924 -0.7817
    5BIM     N623015   3.250   1.940   5.835 -0.0759  0.1000 -0.4531
    5BIM    C1923016   3.005   2.179   5.818 -0.1260  0.0875  0.0648
    5BIM    C2023017   2.903   2.097   5.847 -0.0943  0.0273  0.0045
    5BIM    C2123018   2.762   2.149   5.854 -0.0985 -0.0056  0.1729
    5BIM    C2223019   2.676   2.033   5.887 -0.0587 -0.0700  0.0525
    5BIM    C2323020   2.538   2.032   5.904 -0.0478 -0.1180  0.1386
    5BIM    C2423021   2.479   1.911   5.935 -0.0082 -0.1752 -0.0078
    5BIM    C2523022   2.556   1.794   5.948  0.0192 -0.1835 -0.2334
    5BIM    C2623023   2.694   1.795   5.931  0.0086 -0.1358 -0.3204
    5BIM    C2723024   2.756   1.917   5.900 -0.0313 -0.0777 -0.1746
    5BIM    C2823025   2.898   1.951   5.876 -0.0521 -0.0182 -0.2130
    5BIM    C2923026   3.005   1.865   5.880 -0.0353 -0.0075 -0.4123
    5BIM    C3023027   2.991   1.725   5.908  0.0058 -0.0542 -0.6148
    5BIM    C3123028   3.139   1.907   5.855 -0.0579  0.0516 -0.4336
    1BTD     S223029   8.517   4.176   5.255 -0.1672 -0.0975 -0.1091
    1BTD     N123030   8.670   4.139   5.343 -0.0770 -0.0706 -0.2522
    1BTD     N223031   8.497   4.010   5.190 -0.3240 -0.1601  0.0993
    1BTD     N323032   8.730   3.603   5.218 -0.4811 -0.2393  0.2652
    1BTD     N423033   8.943   3.762   5.406 -0.1771 -0.1290 -0.1682
    1BTD     C523034   8.810   3.940   5.374 -0.1333 -0.1024 -0.2033
    1BTD     C623035   8.696   4.011   5.321 -0.1640 -0.1079 -0.1433
    1BTD     C723036   8.599   3.939   5.236 -0.3023 -0.1578  0.0536
    1BTD     C823037   8.621   3.799   5.207 -0.4025 -0.2001  0.1807
    1BTD    C1523038   8.734   3.734   5.261 -0.3670 -0.1931  0.1157
    1BTD    C1623039   8.827   3.804   5.343 -0.2344 -0.1449 -0.0740
    1BTD    C4323040   9.033   3.658   5.351 -0.1179  0.8339 -0.2835
    1BTD    C4423041   9.131   3.572   5.437 -0.2064 -0.0083  0.0556
    1BTD    C4523042   9.223   3.489   5.354 -0.4946  0.1827  0.3442
    1BTD    C4623043   9.320   3.555   5.249  0.8089 -0.7146  0.4956
    1BTD    C4723044   9.062   3.501   5.554  0.7203 -0.2427 -0.0508
    1BTD    C4823045   9.146   3.427   5.654  0.4585 -0.3813  0.3626
    1BTD    C4923046   9.057   3.325   5.722 -0.7548  0.0396 -0.1674
    1BTD    C5023047   9.138   3.216   5.787 -0.5440  0.0000 -0.7242
    1BTD    C7523048   8.771   3.491   5.307 -0.8429  0.1979 -0.3683
    1BTD    C7623049   8.800   3.344   5.262  0.3373 -0.0985  0.1141
    1BTD    C7723050   8.800   3.249   5.381 -0.4878 -0.2231 -0.8009
    1BTD    C7823051   8.664   3.250   5.470 -0.2048  0.4000  0.3508
    1BTD    C7923052   8.915   3.325   5.158 -0.1990 -1.0863  0.6092
    1BTD    C8023053   8.946   3.182   5.111 -0.1583 -0.5713 -0.1712
    1BTD    C8123054   9.031   3.181   4.982 -0.5582  0.2635  0.7965
    1BTD    C8223055   9.069   3.041   4.932 -0.2852  0.2176  0.2889
    2TTP     S123056   8.985   4.128   5.534 -0.0026  0.1775 -0.2464
    2TTP     S523057   9.243   3.801   5.642  0.0093  0.2463 -0.0653
    2TTP     C123058   9.299   3.951   5.730 -0.0582  0.2737 -0.0690
    2TTP     C223059   9.223   4.060   5.702 -0.0658  0.2540 -0.1252
    2TTP     C323060   9.117   4.030   5.610 -0.0188  0.2166 -0.1673
    2TTP     C423061   8.929   3.979   5.447  0.0648  0.1499 -0.2427
    2TTP    C1723062   9.006   3.869   5.475  0.0724  0.1696 -0.1867
    2TTP    C1823063   9.111   3.899   5.567  0.0255  0.2070 -0.1445
    2TTP    C3223064   9.240   4.201   5.755  0.4887  0.0133  1.0665
    2TTP    C3323065   9.255   4.304   5.643  0.3048 -0.5794  0.8829
    2TTP    C3423066   9.271   4.444   5.699 -0.2558 -1.1255  0.1184
    2TTP    C3523067   9.306   4.552   5.591  0.3285  0.4877  0.1458
    2TTP    C3623068   9.329   4.693   5.641  0.2213  0.3835  0.8513
    2TTP    C3723069   9.423   4.707   5.753  0.1229  0.0383 -0.0890
    2TTP    C3823070   9.569   4.744   5.708  0.4857  0.3720 -0.3888
    2TTP    C3923071   9.583   4.887   5.648  0.0899  0.3721  0.7094
    2TTP    C4023072   9.612   4.999   5.743 -0.3807 -0.7854  0.2647
    2TTP    C4123073   9.578   5.137   5.695 -0.5212 -0.0355  0.1843
    2TTP    C4223074   9.553   5.232   5.814 -0.6396 -0.1666  0.6450
    3TTP     S123075   8.408   3.701   5.018  0.0424  0.1089  0.3508
    3TTP     S523076   8.608   3.321   5.002  0.2279  0.2266 -0.2041
    3TTP     C123077   8.468   3.317   4.886  0.2519  0.3396 -0.2364
    3TTP     C223078   8.398   3.435   4.884  0.1960  0.3099 -0.0669
    3TTP     C323079   8.453   3.531   4.974  0.1321  0.1969  0.0945
    3TTP     C423080   8.549   3.705   5.134  0.0186 -0.0042  0.3830
    3TTP    C1723081   8.618   3.587   5.136  0.0744  0.0255  0.2137
    3TTP    C1823082   8.564   3.491   5.046  0.1380  0.1386  0.0522
    3TTP    C3223083   8.274   3.472   4.811  1.4966 -0.2081  0.8054
    3TTP    C3323084   8.145   3.448   4.880 -0.0415 -0.1687  0.0371
    3TTP    C3423085   8.028   3.479   4.798 -0.6158  0.4400 -0.3949
    3TTP    C3523086   7.888   3.434   4.854 -0.5588 -0.5914 -0.3209
    3TTP    C3623087   7.850   3.468   4.997 -0.6805 -0.3842  0.2193
    3TTP    C3723088   7.878   3.604   5.059  0.2209  0.3716  0.1901
    3TTP    C3823089   7.850   3.729   4.974 -0.1144  0.0440  0.5730
    3TTP    C3923090   7.886   3.870   5.031  0.8324  0.0176 -0.5928
    3TTP    C4023091   8.034   3.879   5.051  0.1080 -0.0651 -0.1115
    3TTP    C4123092   8.066   4.021   5.102 -0.7262 -0.1173  0.1301
    3TTP    C4223093   8.205   4.070   5.098 -0.0004  0.3986  0.5906
    4BIM     F123094   9.801   3.418   6.099  0.2942  0.0347 -0.2936
    4BIM     F223095   9.938   3.629   6.203 -0.0088  0.0363  0.1031
    4BIM     O123096   9.417   3.674   5.816  0.2015  0.0188 -0.1819
    4BIM     N523097   9.860   4.115   6.152 -0.5102  0.0271  0.7528
    4BIM     N623098   9.532   4.273   5.910 -0.5214  0.0143  0.7603
    4BIM    C1923099   9.411   3.967   5.816 -0.1209  0.0146  0.2367
    4BIM    C2023100   9.502   3.894   5.883 -0.0858  0.0186  0.1931
    4BIM    C2123101   9.499   3.744   5.878  0.0832  0.0205 -0.0259
    4BIM    C2223102   9.611   3.697   5.961  0.0792  0.0248 -0.0182
    4BIM    C2323103   9.648   3.565   5.987  0.2067  0.0278 -0.1832
    4BIM    C2423104   9.759   3.546   6.069  0.1736  0.0317 -0.1379
    4BIM    C2523105   9.829   3.655   6.123  0.0175  0.0324  0.0666
    4BIM    C2623106   9.792   3.786   6.097 -0.1104  0.0294  0.2321
    4BIM    C2723107   9.681   3.808   6.015 -0.0794  0.0256  0.1892
    4BIM    C2823108   9.616   3.933   5.969 -0.1869  0.0218  0.3271
    4BIM    C2923109   9.656   4.062   5.999 -0.3488  0.0213  0.5385
    4BIM    C3023110   9.768   4.091   6.083 -0.4370  0.0246  0.6557
    4BIM    C3123111   9.587   4.177   5.950 -0.4432  0.0175  0.6593
    5BIM     F123112   8.887   2.663   4.621  0.0598  0.2791  0.3088
    5BIM     F223113   8.650   2.544   4.558  0.1545  0.2056  0.0874
    5BIM     O123114   8.715   3.142   4.804 -0.2639  0.2011  0.2117
    5BIM     N523115   8.188   2.715   4.599  0.0601  0.0443 -0.2998
    5BIM     N623116   8.101   3.114   4.755 -0.2122 -0.0017 -0.3310
    5BIM    C1923117   8.428   3.199   4.810 -0.2884  0.1032 -0.0341
    5BIM    C2023118   8.481   3.083   4.766 -0.2108  0.1256 -0.0011
    5BIM    C2123119   8.629   3.061   4.766 -0.2031  0.1760  0.1271
    5BIM    C2223120   8.652   2.926   4.713 -0.1106  0.1895  0.1317
    5BIM    C2323121   8.774   2.861   4.694 -0.0720  0.2328  0.2314
    5BIM    C2423122   8.770   2.732   4.642  0.0172  0.2372  0.2139
    5BIM    C2523123   8.648   2.671   4.610  0.0661  0.1993  0.0999
    5BIM    C2623124   8.526   2.736   4.628  0.0279  0.1560 -0.0001
    5BIM    C2723125   8.528   2.866   4.681 -0.0625  0.1508  0.0160
    5BIM    C2823126   8.418   2.960   4.712 -0.1223  0.1101 -0.0702
    5BIM    C2923127   8.283   2.937   4.695 -0.0992  0.0663 -0.1911
    5BIM    C3023128   8.231   2.815   4.642 -0.0119  0.0545 -0.2505
    5BIM    C3123129   8.184   3.034   4.728 -0.1616  0.0291 -0.2674
    1BTD     S223130   0.820   2.022   5.348  0.0929 -0.2511  0.1404
    1BTD     N123131   0.766   2.191   5.373  0.0237 -0.2344 -0.1190
    1BTD     N223132   0.974   2.042   5.440  0.0248 -0.0842  0.2191
    1BTD     N323133   1.189   2.389   5.671 -0.2387  0.2865 -0.0889
    1BTD     N423134   0.934   2.573   5.589 -0.2400  0.1014 -0.5051
    1BTD     C523135   0.857   2.389   5.487 -0.1140 -0.0569 -0.3157
    1BTD     C623136   0.861   2.251   5.445 -0.0430 -0.1115 -0.1329
    1BTD     C723137   0.977   2.167   5.482 -0.0425 -0.0274  0.0564
    1BTD     C823138   1.083   2.225   5.560 -0.1128  0.1071  0.0533
    1BTD    C1523139   1.075   2.360   5.599 -0.1809  0.1563 -0.1293
    1BTD    C1623140   0.963   2.441   5.563 -0.1814  0.0754 -0.3115
    1BTD    C4323141   1.035   2.672   5.637  0.5564 -0.8118 -0.1699
    1BTD    C4423142   1.006   2.815   5.698  0.0456 -0.7567  0.4241
    1BTD    C4523143   0.928   2.821   5.832  0.0878 -0.3516 -0.0724
    1BTD    C4623144   1.003   2.802   5.965  0.3336  0.5098 -0.8034
    1BTD    C4723145   1.131   2.903   5.686  0.2029  0.1114  0.0820
    1BTD    C4823146   1.118   3.056   5.707  0.0085  0.9083 -0.6057
    1BTD    C4923147   1.027   3.146   5.611 -0.6254  0.5099 -0.2869
    1BTD    C5023148   1.025   3.111   5.463 -0.4692  0.8978  0.2057
    1BTD    C7523149   1.188   2.469   5.796 -0.5222  0.1676 -0.3292
    1BTD    C7623150   1.314   2.544   5.858  0.1506  0.8088  0.0107
    1BTD    C7723151   1.283   2.607   5.996 -0.7475 -0.3794  0.2749
    1BTD    C7823152   1.244   2.526   6.115 -0.0388  0.4294  0.2616
    1BTD    C7923153   1.384   2.635   5.756 -0.6500  0.3896 -0.5013
    1BTD    C8023154   1.527   2.667   5.803 -0.2367  0.4309 -0.0288
    1BTD    C8123155   1.601   2.790   5.748 -0.0645  0.4211 -0.2364
    1BTD    C8223156   1.528   2.924   5.762 -0.4555  0.0521 -0.1152
    2TTP     S123157   0.629   2.539   5.342  0.0044  0.2239 -0.1434
    2TTP     S523158   0.740   2.897   5.552 -0.4920  0.2793  0.0269
    2TTP     C123159   0.600   2.935   5.443 -0.2933  0.2293 -0.2488
    2TTP     C223160   0.557   2.827   5.372 -0.1283  0.2092 -0.3177
    2TTP     C323161   0.634   2.710   5.400 -0.1529  0.2327 -0.1552
    2TTP     C423162   0.770   2.501   5.451 -0.1943  0.2739  0.1323
    2TTP    C1723163   0.812   2.609   5.522 -0.3593  0.2940  0.2014
    2TTP    C1823164   0.735   2.726   5.493 -0.3347  0.2707  0.0387
    2TTP    C3223165   0.455   2.834   5.260 -0.2612  0.2273  0.3063
    2TTP    C3323166   0.339   2.737   5.278 -0.0822 -0.3852 -0.0854
    2TTP    C3423167   0.253   2.744   5.157 -0.0900  0.5211  1.0399
    2TTP    C3523168   0.117   2.669   5.153 -0.4465  1.0178 -0.1497
    2TTP    C3623169   0.009   2.709   5.258 -0.2977  0.5062  0.0808
    2TTP    C3723170  -0.036   2.850   5.256  0.2162 -0.4867  0.3557
    2TTP    C3823171  -0.157   2.876   5.348 -0.3899 -0.3940 -0.6682
    2TTP    C3923172  -0.198   3.020   5.389  0.0598 -0.5617 -1.1792
    2TTP    C4023173  -0.099   3.107   5.479  0.6352  0.0865  0.3378
    2TTP    C4123174  -0.077   3.046   5.617  0.0713  0.8145  0.4281
    2TTP    C4223175   0.034   3.123   5.699 -0.4950 -0.1702  0.1750
    3TTP     S123176   1.285   2.009   5.627 -0.0364  0.0605  0.2080
    3TTP     S523177   1.522   2.296   5.842 -0.0677  0.0904  0.2027
    3TTP     C123178   1.604   2.134   5.851 -0.0196  0.1120  0.1551
    3TTP     C223179   1.536   2.036   5.786 -0.0070  0.1041  0.1539
    3TTP     C323180   1.416   2.085   5.725 -0.0350  0.0805  0.1905
    3TTP     C423181   1.202   2.171   5.618 -0.0845  0.0389  0.2555
    3TTP    C1723182   1.271   2.269   5.683 -0.0971  0.0468  0.2568
    3TTP    C1823183   1.391   2.220   5.744 -0.0691  0.0703  0.2201
    3TTP    C3223184   1.583   1.886   5.780  0.1818 -0.4611  0.1412
    3TTP    C3323185   1.469   1.802   5.839 -0.2890  0.7615 -0.1995
    3TTP    C3423186   1.473   1.647   5.830  0.0796 -0.8817  0.0873
    3TTP    C3523187   1.347   1.591   5.893 -0.2212 -0.0391 -0.0592
    3TTP    C3623188   1.309   1.443   5.884 -0.0874 -0.2578 -0.1292
    3TTP    C3723189   1.288   1.380   5.745  0.4353 -0.4636 -0.0182
    3TTP    C3823190   1.407   1.317   5.682  0.1572 -0.4432  0.0132
    3TTP    C3923191   1.369   1.216   5.570 -0.4606  0.0990 -0.1716
    3TTP    C4023192   1.487   1.154   5.492  0.0207  0.3938 -0.2771
    3TTP    C4123193   1.580   1.263   5.432 -0.8426 -0.0056  0.3047
    3TTP    C4223194   1.723   1.245   5.478 -0.6899  0.4707  0.5696
    4BIM     F123195   0.564   3.603   5.922  0.2285 -0.2112 -0.0464
    4BIM     F223196   0.345   3.683   5.781 -0.0007 -0.3433  0.2328
    4BIM     O123197   0.686   3.141   5.668  0.1925 -0.1300 -0.2120
    4BIM     N523198   0.118   3.468   5.398 -0.3559 -0.4752  0.5161
    4BIM     N623199   0.257   3.091   5.228 -0.3378 -0.3851  0.3306
    4BIM    C1923200   0.521   3.053   5.443 -0.0393 -0.2273 -0.0042
    4BIM    C2023201   0.498   3.166   5.513 -0.0212 -0.2425  0.0268
    4BIM    C2123202   0.588   3.204   5.627  0.1005 -0.1898 -0.0859
    4BIM    C2223203   0.536   3.332   5.680  0.0886 -0.2232 -0.0169
    4BIM    C2323204   0.586   3.407   5.786  0.1776 -0.1946 -0.0788
    4BIM    C2423205   0.520   3.524   5.818  0.1450 -0.2362  0.0079
    4BIM    C2523206   0.407   3.565   5.745  0.0268 -0.3042  0.1518
    4BIM    C2623207   0.357   3.491   5.639 -0.0624 -0.3331  0.2140
    4BIM    C2723208   0.422   3.372   5.605 -0.0311 -0.2917  0.1279
    4BIM    C2823209   0.395   3.271   5.500 -0.1033 -0.3063  0.1605
    4BIM    C2923210   0.293   3.275   5.408 -0.2232 -0.3674  0.2900
    4BIM    C3023211   0.197   3.381   5.402 -0.2957 -0.4264  0.4139
    4BIM    C3123212   0.274   3.174   5.309 -0.2856 -0.3767  0.3115
    5BIM     F123213   2.217   2.615   6.110 -0.0824  0.1131  0.0793
    5BIM     F223214   2.337   2.394   6.216  0.0502  0.0792 -0.1394
    5BIM     O123215   1.773   2.395   5.892 -0.1076  0.1093  0.1341
    5BIM     N523216   2.192   1.921   6.213  0.2231  0.0278 -0.4147
    5BIM     N623217   1.821   1.794   6.021  0.1767  0.0317 -0.3277
    5BIM    C1923218   1.729   2.106   5.916  0.0103  0.0756 -0.0553
    5BIM    C2023219   1.837   2.170   5.966  0.0114  0.0778 -0.0606
    5BIM    C2123220   1.852   2.319   5.950 -0.0513  0.0956  0.0403
    5BIM    C2223221   1.978   2.355   6.017 -0.0324  0.0935  0.0057
    5BIM    C2323222   2.035   2.482   6.028 -0.0737  0.1063  0.0708
    5BIM    C2423223   2.155   2.492   6.095 -0.0445  0.1011  0.0198
    5BIM    C2523224   2.217   2.379   6.150  0.0238  0.0835 -0.0929
    5BIM    C2623225   2.161   2.252   6.139  0.0653  0.0708 -0.1582
    5BIM    C2723226   2.039   2.240   6.071  0.0367  0.0758 -0.1079
    5BIM    C2823227   1.954   2.121   6.042  0.0663  0.0655 -0.1533
    5BIM    C2923228   1.980   1.991   6.079  0.1321  0.0479 -0.2607
    5BIM    C3023229   2.097   1.953   6.153  0.1819  0.0369 -0.3450
    5BIM    C3123230   1.892   1.883   6.047  0.1563  0.0391 -0.2970
    1BTD     S223231   7.282   1.717   0.553 -0.3310  0.0503 -0.0911
    1BTD     N123232   7.380   1.734   0.703 -0.3099  0.0201 -0.1014
    1BTD     N223233   7.266   1.894   0.526 -0.2126  0.0546 -0.1327
    1BTD     N323234   7.410   2.286   0.741  0.0669  0.0086 -0.2361
    1BTD     N423235   7.550   2.089   0.959 -0.0530 -0.0337 -0.1975
    1BTD     C523236   7.467   1.922   0.834 -0.1742 -0.0075 -0.1520
    1BTD     C623237   7.395   1.864   0.724 -0.2204  0.0151 -0.1336
    1BTD     C723238   7.331   1.954   0.625 -0.1659  0.0344 -0.1512
    1BTD     C823239   7.343   2.096   0.641 -0.0683  0.0302 -0.1862
    1BTD    C1523240   7.415   2.148   0.750 -0.0260  0.0078 -0.2032
    1BTD    C1623241   7.476   2.062   0.846 -0.0786 -0.0108 -0.1863
    1BTD    C4323242   7.513   2.191   1.053 -0.8799 -0.8172 -0.0015
    1BTD    C4423243   7.611   2.260   1.155  0.6391  0.1986 -0.4380
    1BTD    C4523244   7.548   2.348   1.261  0.0824  0.8860  0.0620
    1BTD    C4623245   7.470   2.274   1.363 -0.3031  0.0566  0.2451
    1BTD    C4723246   7.730   2.322   1.090  0.4145  0.0731 -0.1230
    1BTD    C4823247   7.849   2.345   1.170 -0.2991 -0.0044 -0.1985
    1BTD    C4923248   7.966   2.404   1.097  0.0446 -0.4041  0.4911
    1BTD    C5023249   8.075   2.439   1.202 -1.1244 -0.1047  0.4508
    1BTD    C7523250   7.506   2.385   0.802 -0.1145  0.2852 -0.2759
    1BTD    C7623251   7.469   2.529   0.842 -0.8298 -0.2341  0.5566
    1BTD    C7723252   7.341   2.553   0.918  0.8743  0.5089 -0.6247
    1BTD    C7823253   7.294   2.694   0.940 -0.5020 -0.8132 -0.5892
    1BTD    C7923254   7.593   2.607   0.904  0.1777 -0.2652 -0.2878
    1BTD    C8023255   7.732   2.614   0.830 -0.5328  0.0780 -0.5387
    1BTD    C8123256   7.734   2.640   0.680  0.7993  0.1132 -0.2848
    1BTD    C8223257   7.664   2.768   0.636  0.3400  0.2850  0.5451
    2TTP     S123258   7.562   1.698   1.020  0.1638  0.1258 -0.0643
    2TTP     S523259   7.772   1.994   1.251  0.3005  0.1667 -0.2404
    2TTP     C123260   7.806   1.830   1.323  0.3735  0.1755 -0.2542
    2TTP     C223261   7.743   1.729   1.256  0.3356  0.1634 -0.2006
    2TTP     C323262   7.666   1.777   1.145  0.2475  0.1467 -0.1467
    2TTP     C423263   7.528   1.862   0.949  0.0907  0.1169 -0.0505
    2TTP    C1723264   7.591   1.963   1.016  0.1286  0.1290 -0.1040
    2TTP    C1823265   7.668   1.915   1.126  0.2168  0.1457 -0.1579
    2TTP    C3223266   7.745   1.583   1.288  0.6935  0.9219  0.2102
    2TTP    C3323267   7.656   1.532   1.408  0.0616 -0.0477  0.6481
    2TTP    C3423268   7.508   1.556   1.385  0.3348 -0.3544 -0.1497
    2TTP    C3523269   7.403   1.517   1.487  0.3053 -0.3745 -0.1056
    2TTP    C3623270   7.268   1.557   1.433  0.2428 -0.6826  0.0601
    2TTP    C3723271   7.156   1.497   1.516  0.8858 -0.5873  0.1231
    2TTP    C3823272   7.008   1.528   1.492 -0.4436  0.4391 -0.9187
    2TTP    C3923273   6.960   1.671   1.528  0.1731  0.3854 -0.8641
    2TTP    C4023274   6.809   1.688   1.528  0.3144  0.3815  0.3230
    2TTP    C4123275   6.747   1.801   1.594 -0.1543  0.0539 -0.2092
    2TTP    C4223276   6.593   1.815   1.573 -0.6223  0.2045  0.1570
    3TTP     S123277   7.208   2.232   0.412  0.2695 -0.0928  0.0051
    3TTP     S523278   7.301   2.615   0.584 -0.1268  0.0259 -0.0425
    3TTP     C123279   7.208   2.642   0.430  0.0193 -0.0856 -0.1513
    3TTP     C223280   7.173   2.525   0.368  0.1502 -0.1287 -0.1430
    3TTP     C323281   7.220   2.410   0.439  0.1401 -0.0755 -0.0504
    3TTP     C423282   7.301   2.205   0.566  0.1233  0.0187  0.1138
    3TTP    C1723283   7.336   2.322   0.628 -0.0076  0.0619  0.1055
    3TTP    C1823284   7.289   2.437   0.556  0.0027  0.0085  0.0130
    3TTP    C3223285   7.088   2.510   0.248  0.2650 -0.0165  0.2525
    3TTP    C3323286   7.144   2.428   0.128 -0.2679  0.5686  0.4131
    3TTP    C3423287   7.060   2.447   0.002 -0.9234 -0.3510  0.0293
    3TTP    C3523288   7.119   2.384  -0.119 -0.3745 -0.0335  0.0294
    3TTP    C3623289   7.015   2.382  -0.226 -0.2570  1.1030  0.3025
    3TTP    C3723290   7.045   2.308  -0.354 -0.3768  0.0780  0.4673
    3TTP    C3823291   7.086   2.159  -0.346 -0.0002 -0.5535 -0.5738
    3TTP    C3923292   6.964   2.076  -0.296 -0.4849 -0.6116 -0.4342
    3TTP    C4023293   7.000   1.930  -0.269  0.1234  0.2996  0.1668
    3TTP    C4123294   6.886   1.829  -0.235 -0.3229  0.5956  0.4719
    3TTP    C4223295   6.929   1.687  -0.200  0.3082 -0.5986 -0.1580
    4BIM     F123296   8.187   2.298   1.880 -0.0348 -0.0541  0.0538
    4BIM     F223297   8.356   2.090   1.927  0.1934  0.0590 -0.2657
    4BIM     O123298   7.850   2.076   1.518 -0.2372 -0.1040  0.2728
    4BIM     N523299   8.360   1.633   1.737  0.3777  0.1860 -0.5690
    4BIM     N623300   8.063   1.502   1.445  0.1733  0.1242 -0.3334
    4BIM    C1923301   7.892   1.798   1.435 -0.0910 -0.0137  0.0453
    4BIM    C2023302   7.970   1.862   1.524 -0.0490 -0.0056  0.0027
    4BIM    C2123303   7.942   2.005   1.562 -0.1297 -0.0541  0.1266
    4BIM    C2223304   8.045   2.043   1.660 -0.0558 -0.0306  0.0401
    4BIM    C2323305   8.060   2.166   1.724 -0.0918 -0.0594  0.1042
    4BIM    C2423306   8.166   2.179   1.813 -0.0058 -0.0282 -0.0016
    4BIM    C2523307   8.253   2.072   1.837  0.1120  0.0301 -0.1660
    4BIM    C2623308   8.239   1.949   1.774  0.1478  0.0591 -0.2308
    4BIM    C2723309   8.132   1.934   1.683  0.0622  0.0282 -0.1257
    4BIM    C2823310   8.090   1.819   1.600  0.0713  0.0459 -0.1552
    4BIM    C2923311   8.150   1.695   1.596  0.1719  0.0997 -0.3011
    4BIM    C3023312   8.265   1.661   1.673  0.2844  0.1470 -0.4478
    4BIM    C3123313   8.101   1.589   1.513  0.1719  0.1128 -0.3180
    5BIM     F123314   7.013   3.358   0.789  0.2072  0.0288 -0.0138
    5BIM     F223315   6.941   3.454   0.544  0.3353  0.1153 -0.0179
    5BIM     O123316   7.161   2.853   0.662 -0.0927 -0.0497 -0.0543
    5BIM     N523317   6.944   3.230   0.102  0.3059  0.1836 -0.0527
    5BIM     N623318   7.074   2.817   0.053  0.0455  0.1048 -0.0835
    5BIM    C1923319   7.146   2.765   0.384 -0.0769  0.0050 -0.0726
    5BIM    C2023320   7.111   2.888   0.425 -0.0064  0.0213 -0.0622
    5BIM    C2123321   7.122   2.926   0.570 -0.0199 -0.0089 -0.0533
    5BIM    C2223322   7.077   3.066   0.580  0.0697  0.0196 -0.0431
    5BIM    C2323323   7.069   3.145   0.695  0.0912  0.0064 -0.0326
    5BIM    C2423324   7.023   3.275   0.679  0.1813  0.0395 -0.0243
    5BIM    C2523325   6.986   3.324   0.553  0.2471  0.0839 -0.0265
    5BIM    C2623326   6.993   3.246   0.439  0.2261  0.0973 -0.0369
    5BIM    C2723327   7.040   3.114   0.452  0.1355  0.0643 -0.0454
    5BIM    C2823328   7.059   3.006   0.352  0.0913  0.0672 -0.0573
    5BIM    C2923329   7.035   3.015   0.217  0.1329  0.1052 -0.0626
    5BIM    C3023330   6.985   3.133   0.154  0.2279  0.1482 -0.0571
    5BIM    C3123331   7.057   2.906   0.127  0.0848  0.1048 -0.0741
    1BTD     S223332   6.616   1.721   8.758  0.0054  0.0870 -0.0550
    1BTD     N123333   6.585   1.852   8.639  0.1826 -0.0476 -0.2496
    1BTD     N223334   6.490   1.611   8.691 -0.1874  0.1806  0.1478
    1BTD     N323335   6.180   1.623   8.338 -0.2606  0.1282  0.2100
    1BTD     N423336   6.297   1.920   8.274  0.1953 -0.1529 -0.2797
    1BTD     C523337   6.433   1.884   8.449  0.1837 -0.0991 -0.2594
    1BTD     C623338   6.488   1.809   8.559  0.0935 -0.0173 -0.1578
    1BTD     C723339   6.435   1.674   8.588 -0.1136  0.1103  0.0644
    1BTD     C823340   6.330   1.621   8.506 -0.2201  0.1498  0.1745
    1BTD    C1523341   6.279   1.698   8.399 -0.1257  0.0666  0.0689
    1BTD    C1623342   6.330   1.828   8.371  0.0736 -0.0564 -0.1456
    1BTD    C4323343   6.252   1.884   8.138 -0.0160  0.0417  0.3619
    1BTD    C4423344   6.171   1.971   8.047  0.0170 -0.5682  0.5332
    1BTD    C4523345   6.039   2.035   8.113  0.2711 -0.4671  0.3603
    1BTD    C4623346   5.978   2.164   8.051 -0.0085  0.1381 -0.0471
    1BTD    C4723347   6.156   1.914   7.908  0.1411 -0.0017  0.2825
    1BTD    C4823348   6.088   1.980   7.791 -0.5003 -0.1226  0.2027
    1BTD    C4923349   6.158   2.101   7.723 -0.1857  0.2480 -0.3347
    1BTD    C5023350   6.069   2.212   7.676 -0.2482  0.1035 -0.1336
    1BTD    C7523351   6.059   1.678   8.277  0.3792  0.1556 -0.3198
    1BTD    C7623352   5.966   1.615   8.167 -0.2450 -0.7624 -0.0620
    1BTD    C7723353   6.022   1.597   8.022 -0.3894  0.4101 -0.1903
    1BTD    C7823354   6.169   1.554   8.010  0.2691  0.2746 -0.1831
    1BTD    C7923355   5.838   1.697   8.157  0.3439  0.1716 -0.6515
    1BTD    C8023356   5.728   1.654   8.061  0.5983 -0.1662  0.3192
    1BTD    C8123357   5.669   1.516   8.083 -0.1121 -0.2777  0.8294
    1BTD    C8223358   5.604   1.458   7.958  0.7247  0.0776 -0.0210
    2TTP     S123359   6.532   2.169   8.463 -0.3533  0.3293  0.0358
    2TTP     S523360   6.349   2.246   8.082 -0.2911 -0.3035 -0.1245
    2TTP     C123361   6.438   2.396   8.135 -0.5652 -0.1101 -0.2085
    2TTP     C223362   6.499   2.381   8.256 -0.6005  0.0967 -0.1643
    2TTP     C323363   6.479   2.250   8.311 -0.4125  0.1099 -0.0620
    2TTP     C423364   6.444   2.019   8.410 -0.0792  0.1361  0.1199
    2TTP    C1723365   6.382   2.034   8.289 -0.0440 -0.0708  0.0752
    2TTP    C1823366   6.402   2.164   8.234 -0.2319 -0.0840 -0.0265
    2TTP    C3223367   6.571   2.483   8.342  0.5415 -0.1871  0.2248
    2TTP    C3323368   6.724   2.474   8.354 -0.1456  0.1696 -0.0530
    2TTP    C3423369   6.798   2.556   8.459  0.4422  0.4554 -0.5070
    2TTP    C3523370   6.773   2.519   8.608 -0.2746  0.6435  0.6886
    2TTP    C3623371   6.859   2.598   8.709  0.7757 -0.5419 -0.1631
    2TTP    C3723372   6.820   2.566   8.855  0.5483  0.7454 -0.2416
    2TTP    C3823373   6.877   2.653   8.966 -0.4182 -0.1545 -0.4079
    2TTP    C3923374   6.793   2.654   9.088 -0.7880  0.8578  0.0902
    2TTP    C4023375   6.849   2.734   9.204 -0.5686 -0.2968 -0.4194
    2TTP    C4123376   6.853   2.890   9.190  0.2827 -0.3228  0.2755
    2TTP    C4223377   6.900   2.951   9.327  0.3359 -0.2729 -0.1506
    3TTP     S123378   6.298   1.330   8.567  0.0098 -0.1594 -0.2025
    3TTP     S523379   6.019   1.299   8.241  0.1564  0.0942 -0.3531
    3TTP     C123380   6.047   1.133   8.310  0.0149  0.0604 -0.3769
    3TTP     C223381   6.135   1.132   8.414 -0.0389 -0.0199 -0.3316
    3TTP     C323382   6.183   1.264   8.444  0.0299 -0.0576 -0.2768
    3TTP     C423383   6.270   1.496   8.498  0.1514 -0.1255 -0.1788
    3TTP    C1723384   6.182   1.496   8.394  0.2049 -0.0452 -0.2239
    3TTP    C1823385   6.134   1.365   8.364  0.1361 -0.0075 -0.2787
    3TTP    C3223386   6.169   1.014   8.503  0.1533 -0.1225 -0.5047
    3TTP    C3323387   6.167   1.025   8.658  0.4002  0.2147 -0.1059
    3TTP    C3423388   6.044   1.081   8.729 -0.7532 -0.1185 -0.0106
    3TTP    C3523389   6.066   1.128   8.870  0.6510  0.0313  0.5366
    3TTP    C3623390   6.091   1.014   8.956 -0.8938 -0.4884 -0.5487
    3TTP    C3723391   6.209   1.040   9.051 -0.2253 -0.8069  0.2956
    3TTP    C3823392   6.244   0.944   9.159  0.7547  0.1696 -0.0351
    3TTP    C3923393   6.389   0.963   9.206  0.2075 -0.3025  0.3121
    3TTP    C4023394   6.434   0.876   9.318 -0.1121 -0.2282 -0.2777
    3TTP    C4123395   6.439   0.721   9.290 -0.2720 -0.3208  0.3387
    3TTP    C4223396   6.511   0.634   9.387  0.2325  0.2073  0.6709
    4BIM     F123397   6.005   2.714   7.516  0.6194 -0.5105 -0.4116
    4BIM     F223398   6.165   2.934   7.525 -0.0970 -0.0018  0.1374
    4BIM     O123399   6.212   2.420   7.921  0.7416 -0.2557 -0.2888
    4BIM     N523400   6.543   3.041   7.826 -1.0399  0.9110  1.0140
    4BIM     N623401   6.672   2.766   8.141 -0.8000  1.0075  0.9997
    4BIM    C1923402   6.439   2.526   8.073  0.1005  0.3207  0.2793
    4BIM    C2023403   6.380   2.591   7.971  0.0979  0.2367  0.2269
    4BIM    C2123404   6.264   2.530   7.897  0.4386 -0.0633 -0.0712
    4BIM    C2223405   6.225   2.627   7.793  0.3405 -0.0823 -0.0521
    4BIM    C2323406   6.122   2.615   7.700  0.5662 -0.3186 -0.2733
    4BIM    C2423407   6.104   2.720   7.611  0.4118 -0.2854 -0.2034
    4BIM    C2523408   6.187   2.833   7.616  0.0424 -0.0231  0.0795
    4BIM    C2623409   6.290   2.846   7.709 -0.1844  0.2136  0.3015
    4BIM    C2723410   6.309   2.740   7.799 -0.0328  0.1840  0.2348
    4BIM    C2823411   6.408   2.723   7.909 -0.1966  0.3905  0.4175
    4BIM    C2923412   6.506   2.812   7.946 -0.5530  0.6706  0.7077
    4BIM    C3023413   6.526   2.937   7.880 -0.8194  0.8018  0.8752
    4BIM    C3123414   6.597   2.786   8.053 -0.6868  0.8544  0.8664
    5BIM     F123415   5.361   0.975   7.885  0.0755  0.0698 -0.1494
    5BIM     F223416   5.425   0.711   7.888 -0.0839  0.0330  0.1664
    5BIM     O123417   5.776   1.186   8.162  0.0675  0.1192 -0.1743
    5BIM     N523418   5.815   0.481   8.089 -0.3189  0.0154  0.6025
    5BIM     N623419   6.126   0.699   8.305 -0.2929  0.0614  0.5195
    5BIM    C1923420   5.985   1.008   8.263 -0.0878  0.1016  0.1180
    5BIM    C2023421   5.878   0.965   8.193 -0.0795  0.0906  0.1121
    5BIM    C2123422   5.775   1.063   8.144  0.0023  0.1008 -0.0427
    5BIM    C2223423   5.673   0.984   8.073 -0.0104  0.0845 -0.0072
    5BIM    C2323424   5.558   1.030   8.010  0.0478  0.0865 -0.1128
    5BIM    C2423425   5.476   0.936   7.949  0.0213  0.0689 -0.0511
    5BIM    C2523426   5.510   0.800   7.950 -0.0609  0.0500  0.1114
    5BIM    C2623427   5.625   0.753   8.012 -0.1192  0.0479  0.2179
    5BIM    C2723428   5.708   0.847   8.075 -0.0936  0.0656  0.1576
    5BIM    C2823429   5.836   0.830   8.149 -0.1392  0.0686  0.2375
    5BIM    C2923430   5.902   0.712   8.173 -0.2213  0.0537  0.3965
    5BIM    C3023431   5.854   0.585   8.127 -0.2747  0.0327  0.5093
    5BIM    C3123432   6.025   0.705   8.245 -0.2602  0.0580  0.4630
    1BTD     S223433   1.661   7.180   5.895 -0.0385  0.0208  0.0438
    1BTD     N123434   1.808   7.242   5.978 -0.3344  0.2228  0.4232
    1BTD     N223435   1.654   7.313   5.775  0.3324 -0.2183 -0.2508
    1BTD     N323436   1.904   7.699   5.681  0.5538 -0.3411 -0.1658
    1BTD     N423437   2.094   7.611   5.930 -0.2679  0.2027  0.6646
    1BTD     C523438   1.955   7.436   5.950 -0.2898  0.2058  0.5393
    1BTD     C623439   1.842   7.354   5.915 -0.1511  0.1076  0.3164
    1BTD     C723440   1.756   7.394   5.802  0.2222 -0.1395 -0.0609
    1BTD     C823441   1.787   7.514   5.729  0.4381 -0.2759 -0.1963
    1BTD    C1523442   1.898   7.591   5.767  0.2910 -0.1724  0.0317
    1BTD    C1623443   1.981   7.552   5.876 -0.0687  0.0655  0.3950
    1BTD    C4323444   2.190   7.686   5.845 -0.2481 -0.4543  0.4552
    1BTD    C4423445   2.298   7.785   5.898  0.3099  0.3558  0.6869
    1BTD    C4523446   2.405   7.821   5.791 -0.1113  0.4898  0.0439
    1BTD    C4623447   2.471   7.697   5.730 -0.1893  0.6487  0.2130
    1BTD    C4723448   2.222   7.896   5.972 -1.0402  0.1319 -0.0470
    1BTD    C4823449   2.306   8.000   6.032 -0.6822 -0.4030 -0.7921
    1BTD    C4923450   2.223   8.104   6.110 -0.5477 -0.9569 -0.2849
    1BTD    C5023451   2.308   8.222   6.151  0.3439  0.2422  0.6143
    1BTD    C7523452   1.943   7.833   5.721  0.4900 -0.6467  0.0062
    1BTD    C7623453   2.010   7.930   5.623 -0.5230 -0.0166  0.2482
    1BTD    C7723454   2.046   8.068   5.687 -0.0002 -0.1915  0.3053
    1BTD    C7823455   1.932   8.131   5.771 -0.7670  0.5089  0.2706
    1BTD    C7923456   2.125   7.865   5.541 -0.0996  0.8553  0.4481
    1BTD    C8023457   2.164   7.944   5.418 -0.5485  0.0821 -0.0295
    1BTD    C8123458   2.271   7.872   5.342 -0.3958  0.2008 -0.5334
    1BTD    C8223459   2.338   7.941   5.223  0.0523  0.1462 -0.1402
    2TTP     S123460   2.082   7.330   6.203  0.0572  0.1464 -0.0885
    2TTP     S523461   2.330   7.681   6.218  0.3449 -0.0480 -0.2875
    2TTP     C123462   2.359   7.583   6.368  0.3330 -0.0326 -0.2754
    2TTP     C223463   2.284   7.469   6.373  0.2434  0.0283 -0.2133
    2TTP     C323464   2.201   7.454   6.257  0.1810  0.0651 -0.1730
    2TTP     C423465   2.053   7.428   6.053  0.0690  0.1311 -0.1007
    2TTP    C1723466   2.128   7.542   6.048  0.1587  0.0702 -0.1629
    2TTP    C1823467   2.211   7.556   6.164  0.2211  0.0335 -0.2031
    2TTP    C3223468   2.299   7.358   6.481 -0.5794 -0.0512  0.9202
    2TTP    C3323469   2.180   7.325   6.566 -0.1772 -0.0565 -0.1331
    2TTP    C3423470   2.203   7.210   6.659  0.2012  0.2191  0.2223
    2TTP    C3523471   2.075   7.201   6.744 -0.5645  0.7250 -0.5582
    2TTP    C3623472   2.079   7.093   6.847 -0.3673  0.5731 -0.1360
    2TTP    C3723473   1.960   7.095   6.941  0.1335  0.2959  0.2559
    2TTP    C3823474   1.979   7.026   7.074 -0.5514 -0.2595  0.4002
    2TTP    C3923475   1.857   7.017   7.159 -0.4119 -0.2097 -0.1199
    2TTP    C4023476   1.893   6.951   7.303  0.0498 -0.7011  0.8959
    2TTP    C4123477   1.789   6.982   7.409  0.2727  0.0328  0.3501
    2TTP    C4223478   1.811   6.905   7.537  0.9869  0.2264  0.1353
    3TTP     S123479   1.589   7.542   5.507 -0.2017 -0.0934  0.1418
    3TTP     S523480   1.796   7.887   5.358  0.1497 -0.4121 -0.1110
    3TTP     C123481   1.658   7.850   5.246  0.0231 -0.2670 -0.0040
    3TTP     C223482   1.586   7.741   5.285 -0.0930 -0.1600  0.0803
    3TTP     C323483   1.637   7.683   5.406 -0.0859 -0.1888  0.0637
    3TTP     C423484   1.727   7.579   5.619 -0.0749 -0.2385  0.0349
    3TTP    C1723485   1.799   7.688   5.580  0.0411 -0.3455 -0.0496
    3TTP    C1823486   1.748   7.746   5.460  0.0340 -0.3169 -0.0328
    3TTP    C3223487   1.466   7.691   5.206 -0.4325  0.3074  0.5121
    3TTP    C3323488   1.331   7.674   5.283 -0.0548  0.6809 -0.0769
    3TTP    C3423489   1.218   7.597   5.205 -0.2381  0.2237  0.3740
    3TTP    C3523490   1.091   7.593   5.281 -0.4247 -0.3905 -0.4904
    3TTP    C3623491   0.976   7.569   5.175  0.1429  0.0377 -0.7692
    3TTP    C3723492   0.841   7.571   5.244  0.1338  0.1247 -0.1279
    3TTP    C3823493   0.826   7.465   5.346 -0.3654  0.4664  0.1397
    3TTP    C3923494   0.692   7.455   5.410 -0.4913 -0.2775  0.4928
    3TTP    C4023495   0.666   7.319   5.482 -0.2408 -0.9222  0.0771
    3TTP    C4123496   0.775   7.270   5.581 -0.3301 -0.4221 -0.1667
    3TTP    C4223497   0.743   7.130   5.643 -0.5174 -0.7610 -0.1425
    4BIM     F123498   2.763   8.278   6.557 -0.2806  0.0043  0.1897
    4BIM     F223499   2.905   8.137   6.742  0.2298 -0.2031 -0.3524
    4BIM     O123500   2.431   7.893   6.369 -0.5045  0.1091  0.3694
    4BIM     N523501   2.872   7.662   6.874  0.8040 -0.4265 -1.0037
    4BIM     N623502   2.584   7.390   6.690  0.5261 -0.3028 -0.7538
    4BIM    C1923503   2.449   7.623   6.479 -0.0964 -0.0517 -0.0845
    4BIM    C2023504   2.527   7.725   6.519 -0.0600 -0.0702 -0.1086
    4BIM    C2123505   2.512   7.861   6.458 -0.2794  0.0168  0.1343
    4BIM    C2223506   2.611   7.948   6.524 -0.1739 -0.0296  0.0374
    4BIM    C2323507   2.635   8.083   6.500 -0.3043  0.0203  0.1889
    4BIM    C2423508   2.734   8.144   6.575 -0.1636 -0.0401  0.0523
    4BIM    C2523509   2.807   8.072   6.670  0.0993 -0.1470 -0.2270
    4BIM    C2623510   2.784   7.937   6.694  0.2307 -0.1971 -0.3794
    4BIM    C2723511   2.684   7.873   6.619  0.0914 -0.1376 -0.2446
    4BIM    C2823512   2.635   7.733   6.621  0.1718 -0.1665 -0.3456
    4BIM    C2923513   2.681   7.631   6.700  0.4148 -0.2642 -0.6082
    4BIM    C3023514   2.786   7.648   6.796  0.6279 -0.3531 -0.8247
    4BIM    C3123515   2.627   7.499   6.694  0.4747 -0.2849 -0.6869
    5BIM     F123516   2.147   8.279   4.754 -0.0349  0.1326  0.1473
    5BIM     F223517   1.927   8.378   4.629 -0.0098 -0.0930 -0.0746
    5BIM     O123518   1.920   7.945   5.114 -0.0786  0.2997  0.2750
    5BIM     N523519   1.448   8.281   4.705 -0.0049 -0.2980 -0.3027
    5BIM     N623520   1.314   8.000   5.011 -0.0442 -0.1218 -0.1582
    5BIM    C1923521   1.628   7.920   5.122 -0.0702  0.1437  0.1084
    5BIM    C2023522   1.694   8.000   5.037 -0.0602  0.1104  0.0850
    5BIM    C2123523   1.844   8.008   5.039 -0.0654  0.1957  0.1752
    5BIM    C2223524   1.883   8.104   4.933 -0.0517  0.1314  0.1214
    5BIM    C2323525   2.011   8.144   4.898 -0.0508  0.1738  0.1714
    5BIM    C2423526   2.023   8.236   4.795 -0.0367  0.0963  0.1036
    5BIM    C2523527   1.909   8.286   4.730 -0.0237 -0.0196 -0.0109
    5BIM    C2623528   1.781   8.247   4.765 -0.0245 -0.0627 -0.0614
    5BIM    C2723529   1.767   8.154   4.869 -0.0388  0.0143  0.0062
    5BIM    C2823530   1.646   8.092   4.930 -0.0435 -0.0031 -0.0210
    5BIM    C2923531   1.516   8.116   4.895 -0.0342 -0.1049 -0.1240
    5BIM    C3023532   1.479   8.206   4.790 -0.0181 -0.2108 -0.2218
    5BIM    C3123533   1.406   8.052   4.959 -0.0398 -0.1137 -0.1422
    1BTD     S223534   2.372   5.567   3.031 -0.2122 -0.2020 -0.0309
    1BTD     N123535   2.362   5.389   3.012 -0.1702 -0.1955 -0.1143
    1BTD     N223536   2.550   5.568   3.057 -0.2097 -0.1705 -0.0494
    1BTD     N323537   2.894   5.249   3.075 -0.1289 -0.0943 -0.2378
    1BTD     N423538   2.661   5.027   3.019 -0.0802 -0.1252 -0.3178
    1BTD     C523539   2.521   5.203   3.016 -0.1238 -0.1584 -0.2196
    1BTD     C623540   2.485   5.342   3.025 -0.1572 -0.1713 -0.1498
    1BTD     C723541   2.590   5.442   3.050 -0.1794 -0.1574 -0.1135
    1BTD     C823542   2.727   5.399   3.066 -0.1670 -0.1310 -0.1488
    1BTD    C1523543   2.757   5.262   3.056 -0.1341 -0.1191 -0.2170
    1BTD    C1623544   2.655   5.165   3.032 -0.1128 -0.1328 -0.2520
    1BTD    C4323545   2.769   4.929   2.975  0.1725 -0.4277  0.2994
    1BTD    C4423546   2.781   4.881   2.826 -0.0674 -0.0548 -0.0396
    1BTD    C4523547   2.862   4.757   2.791 -0.0449  0.2917 -0.1929
    1BTD    C4623548   2.799   4.626   2.834 -0.4178  0.0191 -0.3312
    1BTD    C4723549   2.805   5.008   2.746 -1.0025 -0.1892  0.4581
    1BTD    C4823550   2.822   5.002   2.588 -0.2808 -0.1142  0.5181
    1BTD    C4923551   2.716   4.931   2.508  0.1311  0.2203  1.4028
    1BTD    C5023552   2.571   4.988   2.510 -0.0522  0.9521 -0.0871
    1BTD    C7523553   2.953   5.133   3.140  0.0727  0.0821 -0.3805
    1BTD    C7623554   3.100   5.108   3.141 -0.5215  0.1694  0.4290
    1BTD    C7723555   3.178   5.076   3.008  0.3667 -0.0706  0.0948
    1BTD    C7823556   3.132   4.966   2.914 -0.0851  0.8979 -0.1143
    1BTD    C7923557   3.151   5.006   3.249  0.3490  0.0234  0.1818
    1BTD    C8023558   3.295   5.001   3.299 -0.1071  0.6844 -0.2584
    1BTD    C8123559   3.371   5.119   3.354  0.4766  0.0199  0.0888
    1BTD    C8223560   3.512   5.101   3.397 -0.4051 -0.0218  0.0453
    2TTP     S123561   2.273   5.038   2.966  0.1542  0.1454 -0.0177
    2TTP     S523562   2.507   4.680   3.013 -0.2408 -0.0863  0.1903
    2TTP     C123563   2.331   4.633   2.999 -0.3036  0.1072  0.3340
    2TTP     C223564   2.249   4.741   2.984 -0.1853  0.1901  0.2782
    2TTP     C323565   2.321   4.865   2.982 -0.0407  0.1040  0.1200
    2TTP     C423566   2.449   5.085   2.979  0.2170 -0.0480 -0.1613
    2TTP    C1723567   2.531   4.977   2.994  0.0988 -0.1310 -0.1056
    2TTP    C1823568   2.459   4.853   2.996 -0.0458 -0.0447  0.0526
    2TTP    C3223569   2.092   4.739   2.975  0.6763  0.6228  0.1607
    2TTP    C3323570   2.013   4.833   3.068 -0.9451  0.4512 -0.5791
    2TTP    C3423571   1.865   4.820   3.016 -0.0785 -0.2598  0.0170
    2TTP    C3523572   1.832   4.891   2.881 -0.0642  0.2820 -0.2046
    2TTP    C3623573   1.858   5.039   2.855 -0.1874 -0.1188 -0.0448
    2TTP    C3723574   1.775   5.152   2.934 -0.7491  0.2347  0.0161
    2TTP    C3823575   1.819   5.295   2.914  0.5649 -0.8279  0.0443
    2TTP    C3923576   1.961   5.327   2.969  0.2183 -0.2151  0.4490
    2TTP    C4023577   1.992   5.473   2.994  0.3900  0.1873 -0.5015
    2TTP    C4123578   1.981   5.586   2.890  0.4985  0.4197 -0.0269
    2TTP    C4223579   2.069   5.581   2.765 -0.2328  0.0504 -0.0656
    3TTP     S123580   2.911   5.641   3.082  0.1369  0.1920  0.0999
    3TTP     S523581   3.252   5.379   3.063  0.0261  0.0646 -0.1413
    3TTP     C123582   3.311   5.551   3.062  0.0995  0.0405  0.0302
    3TTP     C223583   3.209   5.642   3.068  0.1381  0.0786  0.1147
    3TTP     C323584   3.081   5.579   3.073  0.1109  0.1279  0.0471
    3TTP     C423585   2.852   5.469   3.083  0.0634  0.2162 -0.0715
    3TTP    C1723586   2.954   5.378   3.077  0.0248  0.1782 -0.1561
    3TTP    C1823587   3.082   5.441   3.072  0.0520  0.1286 -0.0885
    3TTP    C3223588   3.220   5.792   3.051 -0.4271  0.3297 -0.6226
    3TTP    C3323589   3.149   5.853   2.928 -0.3088  0.3011 -0.1283
    3TTP    C3423590   3.168   6.003   2.899 -0.1553  0.6187 -0.5326
    3TTP    C3523591   3.113   6.091   3.013  0.0055 -0.0132  0.5234
    3TTP    C3623592   3.176   6.223   3.011 -0.4854  0.4769  0.2223
    3TTP    C3723593   3.100   6.329   3.087 -0.1441 -0.0732  0.2390
    3TTP    C3823594   3.144   6.473   3.086  0.4228  0.1145  0.4471
    3TTP    C3923595   3.030   6.556   3.164 -0.0080 -0.4032  0.3122
    3TTP    C4023596   3.073   6.703   3.188 -0.4474 -0.6573 -0.5677
    3TTP    C4123597   3.085   6.798   3.068 -0.0662 -0.7930 -0.1100
    3TTP    C4223598   2.982   6.805   2.956  0.1650  0.0418  0.1611
    4BIM     F123599   2.639   3.877   3.118 -0.1627  0.0780 -0.5097
    4BIM     F223600   2.389   3.792   3.184  0.0161  0.2887  0.4598
    4BIM     O123601   2.543   4.397   3.001 -0.3139 -0.0477 -0.9464
    4BIM     N523602   1.962   4.041   3.197  0.1653  0.5023  1.5426
    4BIM     N623603   1.937   4.464   3.092  0.0111  0.3617  1.0061
    4BIM    C1923604   2.270   4.500   3.023 -0.1968  0.1092 -0.1752
    4BIM    C2023605   2.304   4.373   3.049 -0.1658  0.1324 -0.1031
    4BIM    C2123606   2.446   4.327   3.036 -0.2302  0.0476 -0.5180
    4BIM    C2223607   2.448   4.184   3.072 -0.1744  0.0998 -0.3148
    4BIM    C2323608   2.558   4.099   3.075 -0.2039  0.0532 -0.5600
    4BIM    C2423609   2.535   3.967   3.113 -0.1382  0.1188 -0.2901
    4BIM    C2523610   2.406   3.924   3.147 -0.0462  0.2273  0.2093
    4BIM    C2623611   2.297   4.009   3.145 -0.0163  0.2743  0.4565
    4BIM    C2723612   2.318   4.142   3.107 -0.0817  0.2091  0.1894
    4BIM    C2823613   2.224   4.256   3.094 -0.0727  0.2337  0.3392
    4BIM    C2923614   2.089   4.254   3.119  0.0066  0.3313  0.8000
    4BIM    C3023615   2.019   4.137   3.161  0.0935  0.4251  1.2067
    4BIM    C3123616   2.006   4.369   3.104  0.0086  0.3475  0.9106
    5BIM     F123617   4.032   5.175   3.225  0.1981 -0.0242 -0.0642
    5BIM     F223618   4.160   5.378   3.097  0.1737 -0.1323 -0.2605
    5BIM     O123619   3.518   5.341   3.192  0.2240  0.1070  0.1816
    5BIM     N523620   3.977   5.788   2.889  0.1570 -0.1938 -0.3675
    5BIM     N623621   3.549   5.877   2.888  0.1822 -0.0691 -0.1360
    5BIM    C1923622   3.457   5.594   3.057  0.2100  0.0509  0.0813
    5BIM    C2023623   3.581   5.544   3.071  0.2044  0.0219  0.0272
    5BIM    C2123624   3.605   5.413   3.141  0.2122  0.0539  0.0843
    5BIM    C2223625   3.750   5.389   3.138  0.2032  0.0098  0.0023
    5BIM    C2323626   3.819   5.281   3.191  0.2061  0.0187  0.0170
    5BIM    C2423627   3.957   5.280   3.176  0.1959 -0.0300 -0.0728
    5BIM    C2523628   4.023   5.384   3.109  0.1834 -0.0855 -0.1738
    5BIM    C2623629   3.954   5.493   3.056  0.1804 -0.0947 -0.1891
    5BIM    C2723630   3.815   5.496   3.071  0.1906 -0.0459 -0.0990
    5BIM    C2823631   3.714   5.595   3.027  0.1908 -0.0408 -0.0879
    5BIM    C2923632   3.738   5.712   2.959  0.1804 -0.0854 -0.1686
    5BIM    C3023633   3.869   5.754   2.920  0.1675 -0.1447 -0.2777
    5BIM    C3123634   3.634   5.802   2.920  0.1815 -0.0762 -0.1502
    1BTD     S223635   7.818   9.070   7.667  0.1727 -0.2615  0.1954
    1BTD     N123636   7.836   8.906   7.739  0.3014 -0.4268 -0.2093
    1BTD     N223637   7.663   9.033   7.585 -0.1280  0.0198  0.6286
    1BTD     N323638   7.378   8.662   7.546 -0.5082  0.2940  0.7807
    1BTD     N423639   7.592   8.505   7.736  0.0209 -0.2563 -0.2519
    1BTD     C523640   7.706   8.699   7.735  0.1485 -0.3312 -0.2191
    1BTD     C623641   7.731   8.836   7.700  0.1228 -0.2718 -0.0108
    1BTD     C723642   7.634   8.907   7.613 -0.1175 -0.0219  0.4580
    1BTD     C823643   7.517   8.837   7.567 -0.3201  0.1564  0.6956
    1BTD    C1523644   7.497   8.703   7.604 -0.2864  0.0899  0.4784
    1BTD    C1623645   7.590   8.635   7.687 -0.0549 -0.1504  0.0263
    1BTD    C4323646   7.487   8.402   7.744  0.2399 -0.3951  0.6172
    1BTD    C4423647   7.366   8.411   7.843  0.1089  0.4726 -0.1109
    1BTD    C4523648   7.404   8.433   7.994  0.2716 -0.3563  0.2715
    1BTD    C4623649   7.477   8.317   8.068 -0.2465 -0.0461 -0.2113
    1BTD    C4723650   7.282   8.283   7.811  0.2544 -0.0936 -0.5641
    1BTD    C4823651   7.150   8.260   7.888 -0.4469 -0.1349  0.8002
    1BTD    C4923652   7.092   8.122   7.852 -0.0799 -0.2177  0.0631
    1BTD    C5023653   6.950   8.102   7.912 -0.3315 -0.2462  0.1445
    1BTD    C7523654   7.370   8.526   7.483 -0.8442  0.1912 -0.3753
    1BTD    C7623655   7.237   8.463   7.444 -0.0732  0.6053  0.5959
    1BTD    C7723656   7.254   8.323   7.369  1.2815  0.3206  0.2077
    1BTD    C7823657   7.332   8.320   7.241 -0.0570  0.0512 -0.7132
    1BTD    C7923658   7.134   8.460   7.560  0.3256 -0.0595  0.3247
    1BTD    C8023659   6.983   8.430   7.532  0.5866 -0.2266 -0.3291
    1BTD    C8123660   6.906   8.441   7.666  0.4865 -0.3773 -0.0970
    1BTD    C8223661   6.756   8.408   7.650 -0.3929  0.0397  0.2873
    2TTP     S123662   7.944   8.586   7.883 -0.0967 -0.0360 -0.0545
    2TTP     S523663   7.752   8.201   7.899  0.0058 -0.0880 -0.0662
    2TTP     C123664   7.915   8.188   7.978 -0.0327 -0.0214  0.0255
    2TTP     C223665   7.984   8.305   7.977 -0.0666 -0.0019  0.0345
    2TTP     C323666   7.911   8.411   7.915 -0.0634 -0.0384 -0.0305
    2TTP     C423667   7.781   8.599   7.804 -0.0583 -0.1025 -0.1462
    2TTP    C1723668   7.712   8.481   7.804 -0.0244 -0.1223 -0.1551
    2TTP    C1823669   7.785   8.376   7.867 -0.0274 -0.0858 -0.0899
    2TTP    C3223670   8.127   8.338   8.030 -0.0992  0.5303  0.3536
    2TTP    C3323671   8.155   8.446   8.133 -0.1440  0.0365 -0.1861
    2TTP    C3423672   8.311   8.452   8.142  0.0709  0.0444 -0.2608
    2TTP    C3523673   8.341   8.582   8.220  0.3407  0.4870 -0.6252
    2TTP    C3623674   8.488   8.619   8.232 -0.5757 -0.1057  0.8656
    2TTP    C3723675   8.571   8.664   8.112 -0.7188 -0.4260  0.0432
    2TTP    C3823676   8.560   8.817   8.090  0.1460  0.4260  0.1227
    2TTP    C3923677   8.659   8.865   7.986  0.2834 -0.4417 -0.2531
    2TTP    C4023678   8.665   9.011   7.949  0.5053 -0.4737 -0.7062
    2TTP    C4123679   8.776   9.048   7.849 -0.2336  0.5582 -0.3270
    2TTP    C4223680   8.783   9.200   7.827  0.6452 -0.4729 -0.2624
    3TTP     S123681   7.346   9.026   7.409  0.1095 -0.0445 -0.0664
    3TTP     S523682   7.054   8.714   7.358 -0.2834  0.3192 -0.0525
    3TTP     C123683   6.992   8.865   7.277 -0.0724  0.3799 -0.1004
    3TTP     C223684   7.079   8.970   7.287  0.0613  0.2713 -0.1076
    3TTP     C323685   7.197   8.935   7.360  0.0021  0.1359 -0.0755
    3TTP     C423686   7.407   8.875   7.490 -0.1014 -0.1054 -0.0184
    3TTP    C1723687   7.321   8.770   7.479 -0.2351  0.0036 -0.0113
    3TTP    C1823688   7.203   8.805   7.406 -0.1758  0.1388 -0.0434
    3TTP    C3223689   7.049   9.110   7.244 -0.6136 -0.3124 -0.6659
    3TTP    C3323690   7.097   9.167   7.111  0.0240  0.1745 -0.1359
    3TTP    C3423691   7.065   9.317   7.087 -0.4441  0.0864 -0.2060
    3TTP    C3523692   7.131   9.424   7.179  0.3312 -0.2719 -0.1402
    3TTP    C3623693   7.076   9.568   7.148  0.0243 -0.0079  0.3076
    3TTP    C3723694   7.123   9.687   7.240 -0.7418 -0.0266  0.3721
    3TTP    C3823695   7.275   9.673   7.271 -0.3137 -0.3372 -0.4215
    3TTP    C3923696   7.349   9.797   7.317  0.6460  0.0554 -0.2115
    3TTP    C4023697   7.491   9.773   7.348 -0.8696  0.1850 -0.0302
    3TTP    C4123698   7.561   9.903   7.386 -0.1293 -0.0668  0.6988
    3TTP    C4223699   7.617   9.987   7.274  0.2666 -0.6584  0.1905
    4BIM     F123700   7.634   7.439   8.193 -0.3449  0.0346  0.2856
    4BIM     F223701   7.887   7.374   8.270 -0.3266 -0.1290  0.0923
    4BIM     O123702   7.705   7.949   8.026 -0.1395 -0.0156  0.2179
    4BIM     N523703   8.301   7.646   8.263 -0.1538 -0.3997 -0.2339
    4BIM     N623704   8.305   8.057   8.117  0.0031 -0.4060 -0.2480
    4BIM    C1923705   7.972   8.069   8.041 -0.0491 -0.1898  0.0092
    4BIM    C2023706   7.944   7.943   8.080 -0.1013 -0.1708  0.0336
    4BIM    C2123707   7.804   7.888   8.069 -0.1456 -0.0796  0.1428
    4BIM    C2223708   7.809   7.750   8.120 -0.1973 -0.0819  0.1426
    4BIM    C2323709   7.704   7.659   8.129 -0.2494 -0.0129  0.2258
    4BIM    C2423710   7.734   7.533   8.180 -0.2922 -0.0306  0.2067
    4BIM    C2523711   7.864   7.500   8.220 -0.2826 -0.1148  0.1069
    4BIM    C2623712   7.969   7.591   8.211 -0.2307 -0.1841  0.0236
    4BIM    C2723713   7.942   7.718   8.159 -0.1869 -0.1674  0.0415
    4BIM    C2823714   8.029   7.836   8.136 -0.1276 -0.2253 -0.0296
    4BIM    C2923715   8.164   7.843   8.163 -0.1020 -0.3127 -0.1338
    4BIM    C3023716   8.239   7.735   8.218 -0.1307 -0.3603 -0.1884
    4BIM    C3123717   8.241   7.961   8.137 -0.0446 -0.3637 -0.1960
    5BIM     F123718   6.411   8.329   7.056 -0.2676  0.1535  0.5362
    5BIM     F223719   6.263   8.537   6.962  0.0848  0.0370 -0.2990
    5BIM     O123720   6.852   8.588   7.232 -0.3358  0.2329  0.5898
    5BIM     N523721   6.364   9.021   6.954  0.5429 -0.0744 -1.4617
    5BIM     N623722   6.739   9.182   7.110  0.4184  0.0114 -1.2515
    5BIM    C1923723   6.868   8.879   7.205 -0.0236  0.1498 -0.1892
    5BIM    C2023724   6.762   8.806   7.165 -0.0200  0.1342 -0.1700
    5BIM    C2123725   6.762   8.657   7.182 -0.1863  0.1795  0.2424
    5BIM    C2223726   6.634   8.609   7.127 -0.1358  0.1481  0.1510
    5BIM    C2323727   6.588   8.477   7.121 -0.2452  0.1717  0.4340
    5BIM    C2423728   6.463   8.456   7.065 -0.1671  0.1327  0.2739
    5BIM    C2523729   6.386   8.564   7.017  0.0142  0.0732 -0.1567
    5BIM    C2623730   6.432   8.695   7.023  0.1240  0.0494 -0.4408
    5BIM    C2723731   6.558   8.718   7.079  0.0477  0.0875 -0.2846
    5BIM    C2823732   6.634   8.844   7.100  0.1260  0.0768 -0.4990
    5BIM    C2923733   6.593   8.971   7.066  0.3005  0.0236 -0.9215
    5BIM    C3023734   6.467   8.998   7.005  0.4332 -0.0300 -1.2170
    5BIM    C3123735   6.674   9.086   7.091  0.3644  0.0172 -1.1005
    1BTD     S223736   3.017   2.987   6.832 -0.1527  0.0597  0.1803
    1BTD     N123737   2.895   2.857   6.806  0.0739 -0.0835 -0.1714
    1BTD     N223738   3.132   2.880   6.920 -0.2684  0.1912  0.4977
    1BTD     N323739   3.148   2.429   7.049 -0.0948  0.2005  0.5100
    1BTD     N423740   2.855   2.401   6.908  0.3269 -0.1381 -0.3146
    1BTD     C523741   2.878   2.619   6.861  0.2009 -0.1079 -0.2363
    1BTD     C623742   2.944   2.747   6.860  0.0528 -0.0288 -0.0408
    1BTD     C723743   3.077   2.759   6.924 -0.1388  0.1250  0.3338
    1BTD     C823744   3.137   2.644   6.985 -0.1727  0.1919  0.4941
    1BTD    C1523745   3.068   2.521   6.984 -0.0233  0.1103  0.2924
    1BTD    C1623746   2.940   2.509   6.922  0.1612 -0.0379 -0.0682
    1BTD    C4323747   2.836   2.302   7.019  0.8276  0.2157  0.3290
    1BTD    C4423748   2.772   2.161   7.002 -0.0040 -0.3049 -0.1456
    1BTD    C4523749   2.727   2.092   7.137 -0.2707 -0.5863  0.1007
    1BTD    C4623750   2.595   2.136   7.187  0.0442  0.2034 -0.0888
    1BTD    C4723751   2.841   2.053   6.914  0.3799  0.4619 -0.0417
    1BTD    C4823752   2.907   2.075   6.786 -0.5225  0.0489  0.0931
    1BTD    C4923753   2.979   1.950   6.728 -0.2509 -0.3496 -0.3905
    1BTD    C5023754   3.039   1.979   6.590  0.5832  0.0372  0.2003
    1BTD    C7523755   3.179   2.298   6.990  0.2254  0.0157  0.3541
    1BTD    C7623756   3.241   2.191   7.079 -0.4319 -0.6711 -0.6883
    1BTD    C7723757   3.320   2.096   6.993  0.4103  0.1174  0.5374
    1BTD    C7823758   3.405   1.989   7.061 -0.4643 -0.2711 -0.7145
    1BTD    C7923759   3.147   2.133   7.194 -0.5888 -0.3464 -0.3573
    1BTD    C8023760   3.059   2.226   7.278  0.0619 -0.0523 -0.8898
    1BTD    C8123761   2.983   2.140   7.380  0.0303 -0.4920  0.2821
    1BTD    C8223762   2.886   2.235   7.455  0.4466  0.0007 -0.2749
    2TTP     S123763   2.628   2.629   6.683  0.0101  0.1140  0.0277
    2TTP     S523764   2.560   2.211   6.759 -0.0209  0.1062 -0.0430
    2TTP     C123765   2.434   2.270   6.642  0.1898  0.0534 -0.2990
    2TTP     C223766   2.447   2.403   6.611  0.2118  0.0528 -0.2921
    2TTP     C323767   2.558   2.462   6.679  0.0631  0.0939 -0.0846
    2TTP     C423768   2.754   2.570   6.800 -0.2006  0.1668  0.2837
    2TTP    C1723769   2.741   2.438   6.830 -0.2226  0.1674  0.2767
    2TTP    C1823770   2.630   2.378   6.762 -0.0737  0.1264  0.0693
    2TTP    C3223771   2.372   2.496   6.513  0.1617  0.2218 -0.3379
    2TTP    C3323772   2.303   2.622   6.566  0.8201 -0.3591  0.1766
    2TTP    C3423773   2.259   2.721   6.463 -0.3164 -0.3478  0.2282
    2TTP    C3523774   2.144   2.822   6.491 -0.1689 -0.7081  0.2416
    2TTP    C3623775   2.132   2.942   6.396 -0.6388 -0.6480  0.0214
    2TTP    C3723776   2.034   3.052   6.436 -0.0918 -0.0873 -0.5584
    2TTP    C3823777   2.055   3.183   6.352  0.4070  0.6050 -0.7520
    2TTP    C3923778   1.928   3.264   6.336  0.4360 -0.2531 -0.1822
    2TTP    C4023779   1.953   3.412   6.301  0.2190  0.2044  0.2151
    2TTP    C4123780   1.831   3.509   6.299 -0.1643  0.2543 -0.3431
    2TTP    C4223781   1.881   3.651   6.281 -0.4231 -0.3154 -0.2239
    3TTP     S123782   3.385   2.730   7.133 -0.0949 -0.0355 -0.4834
    3TTP     S523783   3.391   2.345   7.325 -0.5412  0.2949  0.1987
    3TTP     C123784   3.514   2.452   7.406 -0.5649  0.3599  0.1492
    3TTP     C223785   3.520   2.577   7.351 -0.4284  0.2617 -0.0646
    3TTP     C323786   3.427   2.593   7.244 -0.3003  0.1316 -0.1966
    3TTP     C423787   3.261   2.623   7.053 -0.0712 -0.1004 -0.4337
    3TTP    C1723788   3.256   2.498   7.108 -0.2077 -0.0022 -0.2201
    3TTP    C1823789   3.349   2.482   7.215 -0.3358  0.1279 -0.0880
    3TTP    C3223790   3.610   2.693   7.393 -0.0360  0.5369 -0.1836
    3TTP    C3323791   3.550   2.814   7.468  0.3628  0.0728  0.3351
    3TTP    C3423792   3.459   2.789   7.589  0.5700  0.1395 -0.3133
    3TTP    C3523793   3.513   2.743   7.727 -0.7059  0.9443  0.1718
    3TTP    C3623794   3.617   2.825   7.789 -0.4869 -0.0475  0.2144
    3TTP    C3723795   3.571   2.955   7.855  0.4353 -0.4323 -0.4275
    3TTP    C3823796   3.673   3.072   7.859  0.1717  0.4991 -0.7682
    3TTP    C3923797   3.634   3.179   7.962  0.2521 -0.2087 -0.1202
    3TTP    C4023798   3.641   3.136   8.111  0.7586 -0.2005 -0.7534
    3TTP    C4123799   3.609   3.254   8.209  0.0310  0.1965  0.2774
    3TTP    C4223800   3.612   3.206   8.351 -0.0235  0.2942  0.2172
    4BIM     F123801   2.148   1.512   6.723 -0.2003  0.1577 -0.0513
    4BIM     F223802   1.900   1.604   6.658 -0.1331  0.3541 -0.0288
    4BIM     O123803   2.441   1.965   6.680  0.1400 -0.0561  0.0070
    4BIM     N523804   1.753   2.060   6.534  0.2058  0.4842  0.0448
    4BIM     N623805   2.032   2.396   6.513  0.4581  0.2776  0.0859
    4BIM    C1923806   2.309   2.214   6.602  0.3249  0.0556  0.0494
    4BIM    C2023807   2.245   2.097   6.616  0.2367  0.1017  0.0337
    4BIM    C2123808   2.320   1.973   6.656  0.1448  0.0391  0.0124
    4BIM    C2223809   2.221   1.864   6.661  0.0628  0.1128 -0.0007
    4BIM    C2323810   2.243   1.730   6.694 -0.0367  0.0910 -0.0215
    4BIM    C2423811   2.133   1.645   6.692 -0.1009  0.1737 -0.0307
    4BIM    C2523812   2.006   1.693   6.658 -0.0661  0.2749 -0.0191
    4BIM    C2623813   1.983   1.826   6.626  0.0329  0.2972  0.0018
    4BIM    C2723814   2.093   1.914   6.627  0.0991  0.2144  0.0113
    4BIM    C2823815   2.102   2.059   6.598  0.2074  0.2117  0.0328
    4BIM    C2923816   1.999   2.142   6.561  0.2687  0.2950  0.0489
    4BIM    C3023817   1.864   2.097   6.546  0.2339  0.3988  0.0466
    4BIM    C3123818   2.018   2.281   6.535  0.3725  0.2849  0.0693
    5BIM     F123819   3.614   1.799   7.907  0.1161 -0.2762 -0.4097
    5BIM     F223820   3.842   1.916   8.000 -0.2292  0.0618  0.0168
    5BIM     O123821   3.449   2.167   7.546  0.0315 -0.3324 -0.4287
    5BIM     N523822   4.051   2.347   7.876 -0.7861  0.5078  0.6171
    5BIM     N623823   3.876   2.611   7.575 -0.7828  0.3957  0.5164
    5BIM    C1923824   3.608   2.410   7.506 -0.3286 -0.0294 -0.0275
    5BIM    C2023825   3.640   2.313   7.594 -0.2939 -0.0285 -0.0395
    5BIM    C2123826   3.554   2.191   7.608 -0.1051 -0.1895 -0.2517
    5BIM    C2223827   3.618   2.106   7.710 -0.1152 -0.1436 -0.2073
    5BIM    C2323828   3.574   1.982   7.758  0.0257 -0.2505 -0.3537
    5BIM    C2423829   3.651   1.921   7.855 -0.0166 -0.1778 -0.2738
    5BIM    C2523830   3.769   1.981   7.903 -0.1946 -0.0036 -0.0539
    5BIM    C2623831   3.813   2.105   7.856 -0.3359  0.1038  0.0933
    5BIM    C2723832   3.736   2.168   7.758 -0.2956  0.0325  0.0155
    5BIM    C2823833   3.754   2.298   7.688 -0.4125  0.1102  0.1272
    5BIM    C2923834   3.857   2.387   7.706 -0.5957  0.2784  0.3438
    5BIM    C3023835   3.963   2.365   7.800 -0.6997  0.4039  0.4932
    5BIM    C3123836   3.867   2.510   7.634 -0.6975  0.3420  0.4375
    1BTD     S223837   7.662   1.627   4.675 -0.1141  0.1597 -0.1140
    1BTD     N123838   7.796   1.518   4.724 -0.0657  0.1468 -0.2755
    1BTD     N223839   7.740   1.776   4.738 -0.1943  0.0963  0.1354
    1BTD     N323840   8.142   1.884   4.956 -0.2706 -0.0563  0.3526
    1BTD     N423841   8.212   1.566   4.937 -0.1121  0.0058 -0.1537
    1BTD     C523842   8.012   1.547   4.835 -0.0918  0.0724 -0.2059
    1BTD     C623843   7.888   1.595   4.782 -0.1096  0.0983 -0.1420
    1BTD     C723844   7.856   1.739   4.790 -0.1816  0.0701  0.0880
    1BTD     C823845   7.950   1.828   4.852 -0.2323  0.0174  0.2427
    1BTD    C1523846   8.071   1.777   4.903 -0.2125 -0.0064  0.1728
    1BTD    C1623847   8.102   1.638   4.895 -0.1430  0.0208 -0.0488
    1BTD    C4323848   8.355   1.603   4.916 -0.0216  0.1833 -0.0965
    1BTD    C4423849   8.470   1.549   4.998 -0.3513 -0.4455  0.1586
    1BTD    C4523850   8.430   1.555   5.142  0.0160  0.8931 -0.6616
    1BTD    C4623851   8.520   1.484   5.256  0.5497 -0.0041  0.5409
    1BTD    C4723852   8.607   1.601   4.947 -0.1809  0.4724  0.2207
    1BTD    C4823853   8.656   1.738   4.966  0.0643 -0.2363 -0.2575
    1BTD    C4923854   8.783   1.763   4.889 -0.1747 -0.3205 -0.1881
    1BTD    C5023855   8.835   1.907   4.902 -0.0533  0.4248  0.2218
    1BTD    C7523856   8.251   1.867   5.054 -0.3854 -0.4806 -0.0509
    1BTD    C7623857   8.349   1.972   5.103 -0.2858  0.2870  0.4521
    1BTD    C7723858   8.436   2.001   4.974  0.6201  0.3394  0.2967
    1BTD    C7823859   8.556   2.089   4.988 -0.0510 -0.6943 -0.1951
    1BTD    C7923860   8.430   1.930   5.226  0.3451  0.4286  0.7471
    1BTD    C8023861   8.361   1.894   5.354  0.6754  0.8419  0.1709
    1BTD    C8123862   8.448   1.828   5.463  1.1055 -0.2841 -0.0722
    1BTD    C8223863   8.543   1.921   5.532  0.1099 -0.3767 -0.2979
    2TTP     S123864   8.003   1.246   4.844  0.0156 -0.0860 -0.1767
    2TTP     S523865   8.373   1.242   5.063  0.0226 -0.0736 -0.1892
    2TTP     C123866   8.311   1.072   5.052  0.0632 -0.0845 -0.2463
    2TTP     C223867   8.193   1.063   4.983  0.0634 -0.0890 -0.2459
    2TTP     C323868   8.147   1.190   4.937  0.0315 -0.0839 -0.2004
    2TTP     C423869   8.065   1.417   4.855 -0.0250 -0.0750 -0.1194
    2TTP    C1723870   8.183   1.425   4.924 -0.0254 -0.0705 -0.1198
    2TTP    C1823871   8.229   1.298   4.969  0.0064 -0.0756 -0.1655
    2TTP    C3223872   8.121   0.940   4.923 -0.2399 -0.6073 -0.1079
    2TTP    C3323873   8.163   0.894   4.786  0.0245 -0.3537 -0.0232
    2TTP    C3423874   8.113   0.745   4.780 -0.8118 -0.5974  0.2464
    2TTP    C3523875   8.102   0.695   4.637 -0.4451 -0.8737 -0.3872
    2TTP    C3623876   8.024   0.570   4.604  0.0144 -0.2650  0.2124
    2TTP    C3723877   7.877   0.591   4.629  0.3162  0.3242  0.6262
    2TTP    C3823878   7.795   0.459   4.613  0.0720 -0.1332  0.1481
    2TTP    C3923879   7.654   0.482   4.667 -0.1060  0.7734  0.0737
    2TTP    C4023880   7.567   0.356   4.655 -0.7955 -0.2981  0.4205
    2TTP    C4123881   7.450   0.358   4.754 -0.0588 -0.5784  0.1579
    2TTP    C4223882   7.356   0.239   4.730 -0.4087  0.1620  1.1432
    3TTP     S123883   7.854   2.110   4.821 -0.0086 -0.2314 -0.1469
    3TTP     S523884   8.215   2.259   5.001 -0.2606  0.2831 -0.0618
    3TTP     C123885   8.112   2.401   4.952 -0.3931  0.1388 -0.2049
    3TTP     C223886   7.994   2.363   4.894 -0.3229 -0.0286 -0.2396
    3TTP     C323887   7.981   2.221   4.885 -0.1624 -0.0489 -0.1544
    3TTP     C423888   7.957   1.969   4.869  0.1236 -0.0871 -0.0037
    3TTP    C1723889   8.074   2.006   4.928  0.0538  0.0803  0.0310
    3TTP    C1823890   8.087   2.148   4.936 -0.1070  0.1007 -0.0542
    3TTP    C3223891   7.892   2.447   4.820 -0.7275 -0.4467  0.4023
    3TTP    C3323892   7.752   2.473   4.875  0.2344  0.4342  0.2012
    3TTP    C3423893   7.682   2.573   4.788  0.1265 -0.1856 -0.2396
    3TTP    C3523894   7.544   2.619   4.848  0.0634  0.4529  0.2043
    3TTP    C3623895   7.461   2.722   4.772 -0.4115  0.1952  0.0961
    3TTP    C3723896   7.330   2.750   4.839  0.0871  0.0448  0.2824
    3TTP    C3823897   7.284   2.881   4.790  0.4627 -0.2090 -0.5303
    3TTP    C3923898   7.143   2.929   4.841 -0.6057  0.2256 -0.3299
    3TTP    C4023899   7.136   3.079   4.844 -0.4130  0.4086  0.0747
    3TTP    C4123900   6.992   3.118   4.859  0.0803  0.2550  0.4934
    3TTP    C4223901   6.973   3.257   4.898  0.2857 -0.5250 -0.0690
    4BIM     F123902   8.807   0.951   5.690 -0.4208 -0.0283  0.3688
    4BIM     F223903   8.841   0.693   5.608 -0.0317  0.0727  0.2060
    4BIM     O123904   8.459   1.131   5.316 -0.3130 -0.1796  0.1951
    4BIM     N523905   8.641   0.452   5.225  0.6044  0.1100 -0.1521
    4BIM     N623906   8.363   0.645   4.950  0.6099 -0.0286 -0.2549
    4BIM    C1923907   8.368   0.949   5.106  0.0966 -0.1368 -0.0221
    4BIM    C2023908   8.454   0.914   5.203  0.0544 -0.1027  0.0279
    4BIM    C2123909   8.496   1.013   5.308 -0.1602 -0.1279  0.1396
    4BIM    C2223910   8.590   0.942   5.397 -0.1521 -0.0793  0.1698
    4BIM    C2323911   8.655   0.993   5.509 -0.3135 -0.0813  0.2658
    4BIM    C2423912   8.739   0.907   5.578 -0.2683 -0.0295  0.2759
    4BIM    C2523913   8.757   0.774   5.536 -0.0679  0.0225  0.1918
    4BIM    C2623914   8.692   0.723   5.425  0.0939  0.0248  0.0956
    4BIM    C2723915   8.606   0.809   5.353  0.0513 -0.0272  0.0840
    4BIM    C2823916   8.523   0.786   5.232  0.1862 -0.0395 -0.0064
    4BIM    C2923917   8.513   0.669   5.161  0.3934  0.0000 -0.1035
    4BIM    C3023918   8.584   0.550   5.197  0.5085  0.0604 -0.1298
    4BIM    C3123919   8.430   0.656   5.046  0.5114 -0.0159 -0.1862
    5BIM     F123920   8.796   2.824   5.131  0.2029 -0.0804 -0.1698
    5BIM     F223921   8.645   3.049   5.153  0.2789 -0.0546  0.1050
    5BIM     O123922   8.418   2.458   5.004 -0.0005  0.0998 -0.0838
    5BIM     N523923   8.157   3.112   5.094  0.2434  0.1108  0.5611
    5BIM     N623924   7.892   2.781   4.991  0.0693  0.2464  0.5729
    5BIM    C1923925   8.139   2.543   4.980 -0.0001  0.1885  0.2091
    5BIM    C2023926   8.240   2.627   5.011  0.0482  0.1421  0.1769
    5BIM    C2123927   8.381   2.575   5.022  0.0443  0.0984  0.0236
    5BIM    C2223928   8.465   2.691   5.057  0.1042  0.0539  0.0267
    5BIM    C2323929   8.602   2.693   5.077  0.1228  0.0048 -0.0894
    5BIM    C2423930   8.660   2.815   5.109  0.1818 -0.0309 -0.0599
    5BIM    C2523931   8.582   2.931   5.121  0.2209 -0.0177  0.0816
    5BIM    C2623932   8.445   2.930   5.100  0.2027  0.0314  0.1981
    5BIM    C2723933   8.384   2.807   5.068  0.1433  0.0681  0.1704
    5BIM    C2823934   8.243   2.772   5.040  0.1104  0.1228  0.2683
    5BIM    C2923935   8.135   2.858   5.041  0.1328  0.1502  0.4154
    5BIM    C3023936   8.148   2.997   5.070  0.1936  0.1284  0.4951
    5BIM    C3123937   8.002   2.815   5.013  0.0978  0.2030  0.5014
    1BTD     S223938   4.406   4.364   7.808 -0.3871  0.1727  0.0532
    1BTD     N123939   4.433   4.196   7.863 -0.3877  0.2160  0.1850
    1BTD     N223940   4.269   4.322   7.699 -0.2092  0.0485 -0.1227
    1BTD     N323941   4.040   3.930   7.578  0.1527 -0.1262 -0.2435
    1BTD     N423942   4.243   3.775   7.780 -0.0671  0.0799  0.1354
    1BTD     C523943   4.331   3.978   7.818 -0.2177  0.1423  0.1546
    1BTD     C623944   4.344   4.120   7.801 -0.2617  0.1397  0.0955
    1BTD     C723945   4.252   4.191   7.709 -0.1616  0.0459 -0.0767
    1BTD     C823946   4.152   4.115   7.638 -0.0229 -0.0402 -0.1813
    1BTD    C1523947   4.144   3.976   7.657  0.0155 -0.0339 -0.1181
    1BTD    C1623948   4.232   3.908   7.746 -0.0806  0.0564  0.0478
    1BTD    C4323949   4.132   3.680   7.784  0.4313 -0.5961  0.3201
    1BTD    C4423950   4.151   3.529   7.780  0.1799 -0.5499 -0.5928
    1BTD    C4523951   4.020   3.443   7.808 -0.3463 -0.0075 -0.3386
    1BTD    C4623952   3.950   3.464   7.942  0.4236 -0.3173  0.1171
    1BTD    C4723953   4.237   3.489   7.663  0.0459  0.5232  0.2042
    1BTD    C4823954   4.280   3.341   7.649 -0.9401 -0.0374  0.1101
    1BTD    C4923955   4.338   3.295   7.510  0.6978 -0.0114 -0.4204
    1BTD    C5023956   4.263   3.348   7.388 -0.6691 -0.0206 -0.3865
    1BTD    C7523957   4.051   3.806   7.495 -0.0085  0.0633 -0.3462
    1BTD    C7623958   3.932   3.715   7.438 -0.2428 -0.1785  0.3899
    1BTD    C7723959   3.850   3.655   7.548 -0.1553 -0.3441  0.4493
    1BTD    C7823960   3.721   3.593   7.498 -0.0818  0.4618 -0.1659
    1BTD    C7923961   3.980   3.617   7.327 -0.4726 -0.6227  0.0321
    1BTD    C8023962   4.047   3.677   7.199  0.1332  0.1628 -0.3346
    1BTD    C8123963   4.038   3.585   7.079 -0.0812  0.3217 -0.2725
    1BTD    C8223964   4.100   3.644   6.954 -0.2417 -0.3624 -0.0371
    2TTP     S123965   4.534   3.885   8.017  0.1156 -0.0106 -0.0520
    2TTP     S523966   4.384   3.483   7.992  0.0578 -0.0043  0.1841
    2TTP     C123967   4.510   3.490   8.123  0.0407  0.0605  0.1973
    2TTP     C223968   4.563   3.615   8.139  0.0575  0.0625  0.1252
    2TTP     C323969   4.507   3.709   8.048  0.0845  0.0127  0.0567
    2TTP     C423970   4.408   3.878   7.886  0.1326 -0.0753 -0.0654
    2TTP    C1723971   4.355   3.754   7.870  0.1159 -0.0773  0.0069
    2TTP    C1823972   4.411   3.659   7.962  0.0889 -0.0276  0.0752
    2TTP    C3223973   4.679   3.658   8.228 -0.6289 -0.3268 -0.4936
    2TTP    C3323974   4.806   3.693   8.145  0.2395 -0.0677 -0.0384
    2TTP    C3423975   4.879   3.600   8.046  0.1912 -0.3002 -0.0139
    2TTP    C3523976   5.001   3.665   7.973 -0.7206  0.3939 -0.0381
    2TTP    C3623977   5.065   3.548   7.894  0.3594 -0.1725 -0.7067
    2TTP    C3723978   5.180   3.587   7.802  0.0977 -0.6462 -0.3517
    2TTP    C3823979   5.311   3.636   7.871 -0.3494 -0.1289 -0.8647
    2TTP    C3923980   5.384   3.550   7.980 -0.4219  0.0785  0.2189
    2TTP    C4023981   5.527   3.605   8.008  0.5919  0.6855 -0.8782
    2TTP    C4123982   5.601   3.542   8.122  0.1411  0.0165 -0.6525
    2TTP    C4223983   5.745   3.586   8.123  0.2158  0.5181  0.3363
    3TTP     S123984   3.957   4.310   7.525 -0.0474  0.1476  0.0396
    3TTP     S523985   3.694   3.985   7.426 -0.2365  0.2521  0.1967
    3TTP     C123986   3.606   4.141   7.397 -0.1779  0.2877  0.2116
    3TTP     C223987   3.682   4.251   7.426 -0.1161  0.2577  0.1639
    3TTP     C323988   3.813   4.215   7.472 -0.1127  0.2053  0.1140
    3TTP     C423989   4.045   4.154   7.554 -0.1060  0.1121  0.0248
    3TTP    C1723990   3.969   4.044   7.525 -0.1677  0.1421  0.0723
    3TTP    C1823991   3.839   4.080   7.479 -0.1711  0.1945  0.1223
    3TTP    C3223992   3.628   4.395   7.420 -0.3634 -0.1712 -0.7011
    3TTP    C3323993   3.722   4.499   7.360 -0.7432  0.3429  0.4232
    3TTP    C3423994   3.753   4.478   7.211 -0.6001  0.2766  0.0703
    3TTP    C3523995   3.638   4.493   7.119  0.4262  0.5359  0.4804
    3TTP    C3623996   3.570   4.630   7.105 -0.2507  0.5701 -0.1336
    3TTP    C3723997   3.673   4.733   7.069  0.2930 -0.7511 -0.2544
    3TTP    C3823998   3.614   4.873   7.073  0.5847 -0.5234 -0.6894
    3TTP    C3923999   3.711   4.972   7.033 -1.0399  0.0211  0.8235
    3TTP    C4024000   3.651   5.113   7.052  0.5072  0.0439 -0.1086
    3TTP    C4124001   3.756   5.211   7.014  0.2862 -0.1928 -0.2007
    3TTP    C4224002   3.728   5.356   7.031 -0.1269 -1.1607 -0.3226
    4BIM     F124003   4.368   2.681   8.180  0.1467 -0.1671 -0.0086
    4BIM     F224004   4.490   2.683   8.423 -0.3318  0.0654  0.2308
    4BIM     O124005   4.416   3.201   8.037  0.3879 -0.2939 -0.3960
    4BIM     N524006   4.699   3.056   8.672 -0.8479  0.3092  0.2995
    4BIM     N624007   4.711   3.463   8.512 -0.5631  0.1633 -0.0520
    4BIM    C1924008   4.549   3.388   8.220  0.0164 -0.1168 -0.3049
    4BIM    C2024009   4.532   3.257   8.246 -0.0255 -0.0940 -0.2170
    4BIM    C2124010   4.463   3.167   8.147  0.1748 -0.1897 -0.2716
    4BIM    C2224011   4.462   3.032   8.207  0.0678 -0.1352 -0.1490
    4BIM    C2324012   4.408   2.916   8.152  0.1832 -0.1891 -0.1471
    4BIM    C2424013   4.419   2.800   8.227  0.0442 -0.1194 -0.0178
    4BIM    C2524014   4.482   2.801   8.353 -0.2023  0.0003  0.1052
    4BIM    C2624015   4.536   2.917   8.408 -0.3185  0.0547  0.1047
    4BIM    C2724016   4.525   3.035   8.333 -0.1810 -0.0144 -0.0253
    4BIM    C2824017   4.571   3.174   8.362 -0.2480  0.0157 -0.0625
    4BIM    C2924018   4.637   3.216   8.475 -0.4736  0.1243  0.0293
    4BIM    C3024019   4.671   3.128   8.583 -0.6788  0.2257  0.1776
    4BIM    C3124020   4.677   3.351   8.495 -0.5215  0.1452 -0.0160
    5BIM     F124021   2.978   3.622   7.305  0.1020 -0.1189  0.0662
    5BIM     F224022   2.821   3.834   7.239 -0.0704 -0.1272  0.4456
    5BIM     O124023   3.452   3.870   7.391  0.0842  0.0166 -0.2259
    5BIM     N524024   2.931   4.315   7.205 -0.3310 -0.0428  0.7828
    5BIM     N624025   3.333   4.466   7.285 -0.3102  0.0648  0.4781
    5BIM    C1924026   3.469   4.161   7.358 -0.0869  0.0568  0.0327
    5BIM    C2024027   3.356   4.090   7.339 -0.0758  0.0230  0.0914
    5BIM    C2124028   3.355   3.941   7.358  0.0144  0.0041 -0.0503
    5BIM    C2224029   3.218   3.896   7.329  0.0030 -0.0317  0.0609
    5BIM    C2324030   3.168   3.766   7.334  0.0679 -0.0589 -0.0082
    5BIM    C2424031   3.034   3.748   7.303  0.0412 -0.0908  0.1246
    5BIM    C2524032   2.953   3.857   7.269 -0.0476 -0.0951  0.3200
    5BIM    C2624033   3.002   3.987   7.264 -0.1126 -0.0681  0.3898
    5BIM    C2724034   3.137   4.007   7.295 -0.0870 -0.0355  0.2576
    5BIM    C2824035   3.219   4.131   7.300 -0.1389 -0.0021  0.2842
    5BIM    C2924036   3.176   4.259   7.273 -0.2283  0.0044  0.4549
    5BIM    C3024037   3.042   4.289   7.235 -0.2846 -0.0215  0.6346
    5BIM    C3124038   3.263   4.372   7.280 -0.2729  0.0377  0.4667
    1BTD     S224039   3.993   0.081   3.303 -0.0502 -0.0651  0.0167
    1BTD     N124040   4.078  -0.070   3.352  0.0695 -0.1266 -0.3715
    1BTD     N224041   4.119   0.191   3.368 -0.2239 -0.1258  0.4612
    1BTD     N324042   4.530   0.142   3.590 -0.3618 -0.3608  0.6661
    1BTD     N424043   4.479  -0.179   3.570 -0.0004 -0.3622 -0.3599
    1BTD     C524044   4.288  -0.123   3.466  0.0286 -0.2496 -0.3530
    1BTD     C624045   4.190  -0.033   3.412 -0.0216 -0.1862 -0.1607
    1BTD     C724046   4.213   0.113   3.421 -0.1857 -0.1858  0.3054
    1BTD     C824047   4.333   0.162   3.484 -0.2916 -0.2485  0.5558
    1BTD    C1524048   4.426   0.069   3.536 -0.2372 -0.3092  0.3537
    1BTD    C1624049   4.403  -0.071   3.527 -0.0789 -0.3097 -0.0954
    1BTD    C4324050   4.627  -0.185   3.579  0.2161  0.0674  0.2201
    1BTD    C4424051   4.699  -0.281   3.677 -0.2775  0.3302  0.8328
    1BTD    C4524052   4.849  -0.301   3.657 -0.2159  0.3835  0.0273
    1BTD    C4624053   4.884  -0.386   3.532  0.0876  0.2023  0.1275
    1BTD    C4724054   4.664  -0.252   3.819 -1.4253 -0.0864  0.3382
    1BTD    C4824055   4.704  -0.358   3.926 -0.5032 -0.3291  0.5817
    1BTD    C4924056   4.654  -0.332   4.064 -0.0065 -0.1055  0.2038
    1BTD    C5024057   4.719  -0.416   4.167 -0.1073 -0.2208 -0.2436
    1BTD    C7524058   4.613   0.116   3.709  0.1163  1.0298 -0.7247
    1BTD    C7624059   4.758   0.150   3.730  0.3666 -0.2351 -0.6091
    1BTD    C7724060   4.814   0.121   3.872  0.4072  0.4494  0.7042
    1BTD    C7824061   4.735   0.180   3.985 -0.3914  0.0059  0.2061
    1BTD    C7924062   4.842   0.100   3.619 -0.1919 -0.0571 -0.0525
    1BTD    C8024063   4.994   0.142   3.609  0.5079 -0.9518  0.6415
    1BTD    C8124064   5.017   0.298   3.594 -0.1655  0.6017 -0.0714
    1BTD    C8224065   5.168   0.328   3.597 -0.3170  0.7559  0.3313
    2TTP     S124066   4.176  -0.398   3.446  0.0262 -0.0534  0.0903
    2TTP     S524067   4.524  -0.553   3.647  0.1714  0.0889 -0.0496
    2TTP     C124068   4.407  -0.690   3.618  0.1577  0.0652  0.1159
    2TTP     C224069   4.293  -0.650   3.554  0.1122  0.0198  0.1688
    2TTP     C324070   4.294  -0.510   3.526  0.0864  0.0024  0.0806
    2TTP     C424071   4.293  -0.261   3.475  0.0401 -0.0296 -0.0753
    2TTP    C1724072   4.407  -0.301   3.539  0.0855  0.0161 -0.1281
    2TTP    C1824073   4.406  -0.441   3.567  0.1115  0.0336 -0.0399
    2TTP    C3224074   4.177  -0.731   3.497  0.0586 -0.1279 -0.1048
    2TTP    C3324075   4.033  -0.733   3.554 -0.4817  0.9754  0.3247
    2TTP    C3424076   4.001  -0.788   3.694 -0.2602 -0.7530 -0.3513
    2TTP    C3524077   4.071  -0.909   3.741 -0.0598 -0.0350  0.1499
    2TTP    C3624078   4.075  -0.919   3.896 -0.7162  0.5003  0.6068
    2TTP    C3724079   4.140  -1.053   3.937 -0.3620  0.1992 -0.4617
    2TTP    C3824080   4.099  -1.096   4.083  0.4234 -0.2405  0.3949
    2TTP    C3924081   4.127  -1.241   4.125 -0.1492 -0.2050  0.3183
    2TTP    C4024082   4.105  -1.296   4.265 -0.0219 -0.1092  0.7393
    2TTP    C4124083   4.179  -1.224   4.379 -0.2971  0.9273  0.3993
    2TTP    C4224084   4.324  -1.263   4.404 -0.1852 -0.4835  0.4108
    3TTP     S124085   4.330   0.463   3.480 -0.1012  0.3651 -0.0291
    3TTP     S524086   4.719   0.467   3.663 -0.1773  0.0655  0.1413
    3TTP     C124087   4.669   0.639   3.628 -0.0657  0.1089  0.1948
    3TTP     C224088   4.546   0.648   3.570 -0.0356  0.2040  0.1454
    3TTP     C324089   4.487   0.519   3.550 -0.0995  0.2460  0.0634
    3TTP     C424090   4.380   0.291   3.514 -0.2128  0.3217 -0.0826
    3TTP    C1724091   4.503   0.282   3.573 -0.2428  0.2266 -0.0332
    3TTP    C1824092   4.563   0.411   3.593 -0.1788  0.1846  0.0488
    3TTP    C3224093   4.466   0.767   3.527  0.8652 -0.5829 -0.7219
    3TTP    C3324094   4.342   0.811   3.607  0.3980  0.0337 -0.2400
    3TTP    C3424095   4.292   0.950   3.576  0.0142  0.4593 -0.6484
    3TTP    C3524096   4.382   1.072   3.616  0.2168  0.5805 -0.0448
    3TTP    C3624097   4.318   1.207   3.600  0.1222  0.3460  0.2500
    3TTP    C3724098   4.424   1.317   3.575  0.6672 -0.1417  0.4975
    3TTP    C3824099   4.490   1.312   3.434  0.0903 -0.1857  0.3682
    3TTP    C3924100   4.406   1.298   3.303 -0.1296  0.1018  0.2010
    3TTP    C4024101   4.287   1.385   3.286 -0.0901 -0.3953 -0.2292
    3TTP    C4124102   4.176   1.332   3.188  0.4082 -0.4176 -0.0363
    3TTP    C4224103   4.049   1.419   3.191 -0.0584  0.0653 -0.4757
    4BIM     F124104   4.931  -1.134   4.074  0.1220  0.0300 -0.1518
    4BIM     F224105   4.838  -1.357   3.947 -0.1009  0.0699 -0.0581
    4BIM     O124106   4.624  -0.751   3.845  0.3488  0.2139 -0.1494
    4BIM     N524107   4.486  -1.404   3.603 -0.2593  0.2580  0.0783
    4BIM     N624108   4.264  -1.060   3.450 -0.0371  0.3934  0.0611
    4BIM    C1924109   4.426  -0.828   3.644  0.2167  0.3173 -0.0592
    4BIM    C2024110   4.507  -0.916   3.706  0.1683  0.2692 -0.0634
    4BIM    C2124111   4.606  -0.869   3.809  0.2420  0.2179 -0.1111
    4BIM    C2224112   4.677  -0.989   3.856  0.1625  0.1738 -0.1029
    4BIM    C2324113   4.778  -0.995   3.952  0.1906  0.1192 -0.1366
    4BIM    C2424114   4.830  -1.121   3.980  0.1003  0.0849 -0.1204
    4BIM    C2524115   4.783  -1.235   3.915 -0.0145  0.1052 -0.0722
    4BIM    C2624116   4.682  -1.229   3.820 -0.0432  0.1602 -0.0385
    4BIM    C2724117   4.627  -1.103   3.789  0.0471  0.1953 -0.0541
    4BIM    C2824118   4.521  -1.063   3.694  0.0461  0.2549 -0.0279
    4BIM    C2924119   4.449  -1.146   3.612 -0.0496  0.2894  0.0202
    4BIM    C3024120   4.470  -1.288   3.607 -0.1645  0.2718  0.0519
    4BIM    C3124121   4.348  -1.098   3.523 -0.0421  0.3464  0.0424
    5BIM     F124122   5.226   0.796   4.215 -0.0014  0.2194  0.0256
    5BIM     F224123   5.246   1.050   4.120 -0.2598  0.2797  0.1320
    5BIM     O124124   4.854   0.590   3.880  0.2387 -0.0315 -0.0876
    5BIM     N524125   5.008   1.269   3.745 -0.4601  0.1874  0.2040
    5BIM     N624126   4.714   1.057   3.502 -0.2204 -0.0208  0.0940
    5BIM    C1924127   4.740   0.760   3.670  0.0772 -0.0631 -0.0263
    5BIM    C2024128   4.833   0.802   3.758  0.0268 -0.0023 -0.0019
    5BIM    C2124129   4.887   0.709   3.863  0.1163  0.0101 -0.0364
    5BIM    C2224130   4.985   0.786   3.941  0.0299  0.0808  0.0030
    5BIM    C2324131   5.061   0.742   4.049  0.0677  0.1154 -0.0093
    5BIM    C2424132   5.148   0.833   4.108 -0.0319  0.1822  0.0348
    5BIM    C2524133   5.158   0.964   4.059 -0.1648  0.2132  0.0897
    5BIM    C2624134   5.082   1.009   3.951 -0.2034  0.1790  0.1023
    5BIM    C2724135   4.994   0.918   3.891 -0.1038  0.1113  0.0580
    5BIM    C2824136   4.901   0.933   3.776 -0.1111  0.0614  0.0571
    5BIM    C2924137   4.881   1.046   3.701 -0.2241  0.0722  0.1024
    5BIM    C3024138   4.951   1.169   3.725 -0.3535  0.1355  0.1581
    5BIM    C3124139   4.789   1.052   3.592 -0.2214  0.0210  0.0975
    1BTD     S224140   0.312   7.558   1.382 -0.0426 -0.3074  0.2101
    1BTD     N124141   0.149   7.549   1.305 -0.1483 -0.2691  0.4271
    1BTD     N224142   0.358   7.390   1.338 -0.0064 -0.2055 -0.1468
    1BTD     N324143   0.160   7.031   1.109 -0.1233  0.0721 -0.4826
    1BTD     N424144  -0.097   7.227   1.069 -0.2983 -0.0063  0.2246
    1BTD     C524145   0.024   7.379   1.182 -0.2244 -0.1310  0.3128
    1BTD     C624146   0.139   7.428   1.253 -0.1509 -0.1864  0.2323
    1BTD     C724147   0.256   7.339   1.272 -0.0715 -0.1508 -0.0889
    1BTD     C824148   0.252   7.205   1.218 -0.0695 -0.0615 -0.3136
    1BTD    C1524149   0.137   7.162   1.149 -0.1430 -0.0095 -0.2243
    1BTD    C1624150   0.024   7.247   1.132 -0.2195 -0.0441  0.0852
    1BTD    C4324151  -0.172   7.102   1.084  0.0529  0.3362  0.2493
    1BTD    C4424152  -0.278   7.041   0.987  0.6221 -0.9300  0.2785
    1BTD    C4524153  -0.245   7.017   0.841  0.1375 -0.6443  0.0183
    1BTD    C4624154  -0.180   7.125   0.742  0.1923  0.1722  0.7898
    1BTD    C4724155  -0.372   6.934   1.034  0.0332  0.6121  0.1081
    1BTD    C4824156  -0.322   6.800   1.086  0.3219  0.0483  0.4365
    1BTD    C4924157  -0.294   6.773   1.236 -0.2407  0.2045  0.0490
    1BTD    C5024158  -0.212   6.646   1.261  0.2137 -0.4211  0.5771
    1BTD    C7524159   0.130   6.985   0.974  0.3392 -0.4996  0.6193
    1BTD    C7624160   0.140   6.842   0.917 -0.1710 -0.1242  0.5811
    1BTD    C7724161   0.189   6.842   0.775  0.0234  0.7550  0.2647
    1BTD    C7824162   0.084   6.864   0.659 -0.5875  0.4837  0.1646
    1BTD    C7924163   0.035   6.733   0.960 -0.6972 -0.4019  0.0596
    1BTD    C8024164   0.079   6.590   0.933  0.2201  0.5575  0.4260
    1BTD    C8124165  -0.010   6.484   0.991 -0.2490  0.3526 -0.4845
    1BTD    C8224166   0.038   6.338   0.955 -0.5852 -0.5304 -0.2423
    2TTP     S124167  -0.180   7.602   1.145 -0.1158 -0.1874 -0.0998
    2TTP     S524168  -0.435   7.328   0.933  0.0207 -0.2788 -0.1471
    2TTP     C124169  -0.515   7.492   0.936 -0.1280 -0.3543  0.0077
    2TTP     C224170  -0.441   7.586   1.002 -0.1788 -0.3303  0.0314
    2TTP     C324171  -0.318   7.532   1.052 -0.1023 -0.2519 -0.0718
    2TTP     C424172  -0.100   7.438   1.141  0.0329 -0.1122 -0.2545
    2TTP    C1724173  -0.174   7.344   1.076  0.0836 -0.1361 -0.2782
    2TTP    C1824174  -0.297   7.398   1.026  0.0069 -0.2145 -0.1751
    2TTP    C3224175  -0.489   7.730   1.034 -0.0613  0.0242 -0.0290
    2TTP    C3324176  -0.463   7.798   1.166 -0.1437  0.3145  0.0957
    2TTP    C3424177  -0.507   7.947   1.169  0.1621 -0.0683  0.3596
    2TTP    C3524178  -0.474   8.043   1.049  0.2180 -0.3890  0.3575
    2TTP    C3624179  -0.488   8.195   1.077 -0.4145  0.3692  0.2036
    2TTP    C3724180  -0.627   8.256   1.098  0.2191 -0.2540  0.0260
    2TTP    C3824181  -0.644   8.389   1.179  0.4570  0.1919 -0.4861
    2TTP    C3924182  -0.549   8.426   1.300 -0.1616 -0.2890  0.3712
    2TTP    C4024183  -0.529   8.340   1.423 -0.0755 -0.2336 -0.5513
    2TTP    C4124184  -0.654   8.283   1.484 -0.2279 -0.0261 -0.5318
    2TTP    C4224185  -0.629   8.191   1.609  0.0844  0.3859  0.0316
    3TTP     S124186   0.495   7.046   1.319 -0.1544  0.0977  0.1278
    3TTP     S524187   0.316   6.692   1.151 -0.0387  0.0504  0.1041
    3TTP     C124188   0.467   6.644   1.241 -0.0649  0.0841  0.1660
    3TTP     C224189   0.531   6.751   1.298 -0.1022  0.1006  0.1770
    3TTP     C324190   0.463   6.874   1.273 -0.1114  0.0874  0.1369
    3TTP     C424191   0.344   7.094   1.229 -0.1282  0.0641  0.0659
    3TTP    C1724192   0.280   6.988   1.172 -0.0910  0.0476  0.0550
    3TTP    C1824193   0.348   6.864   1.197 -0.0817  0.0608  0.0950
    3TTP    C3224194   0.653   6.751   1.391 -0.3449  0.1250  0.0500
    3TTP    C3324195   0.790   6.789   1.334 -0.2590  0.5045  0.0063
    3TTP    C3424196   0.905   6.805   1.430  0.1213 -0.3287 -0.2354
    3TTP    C3524197   1.043   6.800   1.369  0.2550 -0.2457  0.3132
    3TTP    C3624198   1.167   6.788   1.449 -0.6842  0.3965 -0.0345
    3TTP    C3724199   1.208   6.912   1.529  0.4432 -0.1069  0.0212
    3TTP    C3824200   1.338   6.914   1.605 -0.5563  0.0257  0.9154
    3TTP    C3924201   1.470   6.894   1.527 -0.0529  0.5742 -0.0598
    3TTP    C4024202   1.585   6.821   1.605 -0.0089 -0.4634 -0.6545
    3TTP    C4124203   1.637   6.902   1.728  0.0368  0.4719  0.0419
    3TTP    C4224204   1.711   7.024   1.693 -0.0938 -0.3971 -0.3114
    4BIM     F124205  -0.923   7.122   0.336  0.0470 -0.3684  0.2639
    4BIM     F224206  -1.132   7.289   0.381  0.2141 -0.0180 -0.2378
    4BIM     O124207  -0.565   7.304   0.699 -0.2148 -0.4321  0.5547
    4BIM     N524208  -1.179   7.660   0.706  0.2682  0.4405 -0.7519
    4BIM     N624209  -0.857   7.769   0.980  0.0300  0.3201 -0.4236
    4BIM    C1924210  -0.638   7.529   0.872 -0.1482 -0.1200  0.1786
    4BIM    C2024211  -0.720   7.477   0.778 -0.0887 -0.1175  0.1251
    4BIM    C2124212  -0.675   7.361   0.694 -0.1285 -0.2835  0.3287
    4BIM    C2224213  -0.788   7.329   0.604 -0.0451 -0.2345  0.2067
    4BIM    C2324214  -0.793   7.229   0.507 -0.0460 -0.3442  0.3192
    4BIM    C2424215  -0.910   7.218   0.433  0.0426 -0.2675  0.1650
    4BIM    C2524216  -1.018   7.305   0.457  0.1283 -0.0871 -0.0934
    4BIM    C2624217  -1.013   7.404   0.554  0.1297  0.0231 -0.2069
    4BIM    C2724218  -0.895   7.417   0.629  0.0412 -0.0520 -0.0539
    4BIM    C2824219  -0.858   7.511   0.737  0.0179  0.0272 -0.1143
    4BIM    C2924220  -0.937   7.612   0.789  0.0825  0.2012 -0.3476
    4BIM    C3024221  -1.070   7.638   0.743  0.1843  0.3324 -0.5691
    4BIM    C3124222  -0.893   7.698   0.894  0.0529  0.2656 -0.3880
    5BIM     F124223   0.350   5.966   0.797  0.2187  0.0403  0.0207
    5BIM     F224224   0.485   5.825   0.986  0.0826  0.0809  0.1485
    5BIM     O124225   0.384   6.468   0.998  0.0086  0.0730 -0.0239
    5BIM     N524226   0.704   5.980   1.402 -0.2628  0.1627  0.3005
    5BIM     N624227   0.704   6.400   1.521 -0.3996  0.1799  0.2398
    5BIM    C1924228   0.526   6.511   1.250 -0.1961  0.1235  0.0823
    5BIM    C2024229   0.512   6.391   1.192 -0.1379  0.1136  0.0886
    5BIM    C2124230   0.438   6.376   1.062 -0.0334  0.0876  0.0317
    5BIM    C2224231   0.441   6.233   1.028  0.0085  0.0830  0.0551
    5BIM    C2324232   0.386   6.171   0.916  0.1033  0.0613  0.0199
    5BIM    C2424233   0.402   6.034   0.905  0.1262  0.0610  0.0525
    5BIM    C2524234   0.472   5.961   1.002  0.0560  0.0822  0.1184
    5BIM    C2624235   0.527   6.022   1.114 -0.0388  0.1037  0.1539
    5BIM    C2724236   0.512   6.161   1.127 -0.0633  0.1041  0.1216
    5BIM    C2824237   0.558   6.255   1.232 -0.1561  0.1239  0.1448
    5BIM    C2924238   0.630   6.223   1.345 -0.2423  0.1471  0.2065
    5BIM    C3024239   0.670   6.090   1.376 -0.2533  0.1558  0.2579
    5BIM    C3124240   0.670   6.321   1.441 -0.3283  0.1652  0.2245
    1BTD     S224241   4.698   3.318   0.423  0.0015 -0.0058 -0.0441
    1BTD     N124242   4.855   3.351   0.504 -0.0476 -0.0091  0.0529
    1BTD     N224243   4.660   3.173   0.522 -0.0312 -0.0443 -0.1128
    1BTD     N324244   4.867   2.936   0.871 -0.1863 -0.1283 -0.0779
    1BTD     N424245   5.107   3.155   0.848 -0.2066 -0.0849  0.1263
    1BTD     C524246   4.984   3.246   0.684 -0.1303 -0.0492  0.0887
    1BTD     C624247   4.870   3.257   0.596 -0.0840 -0.0371  0.0302
    1BTD     C724248   4.761   3.157   0.606 -0.0747 -0.0569 -0.0626
    1BTD     C824249   4.771   3.052   0.704 -0.1124 -0.0877 -0.0921
    1BTD    C1524250   4.884   3.045   0.788 -0.1574 -0.0985 -0.0325
    1BTD    C1624251   4.989   3.141   0.778 -0.1663 -0.0794  0.0569
    1BTD    C4324252   5.129   3.093   0.976 -0.0116 -0.1441  0.2792
    1BTD    C4424253   5.270   3.060   1.018  0.8465 -1.0207 -0.9592
    1BTD    C4524254   5.366   2.981   0.932  0.4560 -0.3010  0.2432
    1BTD    C4624255   5.411   3.041   0.799  0.1710  0.1902 -0.5398
    1BTD    C4724256   5.253   2.992   1.155  0.0861  0.0124 -0.1716
    1BTD    C4824257   5.373   2.973   1.254 -0.2765 -0.2697  0.3598
    1BTD    C4924258   5.333   2.915   1.391 -0.0918  0.1353  0.2017
    1BTD    C5024259   5.451   2.898   1.491 -0.2771  0.3118 -0.0608
    1BTD    C7524260   4.971   2.823   0.890  0.0182  0.2047  0.3584
    1BTD    C7624261   4.964   2.713   0.998 -0.1889  0.2219 -0.1580
    1BTD    C7724262   5.065   2.601   0.967  0.0517  0.3870 -0.1482
    1BTD    C7824263   5.214   2.617   0.984 -0.2685 -0.0027 -0.0243
    1BTD    C7924264   4.962   2.771   1.146 -0.7899  0.3539 -0.1311
    1BTD    C8024265   4.967   2.669   1.258 -0.1864 -0.2501  0.0228
    1BTD    C8124266   4.957   2.730   1.398  0.7337 -0.6139 -0.5417
    1BTD    C8224267   4.927   2.634   1.519 -1.3020  0.1732 -0.2726
    2TTP     S124268   5.123   3.505   0.672  0.2392  0.0094 -0.0084
    2TTP     S524269   5.330   3.392   1.031  0.1934 -0.2540 -0.0644
    2TTP     C124270   5.353   3.570   1.005  0.3059 -0.2588 -0.0013
    2TTP     C224271   5.290   3.616   0.892  0.3266 -0.1779  0.0197
    2TTP     C324272   5.222   3.511   0.823  0.2544 -0.1089 -0.0133
    2TTP     C424273   5.100   3.326   0.698  0.1266  0.0142 -0.0716
    2TTP    C1724274   5.163   3.281   0.811  0.1058 -0.0667 -0.0926
    2TTP    C1824275   5.231   3.385   0.880  0.1782 -0.1356 -0.0596
    2TTP    C3224276   5.271   3.763   0.842  0.8142 -0.2516 -0.0786
    2TTP    C3324277   5.339   3.791   0.705  0.4469 -0.8386 -0.2417
    2TTP    C3424278   5.476   3.730   0.682  0.0140  0.3367 -0.0110
    2TTP    C3524279   5.587   3.776   0.770  0.6497 -0.1603 -0.6328
    2TTP    C3624280   5.725   3.793   0.710 -0.1912  0.8544  0.0468
    2TTP    C3724281   5.831   3.875   0.787 -0.4046  0.2992  0.5452
    2TTP    C3824282   5.964   3.883   0.716  0.0904  0.0834  0.8027
    2TTP    C3924283   6.068   3.979   0.774  0.4199  0.1303 -0.0011
    2TTP    C4024284   6.106   3.969   0.924 -0.3346 -0.3194 -0.1398
    2TTP    C4124285   6.200   4.074   0.985  0.4133 -0.3035  0.9542
    2TTP    C4224286   6.129   4.212   0.999 -0.2275  0.5052  0.3484
    3TTP     S124287   4.506   2.926   0.726 -0.0453 -0.2498 -0.2836
    3TTP     S524288   4.651   2.706   1.066 -0.3104  0.0480  0.0242
    3TTP     C124289   4.471   2.682   1.054 -0.2699 -0.1405 -0.2258
    3TTP     C224290   4.416   2.749   0.948 -0.1857 -0.2435 -0.3355
    3TTP     C324291   4.513   2.821   0.873 -0.1502 -0.1774 -0.2262
    3TTP     C424292   4.686   2.950   0.738 -0.0858 -0.0615 -0.0337
    3TTP    C1724293   4.742   2.883   0.844 -0.1702  0.0417  0.0761
    3TTP    C1824294   4.644   2.811   0.919 -0.2058 -0.0244 -0.0332
    3TTP    C3224295   4.271   2.739   0.906  0.7609 -0.4247 -0.1005
    3TTP    C3324296   4.198   2.874   0.896 -0.4176  0.1767 -0.5167
    3TTP    C3424297   4.137   2.904   0.762 -0.5291 -0.1343  0.3015
    3TTP    C3524298   4.127   3.053   0.741  0.0192 -0.3083 -0.0631
    3TTP    C3624299   4.060   3.099   0.608  0.1650  0.0556  0.3200
    3TTP    C3724300   4.062   3.254   0.597  0.1326  0.0006  0.0128
    3TTP    C3824301   3.993   3.309   0.476  0.0151 -0.2827  0.6970
    3TTP    C3924302   3.971   3.460   0.468  0.2905  0.5316  0.1866
    3TTP    C4024303   3.904   3.494   0.333 -0.0841 -0.4076  0.4463
    3TTP    C4124304   3.917   3.644   0.300  0.2092 -0.4251 -0.0586
    3TTP    C4224305   3.843   3.673   0.176 -0.0555 -0.3978 -0.0686
    4BIM     F124306   5.546   3.530   1.801  0.6099  0.0793 -0.1110
    4BIM     F224307   5.611   3.794   1.793 -0.1129  0.2624 -0.1480
    4BIM     O124308   5.393   3.447   1.288  0.6678 -0.3679 -0.0561
    4BIM     N524309   5.597   4.114   1.415 -1.1104  0.2068 -0.1622
    4BIM     N624310   5.464   3.996   1.016 -0.9195 -0.1796 -0.1119
    4BIM    C1924311   5.401   3.669   1.098 -0.0020 -0.3519 -0.0721
    4BIM    C2024312   5.437   3.680   1.228  0.0117 -0.2465 -0.0844
    4BIM    C2124313   5.430   3.561   1.319  0.3664 -0.2627 -0.0751
    4BIM    C2224314   5.476   3.607   1.451  0.2843 -0.1296 -0.0927
    4BIM    C2324315   5.487   3.533   1.568  0.5267 -0.0947 -0.0918
    4BIM    C2424316   5.533   3.598   1.682  0.3854  0.0379 -0.1107
    4BIM    C2524317   5.566   3.734   1.677  0.0130  0.1321 -0.1297
    4BIM    C2624318   5.556   3.809   1.561 -0.2303  0.0979 -0.1307
    4BIM    C2724319   5.510   3.745   1.445 -0.0924 -0.0359 -0.1118
    4BIM    C2824320   5.487   3.795   1.307 -0.2749 -0.1040 -0.1075
    4BIM    C2924321   5.509   3.923   1.262 -0.6394 -0.0459 -0.1221
    4BIM    C3024322   5.557   4.028   1.347 -0.8972  0.0927 -0.1441
    4BIM    C3124323   5.484   3.962   1.127 -0.7915 -0.1198 -0.1164
    5BIM     F124324   4.586   2.244   1.745  0.0031 -0.5819 -0.1165
    5BIM     F224325   4.339   2.135   1.709 -0.0798 -0.4319  0.0014
    5BIM     O124326   4.614   2.576   1.318 -0.1223 -0.3752  0.0357
    5BIM     N524327   4.004   2.215   1.355 -0.2886 -0.0690  0.2793
    5BIM     N624328   4.075   2.496   1.028 -0.3698  0.0623  0.3745
    5BIM    C1924329   4.388   2.590   1.132 -0.2463 -0.1584  0.2024
    5BIM    C2024330   4.390   2.510   1.241 -0.2114 -0.2162  0.1595
    5BIM    C2124331   4.510   2.509   1.332 -0.1482 -0.3272  0.0740
    5BIM    C2224332   4.480   2.413   1.439 -0.1233 -0.3670  0.0454
    5BIM    C2324333   4.561   2.377   1.547 -0.0660 -0.4659 -0.0300
    5BIM    C2424334   4.511   2.284   1.636 -0.0525 -0.4856 -0.0432
    5BIM    C2524335   4.384   2.228   1.618 -0.0955 -0.4082  0.0177
    5BIM    C2624336   4.303   2.263   1.511 -0.1527 -0.3093  0.0931
    5BIM    C2724337   4.352   2.357   1.419 -0.1669 -0.2880  0.1075
    5BIM    C2824338   4.291   2.415   1.297 -0.2229 -0.1923  0.1800
    5BIM    C2924339   4.167   2.386   1.245 -0.2753 -0.0992  0.2523
    5BIM    C3024340   4.078   2.292   1.305 -0.2823 -0.0830  0.2669
    5BIM    C3124341   4.117   2.447   1.126 -0.3270 -0.0109  0.3191
    1BTD     S224342   1.576   8.402   1.748 -0.0018 -0.0560  0.0755
    1BTD     N124343   1.414   8.467   1.705 -0.0140  0.0048  0.2108
    1BTD     N224344   1.546   8.240   1.675 -0.0530  0.0174 -0.0675
    1BTD     N324345   1.194   8.028   1.448 -0.1790  0.2763 -0.1146
    1BTD     N424346   1.031   8.308   1.485 -0.1310  0.2601  0.2283
    1BTD     C524347   1.216   8.380   1.590 -0.0756  0.1383  0.2158
    1BTD     C624348   1.349   8.370   1.642 -0.0534  0.0727  0.1458
    1BTD     C724349   1.424   8.243   1.625 -0.0753  0.0801 -0.0100
    1BTD     C824350   1.361   8.133   1.557 -0.1182  0.1521 -0.0879
    1BTD    C1524351   1.229   8.148   1.508 -0.1386  0.2152 -0.0149
    1BTD    C1624352   1.158   8.270   1.524 -0.1176  0.2078  0.1352
    1BTD    C4324353   0.916   8.216   1.477 -0.4892  0.4851  0.0349
    1BTD    C4424354   0.789   8.240   1.400  0.1198  0.3030 -0.2035
    1BTD    C4524355   0.802   8.247   1.250 -0.2350  0.2664  0.3020
    1BTD    C4624356   0.688   8.291   1.164  0.1845  0.7427 -0.7199
    1BTD    C4724357   0.672   8.149   1.442  0.8440  0.7404 -0.2063
    1BTD    C4824358   0.609   8.156   1.583 -0.4117  0.2127 -0.0620
    1BTD    C4924359   0.550   8.291   1.613 -0.4347 -0.3182 -0.5502
    1BTD    C5024360   0.419   8.319   1.531 -0.0551  0.0975 -0.4774
    1BTD    C7524361   1.111   8.019   1.329  0.0651 -0.0870  0.5161
    1BTD    C7624362   1.027   7.902   1.268  0.3140 -1.0101  0.1376
    1BTD    C7724363   0.949   7.939   1.142  0.3308 -0.1613  0.2646
    1BTD    C7824364   1.026   7.978   1.018  0.1283  0.5446 -0.2873
    1BTD    C7924365   0.943   7.835   1.382 -0.3455  0.0243 -0.5359
    1BTD    C8024366   0.875   7.707   1.358  0.5681 -0.0828  0.3212
    1BTD    C8124367   0.786   7.647   1.468 -0.5966 -0.6474  0.4382
    1BTD    C8224368   0.681   7.741   1.525 -0.0878 -0.1700 -0.2025
    2TTP     S124369   1.117   8.662   1.626 -0.2480 -0.0642 -0.1452
    2TTP     S524370   0.784   8.578   1.368 -0.2081  0.2229 -0.2906
    2TTP     C124371   0.786   8.756   1.404 -0.2028  0.1862 -0.1068
    2TTP     C224372   0.889   8.792   1.486 -0.2148  0.0954 -0.0511
    2TTP     C324373   0.970   8.681   1.523 -0.2286  0.0515 -0.1515
    2TTP     C424374   1.115   8.483   1.590 -0.2533 -0.0274 -0.3290
    2TTP    C1724375   1.012   8.447   1.508 -0.2413  0.0632 -0.3847
    2TTP    C1824376   0.931   8.558   1.471 -0.2275  0.1073 -0.2843
    2TTP    C3224377   0.949   8.932   1.515  0.2277 -0.4835  0.0416
    2TTP    C3324378   0.864   9.017   1.609 -0.0455 -0.4253 -0.0077
    2TTP    C3424379   0.922   9.156   1.608  0.3281 -0.1751  0.1463
    2TTP    C3524380   0.873   9.253   1.716  0.2305 -0.4301 -0.3293
    2TTP    C3624381   0.918   9.396   1.696  0.1852  0.2042 -0.6250
    2TTP    C3724382   1.068   9.425   1.724  0.4563  0.3062  0.1275
    2TTP    C3824383   1.120   9.566   1.705  0.5375  0.2492 -0.5367
    2TTP    C3924384   1.056   9.667   1.802 -0.8669 -0.0731 -0.4633
    2TTP    C4024385   1.126   9.804   1.812 -0.3462  0.3590  0.2842
    2TTP    C4124386   1.275   9.813   1.814 -0.4198 -0.3491  0.5491
    2TTP    C4224387   1.338   9.949   1.838  0.7482 -0.7190 -0.3589
    3TTP     S124388   1.553   7.904   1.539  0.3838  0.0923 -0.4665
    3TTP     S524389   1.253   7.670   1.338  0.0555  0.1665 -0.0658
    3TTP     C124390   1.404   7.570   1.351  0.0481  0.1272 -0.2646
    3TTP     C224391   1.506   7.637   1.414  0.1490  0.1020 -0.4000
    3TTP     C324392   1.468   7.769   1.454  0.2359  0.1129 -0.3517
    3TTP     C424393   1.401   8.003   1.525  0.3912  0.1314 -0.2677
    3TTP    C1724394   1.299   7.937   1.462  0.2902  0.1568 -0.1323
    3TTP    C1824395   1.338   7.805   1.423  0.2034  0.1459 -0.1806
    3TTP    C3224396   1.643   7.580   1.448  0.1755  0.5972 -0.0125
    3TTP    C3324397   1.770   7.667   1.440  0.4057  0.0705 -0.0462
    3TTP    C3424398   1.895   7.599   1.495 -0.2569 -0.6144  0.4288
    3TTP    C3524399   2.006   7.709   1.505 -0.0916  0.0568  0.2559
    3TTP    C3624400   2.142   7.663   1.553 -0.2252  0.4274 -0.5486
    3TTP    C3724401   2.238   7.779   1.582 -0.1167 -0.0577 -0.0754
    3TTP    C3824402   2.381   7.767   1.632  0.0170 -0.4780  0.0428
    3TTP    C3924403   2.456   7.893   1.672  0.5798 -0.2652  0.2407
    3TTP    C4024404   2.606   7.889   1.712 -0.0518 -0.6844  1.3137
    3TTP    C4124405   2.650   8.033   1.723 -0.4630  0.1699  0.0988
    3TTP    C4224406   2.801   8.035   1.758  0.0608  0.3791 -0.6090
    4BIM     F124407   0.077   8.710   0.988 -0.2302  0.0300  0.0416
    4BIM     F224408   0.106   8.972   0.921  0.1144 -0.0901 -0.2891
    4BIM     O124409   0.518   8.633   1.292 -0.3771 -0.1426  0.2114
    4BIM     N524410   0.461   9.295   1.042  0.5051 -0.3858 -0.6435
    4BIM     N624411   0.800   9.182   1.294  0.3208 -0.4964 -0.4442
    4BIM    C1924412   0.702   8.856   1.337 -0.1001 -0.3191 -0.0442
    4BIM    C2024413   0.590   8.866   1.263 -0.0766 -0.2706 -0.0741
    4BIM    C2124414   0.500   8.746   1.245 -0.2254 -0.1810  0.0639
    4BIM    C2224415   0.389   8.791   1.159 -0.1553 -0.1469 -0.0108
    4BIM    C2324416   0.280   8.715   1.115 -0.2443 -0.0660  0.0682
    4BIM    C2424417   0.187   8.779   1.035 -0.1503 -0.0485 -0.0285
    4BIM    C2524418   0.202   8.914   1.001  0.0273 -0.1106 -0.1989
    4BIM    C2624419   0.309   8.990   1.045  0.1169 -0.1912 -0.2785
    4BIM    C2724420   0.405   8.927   1.126  0.0238 -0.2103 -0.1827
    4BIM    C2824421   0.530   8.979   1.188  0.0793 -0.2887 -0.2283
    4BIM    C2924422   0.579   9.107   1.178  0.2437 -0.3638 -0.3838
    4BIM    C3024423   0.514   9.210   1.104  0.3868 -0.3757 -0.5261
    4BIM    C3124424   0.700   9.147   1.242  0.2852 -0.4361 -0.4161
    5BIM     F124425   0.925   7.008   0.987  0.0198 -0.2069  0.2718
    5BIM     F224426   1.135   6.836   0.988  0.2071  0.0144 -0.2809
    5BIM     O124427   1.149   7.444   1.218 -0.1329 -0.3237  0.6414
    5BIM     N524428   1.598   6.898   1.154  0.3674  0.2497 -0.8122
    5BIM     N624429   1.730   7.273   1.334  0.2103  0.1140 -0.4120
    5BIM    C1924430   1.430   7.434   1.301 -0.0082 -0.1536  0.2446
    5BIM    C2024431   1.365   7.331   1.243  0.0229 -0.1328  0.1733
    5BIM    C2124432   1.221   7.344   1.203 -0.0456 -0.2247  0.3891
    5BIM    C2224433   1.182   7.215   1.143  0.0114 -0.1738  0.2419
    5BIM    C2324434   1.058   7.179   1.092 -0.0207 -0.2261  0.3549
    5BIM    C2424435   1.045   7.051   1.040  0.0467 -0.1607  0.1740
    5BIM    C2524436   1.154   6.962   1.040  0.1431 -0.0465 -0.1107
    5BIM    C2624437   1.278   6.997   1.092  0.1757  0.0061 -0.2248
    5BIM    C2724438   1.293   7.126   1.144  0.1085 -0.0588 -0.0449
    5BIM    C2824439   1.409   7.194   1.206  0.1193 -0.0290 -0.0985
    5BIM    C2924440   1.535   7.141   1.224  0.2029  0.0749 -0.3515
    5BIM    C3024441   1.569   7.007   1.185  0.2930  0.1707 -0.6039
    5BIM    C3124442   1.642   7.214   1.285  0.2065  0.0956 -0.3833
    1BTD     S224443   6.264   8.818   8.073 -0.2358  0.4683  0.0805
    1BTD     N124444   6.109   8.886   8.012 -0.2289  0.3650 -0.0529
    1BTD     N224445   6.204   8.649   8.083 -0.1215  0.4222 -0.0055
    1BTD     N324446   5.800   8.427   7.992  0.1242  0.1419 -0.4219
    1BTD     N424447   5.684   8.719   7.906 -0.0080  0.0715 -0.4804
    1BTD     C524448   5.889   8.795   7.958 -0.1121  0.2127 -0.2755
    1BTD     C624449   6.025   8.784   8.003 -0.1460  0.3049 -0.1495
    1BTD     C724450   6.077   8.652   8.042 -0.0858  0.3366 -0.1230
    1BTD     C824451   5.991   8.537   8.034  0.0052  0.2751 -0.2234
    1BTD    C1524452   5.859   8.552   7.990  0.0356  0.1855 -0.3451
    1BTD    C1624453   5.808   8.680   7.952 -0.0224  0.1546 -0.3707
    1BTD    C4324454   5.594   8.637   7.825 -0.6118 -0.2337  0.1503
    1BTD    C4424455   5.440   8.647   7.836 -0.4205  0.2061  0.0832
    1BTD    C4524456   5.361   8.575   7.726 -0.0149  0.1276 -0.1064
    1BTD    C4624457   5.351   8.655   7.596  0.3945 -0.4091  0.2869
    1BTD    C4724458   5.403   8.616   7.983 -0.2713 -0.0957  0.7360
    1BTD    C4824459   5.250   8.629   8.022 -0.1845  0.5728  0.6966
    1BTD    C4924460   5.196   8.774   8.001 -0.6131  0.0094 -0.1259
    1BTD    C5024461   5.054   8.780   8.049  0.2078  0.4447 -0.0454
    1BTD    C7524462   5.659   8.395   8.030 -0.7156 -0.3154 -0.3108
    1BTD    C7624463   5.578   8.275   7.983 -0.7652 -0.4663  0.4064
    1BTD    C7724464   5.441   8.261   8.063 -0.1106 -0.2870 -0.5039
    1BTD    C7824465   5.446   8.273   8.214  0.0772  0.2136 -0.4446
    1BTD    C7924466   5.570   8.262   7.830 -0.1813 -0.6870  0.2065
    1BTD    C8024467   5.515   8.144   7.760 -0.0563  0.5626 -0.3086
    1BTD    C8124468   5.366   8.121   7.747  0.6696 -0.5497  0.6744
    1BTD    C8224469   5.313   8.038   7.640 -0.3908  0.5693 -0.4669
    2TTP     S124470   5.831   9.083   7.899 -0.0407 -0.2015  0.1397
    2TTP     S524471   5.428   8.975   7.794 -0.0253 -0.1683  0.0478
    2TTP     C124472   5.447   9.156   7.776  0.0126 -0.1782 -0.0128
    2TTP     C224473   5.572   9.199   7.808  0.0101 -0.1888  0.0119
    2TTP     C324474   5.658   9.092   7.847 -0.0217 -0.1898  0.0799
    2TTP     C424475   5.812   8.902   7.917 -0.0784 -0.1912  0.2005
    2TTP    C1724476   5.687   8.859   7.885 -0.0760 -0.1808  0.1757
    2TTP    C1824477   5.601   8.966   7.846 -0.0441 -0.1800  0.1078
    2TTP    C3224478   5.637   9.335   7.795  0.6723  0.1997 -0.5869
    2TTP    C3324479   5.654   9.404   7.933 -0.1977  0.0472 -0.1731
    2TTP    C3424480   5.676   9.557   7.953 -0.3952 -0.1866  0.0124
    2TTP    C3524481   5.766   9.618   7.841  0.3251 -0.0689 -0.1576
    2TTP    C3624482   5.788   9.768   7.850  0.2404  0.2010 -0.4916
    2TTP    C3724483   5.793   9.835   7.715  0.0071  0.0667  0.5022
    2TTP    C3824484   5.820   9.983   7.737  0.0245 -0.3700  0.2887
    2TTP    C3924485   5.810  10.063   7.608  0.2215  0.1798 -0.1863
    2TTP    C4024486   5.836  10.214   7.635 -0.9090 -0.3365  0.1830
    2TTP    C4124487   5.855  10.301   7.506  0.2379  0.2368  0.4126
    2TTP    C4224488   5.903  10.444   7.539 -0.3555 -0.4418 -0.0882
    3TTP     S124489   6.144   8.283   8.117 -0.0392  0.1161  0.2513
    3TTP     S524490   5.798   8.050   8.013  0.0095  0.1254  0.0665
    3TTP     C124491   5.931   7.937   8.064  0.0373  0.1123 -0.0356
    3TTP     C224492   6.046   8.002   8.099  0.0238  0.1090  0.0153
    3TTP     C324493   6.033   8.144   8.087 -0.0088  0.1161  0.1371
    3TTP     C424494   6.011   8.396   8.066 -0.0670  0.1290  0.3533
    3TTP    C1724495   5.897   8.331   8.031 -0.0536  0.1327  0.3025
    3TTP    C1824496   5.909   8.189   8.043 -0.0210  0.1252  0.1807
    3TTP    C3224497   6.177   7.943   8.145 -0.3873  0.4054 -0.5442
    3TTP    C3324498   6.221   7.971   8.288 -0.1800  0.3407 -0.1279
    3TTP    C3424499   6.350   7.917   8.349 -0.3585  0.4619  0.0374
    3TTP    C3524500   6.380   7.766   8.320  0.2189 -0.3424 -0.0540
    3TTP    C3624501   6.466   7.684   8.409 -0.2425 -0.7970 -0.7830
    3TTP    C3724502   6.503   7.567   8.326  0.4579  0.2825  0.3772
    3TTP    C3824503   6.600   7.472   8.395 -0.8280 -0.2964 -0.2747
    3TTP    C3924504   6.651   7.363   8.295  0.6818  0.1221 -0.3531
    3TTP    C4024505   6.797   7.376   8.247  0.8301  0.2655  0.0039
    3TTP    C4124506   6.836   7.278   8.134 -0.2446 -0.2810 -0.1533
    3TTP    C4224507   6.847   7.131   8.176 -0.5023  0.3092 -0.3076
    4BIM     F124508   4.645   9.137   7.587  0.1346  0.1507  0.2548
    4BIM     F224509   4.665   9.396   7.507  0.1957  0.1297  0.2002
    4BIM     O124510   5.153   9.039   7.746  0.1507  0.0129  0.1193
    4BIM     N524511   5.056   9.699   7.505  0.2954  0.0010  0.0250
    4BIM     N624512   5.449   9.571   7.645  0.2958 -0.1025 -0.0696
    4BIM    C1924513   5.353   9.253   7.726  0.2150 -0.0563  0.0193
    4BIM    C2024514   5.224   9.267   7.689  0.2084 -0.0210  0.0552
    4BIM    C2124515   5.127   9.153   7.702  0.1748  0.0136  0.1059
    4BIM    C2224516   4.997   9.202   7.654  0.1763  0.0472  0.1360
    4BIM    C2324517   4.877   9.132   7.646  0.1510  0.0854  0.1854
    4BIM    C2424518   4.767   9.200   7.597  0.1582  0.1127  0.2060
    4BIM    C2524519   4.777   9.333   7.555  0.1899  0.1014  0.1776
    4BIM    C2624520   4.897   9.404   7.562  0.2152  0.0634  0.1285
    4BIM    C2724521   5.010   9.337   7.612  0.2084  0.0358  0.1069
    4BIM    C2824522   5.149   9.382   7.633  0.2294 -0.0064  0.0563
    4BIM    C2924523   5.200   9.507   7.604  0.2620 -0.0284  0.0174
    4BIM    C3024524   5.120   9.612   7.550  0.2803 -0.0122  0.0218
    4BIM    C3124525   5.337   9.542   7.627  0.2803 -0.0689 -0.0303
    5BIM     F124526   5.425   7.393   7.714 -0.2789 -0.1742  0.2140
    5BIM     F224527   5.521   7.203   7.884  0.0457 -0.1010  0.1152
    5BIM     O124528   5.725   7.820   7.859 -0.3057  0.0018 -0.2460
    5BIM     N524529   5.872   7.234   8.231  0.4930  0.1299 -0.3552
    5BIM     N624530   6.087   7.605   8.310  0.4069  0.2530 -0.6948
    5BIM    C1924531   5.923   7.790   8.073 -0.0050  0.1343 -0.5038
    5BIM    C2024532   5.843   7.690   8.030 -0.0110  0.0873 -0.3843
    5BIM    C2124533   5.744   7.713   7.919 -0.1704  0.0203 -0.2561
    5BIM    C2224534   5.675   7.584   7.897 -0.1333 -0.0187 -0.1458
    5BIM    C2324535   5.575   7.556   7.805 -0.2419 -0.0838 -0.0082
    5BIM    C2424536   5.524   7.427   7.803 -0.1783 -0.1100  0.0770
    5BIM    C2524537   5.574   7.329   7.890 -0.0113 -0.0723  0.0257
    5BIM    C2624538   5.674   7.356   7.983  0.0981 -0.0072 -0.1111
    5BIM    C2724539   5.726   7.487   7.986  0.0360  0.0204 -0.1991
    5BIM    C2824540   5.832   7.548   8.071  0.1177  0.0867 -0.3481
    5BIM    C2924541   5.904   7.484   8.169  0.2813  0.1385 -0.4351
    5BIM    C3024542   5.886   7.347   8.203  0.3972  0.1338 -0.3908
    5BIM    C3124543   6.004   7.551   8.246  0.3494  0.2012 -0.5772
    1BTD     S224544   2.566   5.980   2.025 -0.0645 -0.1319  0.0778
    1BTD     N124545   2.406   6.031   1.961  0.0435 -0.1272 -0.1908
    1BTD     N224546   2.641   6.143   2.007 -0.0867 -0.0838  0.3935
    1BTD     N324547   2.505   6.565   1.853  0.0634  0.0225  0.5517
    1BTD     N424548   2.215   6.427   1.797  0.2238 -0.0309 -0.1682
    1BTD     C524549   2.309   6.239   1.876  0.1357 -0.0762 -0.1703
    1BTD     C624550   2.416   6.159   1.931  0.0569 -0.0918 -0.0392
    1BTD     C724551   2.548   6.222   1.956 -0.0160 -0.0677  0.2878
    1BTD     C824552   2.566   6.361   1.926 -0.0064 -0.0288  0.4674
    1BTD    C1524553   2.459   6.436   1.872  0.0720 -0.0149  0.3293
    1BTD    C1624554   2.333   6.375   1.848  0.1422 -0.0383  0.0142
    1BTD    C4324555   2.166   6.565   1.823 -0.9634 -0.5267 -0.3899
    1BTD    C4424556   2.058   6.653   1.747 -0.2128  0.2121  0.1874
    1BTD    C4524557   1.989   6.762   1.828  0.0060  0.4489 -0.7032
    1BTD    C4624558   1.906   6.704   1.939 -0.4301  0.6920 -0.1792
    1BTD    C4724559   2.099   6.696   1.606  0.1464  0.1605 -0.4121
    1BTD    C4824560   1.980   6.729   1.516 -0.1724 -0.0307  0.5651
    1BTD    C4924561   2.005   6.798   1.377 -0.9833  0.6753 -0.4964
    1BTD    C5024562   1.887   6.765   1.287  0.5086  0.4874 -0.2085
    1BTD    C7524563   2.462   6.656   1.737  0.0142  0.5657 -0.5633
    1BTD    C7624564   2.444   6.814   1.748 -0.8528  0.9545 -0.4363
    1BTD    C7724565   2.371   6.859   1.879 -0.2343  0.0317  0.5775
    1BTD    C7824566   2.390   7.003   1.933 -0.0075  0.2937  0.9064
    1BTD    C7924567   2.406   6.890   1.616 -0.8557 -0.3309 -0.9593
    1BTD    C8024568   2.505   6.875   1.508  0.5808 -0.3335  0.3305
    1BTD    C8124569   2.456   6.901   1.366 -0.4674  0.0619  0.0174
    1BTD    C8224570   2.567   6.916   1.269  0.0842  0.0895 -0.2692
    2TTP     S124571   2.049   6.085   1.875  0.3225  0.0296  0.0503
    2TTP     S524572   1.866   6.401   1.648  0.0251 -0.3086 -0.1838
    2TTP     C124573   1.745   6.267   1.668  0.0943 -0.3349  0.0628
    2TTP     C224574   1.794   6.161   1.739  0.1902 -0.2320  0.1496
    2TTP     C324575   1.929   6.183   1.781  0.2126 -0.1286  0.0245
    2TTP     C424576   2.170   6.219   1.855  0.2534  0.0561 -0.1962
    2TTP    C1724577   2.121   6.325   1.784  0.1574 -0.0470 -0.2831
    2TTP    C1824578   1.985   6.303   1.742  0.1352 -0.1503 -0.1580
    2TTP    C3224579   1.721   6.038   1.782 -0.0648  0.6375  0.1777
    2TTP    C3324580   1.738   5.919   1.680 -0.3457  0.0451  0.3406
    2TTP    C3424581   1.665   5.788   1.716 -1.0130 -0.0616  0.0756
    2TTP    C3524582   1.696   5.681   1.613  0.3108 -0.2084  0.3233
    2TTP    C3624583   1.618   5.551   1.631 -0.0930 -1.0202  0.0610
    2TTP    C3724584   1.626   5.470   1.501  0.3912 -0.2613 -0.1543
    2TTP    C3824585   1.532   5.353   1.500  0.1174  0.9232  0.4984
    2TTP    C3924586   1.584   5.230   1.418 -0.5582  0.4592 -0.2808
    2TTP    C4024587   1.493   5.117   1.398  0.1182  0.5226 -0.7500
    2TTP    C4124588   1.558   5.008   1.316  0.0847  0.2329 -0.7635
    2TTP    C4224589   1.484   4.880   1.348 -0.2546 -0.1983 -0.1281
    3TTP     S124590   2.847   6.459   2.011  0.1410 -0.0848 -0.0130
    3TTP     S524591   2.742   6.854   1.878  0.1858 -0.0112  0.1703
    3TTP     C124592   2.907   6.861   1.954  0.1596 -0.0529  0.2311
    3TTP     C224593   2.949   6.739   2.000  0.1442 -0.0781  0.1780
    3TTP     C324594   2.853   6.636   1.976  0.1526 -0.0654  0.0875
    3TTP     C424595   2.682   6.452   1.935  0.1673 -0.0432 -0.0736
    3TTP    C1724596   2.640   6.574   1.889  0.1827 -0.0180 -0.0206
    3TTP    C1824597   2.736   6.677   1.913  0.1743 -0.0306  0.0699
    3TTP    C3224598   3.074   6.708   2.087 -0.4468 -0.5847  0.4857
    3TTP    C3324599   3.169   6.620   2.010  0.5711  0.2647  0.1740
    3TTP    C3424600   3.313   6.606   2.059  0.2069 -0.0090  0.0735
    3TTP    C3524601   3.343   6.606   2.208 -0.3025 -0.7114 -0.1750
    3TTP    C3624602   3.479   6.559   2.239 -0.0574  0.0143 -0.1934
    3TTP    C3724603   3.506   6.562   2.391  0.5425 -0.6586  0.4903
    3TTP    C3824604   3.639   6.511   2.439 -0.2057 -0.1894  0.4371
    3TTP    C3924605   3.685   6.369   2.393  0.5776 -0.1779 -0.5400
    3TTP    C4024606   3.820   6.335   2.448  0.6504  0.5130  0.1438
    3TTP    C4124607   3.924   6.372   2.348 -0.3571 -0.0558  0.4683
    3TTP    C4224608   4.064   6.344   2.400 -0.1500 -0.3521  0.0143
    4BIM     F124609   1.350   6.708   1.096  0.0685 -0.2004 -0.1186
    4BIM     F224610   1.121   6.578   1.163 -0.0283  0.0546  0.0469
    4BIM     O124611   1.704   6.472   1.431 -0.0546 -0.2232 -0.0047
    4BIM     N524612   1.043   6.223   1.499 -0.2552  0.4047  0.3660
    4BIM     N624613   1.366   6.065   1.747 -0.3319  0.3355  0.4216
    4BIM    C1924614   1.610   6.264   1.614 -0.1908  0.0122  0.1938
    4BIM    C2024615   1.530   6.329   1.527 -0.1561  0.0080  0.1587
    4BIM    C2124616   1.586   6.434   1.436 -0.0863 -0.1167  0.0558
    4BIM    C2224617   1.473   6.484   1.355 -0.0633 -0.0871  0.0416
    4BIM    C2324618   1.475   6.582   1.257 -0.0017 -0.1720 -0.0422
    4BIM    C2424619   1.355   6.612   1.194  0.0087 -0.1217 -0.0383
    4BIM    C2524620   1.237   6.544   1.229 -0.0413  0.0096  0.0470
    4BIM    C2624621   1.234   6.446   1.327 -0.1028  0.0949  0.1310
    4BIM    C2724622   1.355   6.415   1.392 -0.1142  0.0458  0.1284
    4BIM    C2824623   1.385   6.317   1.499 -0.1733  0.1093  0.2037
    4BIM    C2924624   1.296   6.232   1.560 -0.2325  0.2378  0.2973
    4BIM    C3024625   1.157   6.227   1.526 -0.2448  0.3291  0.3347
    4BIM    C3124626   1.335   6.140   1.663 -0.2868  0.2908  0.3651
    5BIM     F124627   2.892   7.642   1.679 -0.0085  0.0677 -0.0971
    5BIM     F224628   3.130   7.683   1.804 -0.1188  0.1879  0.0744
    5BIM     O124629   2.802   7.122   1.800  0.1528  0.0303 -0.1380
    5BIM     N524630   3.409   7.372   2.070 -0.1625  0.3339  0.2920
    5BIM     N624631   3.291   6.957   2.139 -0.0143  0.2805  0.2254
    5BIM    C1924632   2.998   6.977   1.962  0.1046  0.1317  0.0114
    5BIM    C2024633   3.011   7.106   1.927  0.0684  0.1365  0.0150
    5BIM    C2124634   2.907   7.174   1.843  0.0966  0.0823 -0.0647
    5BIM    C2224635   2.952   7.312   1.824  0.0445  0.1031 -0.0381
    5BIM    C2324636   2.888   7.413   1.753  0.0476  0.0691 -0.0896
    5BIM    C2424637   2.950   7.537   1.748 -0.0081  0.0987 -0.0500
    5BIM    C2524638   3.073   7.558   1.812 -0.0649  0.1606  0.0384
    5BIM    C2624639   3.137   7.458   1.883 -0.0683  0.1949  0.0902
    5BIM    C2724640   3.076   7.332   1.889 -0.0125  0.1657  0.0512
    5BIM    C2824641   3.117   7.206   1.955  0.0000  0.1886  0.0874
    5BIM    C2924642   3.232   7.186   2.029 -0.0436  0.2470  0.1718
    5BIM    C3024643   3.329   7.288   2.051 -0.1090  0.2946  0.2376
    5BIM    C3124644   3.264   7.060   2.089 -0.0272  0.2651  0.2009
    1BTD     S224645   5.956   1.973   3.559 -0.1160  0.1645  0.1218
    1BTD     N124646   5.958   2.145   3.509 -0.3084  0.2275  0.3269
    1BTD     N224647   6.076   1.994   3.691  0.1360  0.0670 -0.0915
    1BTD     N324648   6.327   2.349   3.869  0.3028 -0.0179 -0.1562
    1BTD     N424649   6.182   2.535   3.646 -0.2450  0.1798  0.3592
    1BTD     C524650   6.077   2.347   3.583 -0.2686  0.2002  0.3374
    1BTD     C624651   6.045   2.207   3.589 -0.1813  0.1753  0.2306
    1BTD     C724652   6.111   2.122   3.691  0.0674  0.0855 -0.0036
    1BTD     C824653   6.205   2.181   3.781  0.2166  0.0251 -0.1191
    1BTD    C1524654   6.234   2.319   3.772  0.1234  0.0523 -0.0078
    1BTD    C1624655   6.170   2.401   3.674 -0.1163  0.1389  0.2179
    1BTD    C4324656   6.297   2.618   3.673 -0.3725  0.1014  1.0933
    1BTD    C4424657   6.304   2.771   3.682  0.1706  0.0495  0.6093
    1BTD    C4524658   6.209   2.826   3.784  0.9177 -0.1677  0.2872
    1BTD    C4624659   6.204   2.976   3.818  0.3560 -0.5897  0.0194
    1BTD    C4724660   6.448   2.824   3.700 -0.0574  0.3146  0.6697
    1BTD    C4824661   6.554   2.785   3.593  0.3789  0.2778 -0.0462
    1BTD    C4924662   6.525   2.845   3.456  0.4523 -0.2573  0.1334
    1BTD    C5024663   6.619   2.803   3.349 -0.3425  0.0818 -0.2322
    1BTD    C7524664   6.346   2.481   3.940 -0.1712  0.4690  0.5155
    1BTD    C7624665   6.478   2.544   3.994  0.3018 -0.2017  1.3547
    1BTD    C7724666   6.591   2.526   3.890 -0.3668 -0.8469  0.0512
    1BTD    C7824667   6.735   2.559   3.935 -0.3341 -0.0334 -0.0770
    1BTD    C7924668   6.461   2.683   4.057 -0.5644 -0.2984 -0.0740
    1BTD    C8024669   6.368   2.721   4.174  0.8930  1.1900  0.2887
    1BTD    C8124670   6.417   2.662   4.306  0.0443  0.3097 -0.3183
    1BTD    C8224671   6.526   2.739   4.377  0.1635 -0.1176 -0.0699
    2TTP     S124672   5.948   2.465   3.341 -0.1835  0.0481 -0.0678
    2TTP     S524673   6.138   2.841   3.426 -0.0222 -0.0982  0.2225
    2TTP     C124674   6.046   2.857   3.270  0.0951  0.0214  0.1653
    2TTP     C224675   5.982   2.741   3.234  0.0520  0.0737  0.0722
    2TTP     C324676   6.003   2.637   3.329 -0.0749  0.0212  0.0429
    2TTP     C424677   6.040   2.450   3.497 -0.3008 -0.0716 -0.0105
    2TTP    C1724678   6.104   2.565   3.533 -0.2578 -0.1238  0.0826
    2TTP    C1824679   6.083   2.670   3.438 -0.1308 -0.0712  0.1119
    2TTP    C3224680   5.909   2.702   3.103  0.0962 -0.5548 -0.3499
    2TTP    C3324681   5.759   2.674   3.106 -0.6384 -0.2522 -0.4542
    2TTP    C3424682   5.715   2.626   2.969  0.4432 -0.6844 -0.6974
    2TTP    C3524683   5.569   2.591   2.948  0.1296 -0.0755 -0.2261
    2TTP    C3624684   5.529   2.454   3.009  0.8217 -0.0064 -0.5539
    2TTP    C3724685   5.381   2.415   3.026 -0.1528  0.0543 -0.1278
    2TTP    C3824686   5.369   2.276   3.092 -0.2062 -0.5379 -0.0624
    2TTP    C3924687   5.225   2.224   3.116  0.4998 -0.3790 -0.2597
    2TTP    C4024688   5.170   2.267   3.252 -0.7163 -0.5043 -0.1063
    2TTP    C4124689   5.042   2.203   3.286 -0.5848  0.4311 -0.2640
    2TTP    C4224690   4.997   2.236   3.432 -0.3030 -0.1364 -0.0596
    3TTP     S124691   6.339   1.965   3.950 -0.1747 -0.1536 -0.1221
    3TTP     S524692   6.566   2.273   4.147 -0.0242 -0.0887 -0.3955
    3TTP     C124693   6.616   2.111   4.215 -0.0210 -0.0616 -0.3329
    3TTP     C224694   6.549   2.007   4.158 -0.0674 -0.0801 -0.2447
    3TTP     C324695   6.456   2.051   4.059 -0.1069 -0.1163 -0.2234
    3TTP     C424696   6.289   2.127   3.882 -0.1779 -0.1807 -0.1847
    3TTP    C1724697   6.357   2.231   3.939 -0.1314 -0.1623 -0.2728
    3TTP    C1824698   6.450   2.187   4.038 -0.0919 -0.1261 -0.2942
    3TTP    C3224699   6.570   1.865   4.206  0.1941  0.0824  0.0270
    3TTP    C3324700   6.514   1.741   4.132 -0.5741  0.0276 -0.5206
    3TTP    C3424701   6.550   1.611   4.209 -0.0192  0.6397  0.1800
    3TTP    C3524702   6.701   1.580   4.211  0.2963 -0.1182 -0.3349
    3TTP    C3624703   6.751   1.479   4.311  0.2906 -0.0924 -0.0891
    3TTP    C3724704   6.903   1.436   4.299 -0.0187 -0.2668 -0.4669
    3TTP    C3824705   6.953   1.383   4.162  1.0799 -0.8571 -0.9125
    3TTP    C3924706   6.883   1.258   4.111  0.6125 -0.3179  0.2330
    3TTP    C4024707   6.926   1.210   3.975 -0.3446  0.2800 -0.3640
    3TTP    C4124708   6.843   1.264   3.865 -0.2760 -0.7321 -0.1432
    3TTP    C4224709   6.896   1.207   3.733 -0.3845 -0.4432  0.4537
    4BIM     F124710   6.233   3.638   3.428  0.2396 -0.1268 -0.0409
    4BIM     F224711   6.202   3.693   3.163  0.4421 -0.2676 -0.0942
    4BIM     O124712   6.112   3.111   3.438  0.0782 -0.0859  0.1732
    4BIM     N524713   6.072   3.396   2.790  0.6185 -0.4411 -0.0183
    4BIM     N624714   5.984   2.973   2.851  0.4517 -0.3809  0.1597
    4BIM    C1924715   6.040   2.976   3.189  0.2146 -0.2061  0.1983
    4BIM    C2024716   6.071   3.106   3.196  0.2472 -0.2109  0.1464
    4BIM    C2124717   6.108   3.168   3.328  0.1725 -0.1466  0.1369
    4BIM    C2224718   6.136   3.310   3.301  0.2331 -0.1704  0.0764
    4BIM    C2324719   6.174   3.409   3.392  0.1974 -0.1296  0.0476
    4BIM    C2424720   6.195   3.536   3.343  0.2695 -0.1637 -0.0098
    4BIM    C2524721   6.180   3.564   3.207  0.3738 -0.2364 -0.0372
    4BIM    C2624722   6.142   3.467   3.115  0.4100 -0.2772 -0.0087
    4BIM    C2724723   6.120   3.337   3.163  0.3382 -0.2437  0.0495
    4BIM    C2824724   6.079   3.213   3.093  0.3510 -0.2714  0.0914
    4BIM    C2924725   6.054   3.199   2.959  0.4417 -0.3402  0.0812
    4BIM    C3024726   6.064   3.307   2.866  0.5386 -0.3955  0.0265
    4BIM    C3124727   6.015   3.074   2.900  0.4464 -0.3622  0.1245
    5BIM     F124728   7.024   2.587   4.744 -0.1045 -0.0663  0.1657
    5BIM     F224729   7.221   2.398   4.754  0.0808  0.1109 -0.1125
    5BIM     O124730   6.669   2.349   4.412 -0.1913 -0.2252  0.3712
    5BIM     N524731   7.249   1.957   4.530  0.2855  0.2525 -0.3661
    5BIM     N624732   6.932   1.810   4.269  0.1804  0.0927 -0.1493
    5BIM    C1924733   6.731   2.084   4.303 -0.0450 -0.1122  0.1786
    5BIM    C2024734   6.812   2.151   4.386 -0.0305 -0.0792  0.1377
    5BIM    C2124735   6.774   2.287   4.438 -0.1092 -0.1415  0.2431
    5BIM    C2224736   6.884   2.331   4.525 -0.0694 -0.0839  0.1638
    5BIM    C2324737   6.894   2.451   4.596 -0.1156 -0.1111  0.2162
    5BIM    C2424738   7.008   2.471   4.672 -0.0632 -0.0441  0.1209
    5BIM    C2524739   7.109   2.373   4.677  0.0322  0.0471 -0.0224
    5BIM    C2624740   7.100   2.254   4.606  0.0788  0.0748 -0.0756
    5BIM    C2724741   6.985   2.232   4.529  0.0268  0.0080  0.0194
    5BIM    C2824742   6.945   2.118   4.444  0.0546  0.0144 -0.0023
    5BIM    C2924743   7.017   2.002   4.422  0.1425  0.0924 -0.1281
    5BIM    C3024744   7.144   1.978   4.482  0.2208  0.1802 -0.2586
    5BIM    C3124745   6.970   1.897   4.338  0.1627  0.0921 -0.1391
    1BTD     S224746   2.379   3.088   3.012 -0.0552 -0.0126 -0.2488
    1BTD     N124747   2.405   3.261   2.973 -0.0271  0.0384 -0.0018
    1BTD     N224748   2.552   3.054   3.045 -0.0378 -0.1266 -0.4496
    1BTD     N324749   2.953   3.299   3.044  0.0483 -0.2670 -0.4131
    1BTD     N424750   2.771   3.555   2.956  0.0615 -0.0637  0.1386
    1BTD     C524751   2.598   3.412   2.965  0.0190 -0.0173  0.0648
    1BTD     C624752   2.535   3.284   2.987 -0.0073 -0.0288 -0.0779
    1BTD     C724753   2.617   3.168   3.027 -0.0132 -0.1211 -0.3285
    1BTD     C824754   2.759   3.185   3.044  0.0073 -0.1975 -0.4239
    1BTD    C1524755   2.817   3.311   3.022  0.0327 -0.1830 -0.2776
    1BTD    C1624756   2.737   3.423   2.983  0.0385 -0.0941 -0.0361
    1BTD    C4324757   2.903   3.604   2.909  0.6680  0.3783  0.9366
    1BTD    C4424758   2.955   3.746   2.914 -0.1605 -0.3083 -1.1992
    1BTD    C4524759   2.981   3.786   3.066  0.1895 -0.2782  0.1072
    1BTD    C4624760   3.037   3.922   3.099 -0.3824 -0.4950  0.6129
    1BTD    C4724761   3.075   3.782   2.824  0.0116  0.2774  0.1332
    1BTD    C4824762   3.056   3.744   2.672 -0.6889  0.0660 -0.6834
    1BTD    C4924763   3.164   3.794   2.578 -0.3503 -0.2626 -0.5165
    1BTD    C5024764   3.136   3.938   2.527  0.0666  0.2875  0.5542
    1BTD    C7524765   3.033   3.399   3.117 -0.0943  0.1699  0.0232
    1BTD    C7624766   3.186   3.421   3.076  0.0040 -0.8709 -0.2042
    1BTD    C7724767   3.212   3.464   2.932 -0.7129  0.5792  0.1144
    1BTD    C7824768   3.331   3.392   2.870  0.2077  0.1408  0.0402
    1BTD    C7924769   3.262   3.491   3.187 -0.1535  0.1644  0.4107
    1BTD    C8024770   3.417   3.512   3.169  0.3331  0.1576  0.0533
    1BTD    C8124771   3.497   3.606   3.257 -0.2195  0.2160  0.4563
    1BTD    C8224772   3.636   3.603   3.212  0.1423  0.5228 -0.0723
    2TTP     S124773   2.396   3.611   2.856 -0.1177 -0.0513  0.2799
    2TTP     S524774   2.715   3.897   2.815 -0.1481 -0.0588 -0.0100
    2TTP     C124775   2.563   3.969   2.745 -0.1943 -0.0811  0.0677
    2TTP     C224776   2.456   3.885   2.754 -0.1877 -0.0801  0.1618
    2TTP     C324777   2.490   3.761   2.816 -0.1459 -0.0618  0.1759
    2TTP     C424778   2.548   3.539   2.926 -0.0715 -0.0290  0.2022
    2TTP    C1724779   2.656   3.623   2.917 -0.0782 -0.0300  0.1081
    2TTP    C1824780   2.622   3.748   2.855 -0.1200 -0.0484  0.0939
    2TTP    C3224781   2.306   3.915   2.723  0.1316  0.4015 -0.1354
    2TTP    C3324782   2.201   3.888   2.824 -0.0707  0.0601 -0.4566
    2TTP    C3424783   2.073   3.957   2.785  0.1232 -0.0420  0.5073
    2TTP    C3524784   1.951   3.931   2.871 -0.0532 -0.9460  0.0085
    2TTP    C3624785   1.892   3.795   2.880  0.3328  0.1513  0.0501
    2TTP    C3724786   1.755   3.796   2.944 -0.6892 -0.1610 -0.0664
    2TTP    C3824787   1.746   3.824   3.098  0.0643  0.2330 -0.0771
    2TTP    C3924788   1.604   3.845   3.143 -0.5783  0.2794 -0.0492
    2TTP    C4024789   1.517   3.721   3.136 -0.1817  0.4109 -0.0453
    2TTP    C4124790   1.372   3.766   3.148  0.1166  0.3220 -0.3363
    2TTP    C4224791   1.285   3.642   3.182 -0.4235 -0.2068  0.3112
    3TTP     S124792   2.885   2.919   3.105  0.0519  0.0506  0.2899
    3TTP     S524793   3.271   3.107   3.121  0.1699 -0.1566 -0.0829
    3TTP     C124794   3.292   2.929   3.149  0.0688 -0.1280  0.1786
    3TTP     C224795   3.174   2.860   3.146  0.0264 -0.0623  0.3091
    3TTP     C324796   3.063   2.946   3.121  0.0723 -0.0322  0.2072
    3TTP     C424797   2.863   3.097   3.076  0.1530  0.0221  0.0284
    3TTP    C1724798   2.981   3.166   3.080  0.1954 -0.0436 -0.1022
    3TTP    C1824799   3.093   3.080   3.105  0.1496 -0.0737 -0.0004
    3TTP    C3224800   3.149   2.716   3.147 -0.6035  0.2695 -0.4296
    3TTP    C3324801   3.105   2.646   3.021  0.0009 -0.9741 -0.8129
    3TTP    C3424802   3.185   2.670   2.896 -0.6323  0.2784  0.3596
    3TTP    C3524803   3.339   2.629   2.908  0.9868 -0.4363  0.4405
    3TTP    C3624804   3.399   2.587   2.776  0.9833 -0.2605  0.2001
    3TTP    C3724805   3.544   2.553   2.778 -0.0554 -0.6073 -0.1984
    3TTP    C3824806   3.574   2.444   2.878  0.4206  0.0668  0.8035
    3TTP    C3924807   3.543   2.299   2.838 -0.1496  0.2190  0.0622
    3TTP    C4024808   3.597   2.195   2.934 -0.9363  0.0853 -0.0326
    3TTP    C4124809   3.567   2.057   2.870 -0.3478  0.0759 -0.1282
    3TTP    C4224810   3.655   1.952   2.940 -0.3160 -0.2265  0.3868
    4BIM     F124811   3.098   4.470   2.389 -0.2916 -0.2536 -0.0417
    4BIM     F224812   2.909   4.666   2.394 -0.1538 -0.1262  0.1961
    4BIM     O124813   2.822   4.055   2.599 -0.4402 -0.1868 -0.1045
    4BIM     N524814   2.440   4.650   2.552 -0.0616  0.1044  0.4931
    4BIM     N624815   2.263   4.286   2.716 -0.2056  0.1308  0.3959
    4BIM    C1924816   2.543   4.094   2.680 -0.3613 -0.0417  0.1002
    4BIM    C2024817   2.620   4.191   2.626 -0.3293 -0.0632  0.1068
    4BIM    C2124818   2.763   4.163   2.588 -0.3735 -0.1390 -0.0026
    4BIM    C2224819   2.817   4.289   2.533 -0.3222 -0.1445  0.0359
    4BIM    C2324820   2.945   4.312   2.484 -0.3378 -0.2043 -0.0341
    4BIM    C2424821   2.973   4.440   2.438 -0.2800 -0.1965  0.0222
    4BIM    C2524822   2.875   4.540   2.441 -0.2091 -0.1309  0.1447
    4BIM    C2624823   2.747   4.518   2.490 -0.1932 -0.0710  0.2151
    4BIM    C2724824   2.717   4.389   2.537 -0.2509 -0.0777  0.1597
    4BIM    C2824825   2.592   4.333   2.594 -0.2524 -0.0253  0.2081
    4BIM    C2924826   2.474   4.400   2.614 -0.1938  0.0451  0.3246
    4BIM    C3024827   2.456   4.537   2.580 -0.1214  0.0774  0.4167
    4BIM    C3124828   2.358   4.337   2.670 -0.2006  0.0919  0.3632
    5BIM     F124829   4.087   3.128   3.233  0.0316  0.1575 -0.3734
    5BIM     F224830   4.145   2.863   3.256  0.1326  0.2239  0.1702
    5BIM     O124831   3.549   3.112   3.178  0.0468 -0.1658 -0.4296
    5BIM     N524832   3.844   2.470   3.249  0.2887  0.0888  0.9115
    5BIM     N624833   3.412   2.511   3.202  0.2801 -0.1771  0.7580
    5BIM    C1924834   3.413   2.853   3.180  0.1486 -0.2173  0.0697
    5BIM    C2024835   3.546   2.867   3.193  0.1408 -0.1384  0.0626
    5BIM    C2124836   3.609   3.004   3.191  0.0873 -0.1168 -0.2021
    5BIM    C2224837   3.754   2.984   3.207  0.0927 -0.0268 -0.1371
    5BIM    C2324838   3.853   3.081   3.212  0.0537  0.0217 -0.3165
    5BIM    C2424839   3.984   3.037   3.228  0.0682  0.1060 -0.2075
    5BIM    C2524840   4.013   2.901   3.240  0.1202  0.1400  0.0727
    5BIM    C2624841   3.915   2.803   3.236  0.1595  0.0919  0.2529
    5BIM    C2724842   3.782   2.845   3.219  0.1455  0.0066  0.1463
    5BIM    C2824843   3.655   2.768   3.211  0.1771 -0.0607  0.2801
    5BIM    C2924844   3.642   2.632   3.218  0.2300 -0.0525  0.5533
    5BIM    C3024845   3.753   2.544   3.235  0.2621  0.0253  0.7493
    5BIM    C3124846   3.515   2.566   3.209  0.2573 -0.1211  0.6644
    1BTD     S224847   5.551   9.118   8.969  0.0928  0.0892  0.3607
    1BTD     N124848   5.464   8.969   8.923 -0.0902  0.2201  0.2820
    1BTD     N224849   5.678   9.032   9.063  0.0713 -0.1254  0.1945
    1BTD     N324850   5.778   8.587   9.171 -0.3033 -0.3276 -0.2854
    1BTD     N424851   5.514   8.508   8.998 -0.5025  0.0982 -0.1774
    1BTD     C524852   5.493   8.729   8.964 -0.3030  0.1516  0.0410
    1BTD     C624853   5.530   8.867   8.977 -0.1546  0.1030  0.1433
    1BTD     C724854   5.650   8.903   9.056 -0.0643 -0.0906  0.0944
    1BTD     C824855   5.727   8.799   9.117 -0.1267 -0.2255 -0.0546
    1BTD    C1524856   5.687   8.665   9.102 -0.2724 -0.1720 -0.1511
    1BTD    C1624857   5.572   8.630   9.026 -0.3596  0.0144 -0.1040
    1BTD    C4324858   5.601   8.389   8.958  0.5598 -0.2678  0.3529
    1BTD    C4424859   5.532   8.251   8.950 -0.0298  0.8333  0.4288
    1BTD    C4524860   5.613   8.153   8.863 -0.3365 -0.1779  0.0966
    1BTD    C4624861   5.741   8.085   8.903  0.3323  0.0130 -0.6135
    1BTD    C4724862   5.473   8.203   9.083 -0.4644  0.6346 -0.0743
    1BTD    C4824863   5.402   8.067   9.076  0.4065  0.1713  0.2796
    1BTD    C4924864   5.366   7.996   9.207  0.2795  0.3357  0.1214
    1BTD    C5024865   5.291   7.869   9.176  0.1514  0.2430 -0.1920
    1BTD    C7524866   5.775   8.442   9.206 -0.0777  0.2406 -0.4606
    1BTD    C7624867   5.732   8.390   9.342 -0.2056 -0.2247 -0.0050
    1BTD    C7724868   5.590   8.437   9.395 -0.8453 -0.3257 -0.1402
    1BTD    C7824869   5.598   8.563   9.474 -0.5043 -0.0818 -0.5590
    1BTD    C7924870   5.749   8.236   9.334 -0.2584  0.9278  0.2967
    1BTD    C8024871   5.721   8.154   9.461  0.6827 -0.2096 -0.1385
    1BTD    C8124872   5.796   8.166   9.591 -0.7952  0.5185  0.0514
    1BTD    C8224873   5.952   8.176   9.568  0.5481 -0.1592  0.9945
    2TTP     S124874   5.225   8.722   8.840  0.0199  0.0653 -0.0528
    2TTP     S524875   5.194   8.301   8.924  0.0527  0.0412 -0.1607
    2TTP     C124876   5.036   8.358   8.855 -0.0229  0.0919  0.0518
    2TTP     C224877   5.036   8.492   8.824 -0.0374  0.1023  0.0978
    2TTP     C324878   5.161   8.553   8.855  0.0105  0.0706 -0.0334
    2TTP     C424879   5.383   8.665   8.909  0.0956  0.0148 -0.2651
    2TTP    C1724880   5.383   8.532   8.939  0.1100  0.0042 -0.3113
    2TTP    C1824881   5.258   8.470   8.908  0.0622  0.0360 -0.1802
    2TTP    C3224882   4.922   8.564   8.757  0.1759 -0.2534  0.2777
    2TTP    C3324883   4.836   8.671   8.828  0.0663  0.0915 -0.0539
    2TTP    C3424884   4.786   8.651   8.974  0.1865  0.3293  0.3573
    2TTP    C3524885   4.685   8.534   9.002  0.3960 -0.5752 -0.0044
    2TTP    C3624886   4.709   8.458   9.133  0.6867 -0.3860  0.1756
    2TTP    C3724887   4.849   8.417   9.162 -0.2210 -0.1391 -0.2626
    2TTP    C3824888   4.877   8.342   9.296 -0.5737  0.8409  0.1167
    2TTP    C3924889   5.017   8.274   9.294  0.2536  0.4320 -0.0794
    2TTP    C4024890   5.089   8.317   9.420  0.1408  0.2537  0.2115
    2TTP    C4124891   5.232   8.276   9.435 -0.2380  0.2715 -0.1470
    2TTP    C4224892   5.287   8.305   9.574 -0.5458  0.3076 -0.0414
    3TTP     S124893   5.951   8.923   9.285 -0.0926 -0.1249 -0.1800
    3TTP     S524894   6.049   8.528   9.426 -0.2170  0.0329  0.3529
    3TTP     C124895   6.152   8.649   9.515 -0.1391  0.1184  0.1504
    3TTP     C224896   6.128   8.778   9.477 -0.0960  0.0744 -0.0262
    3TTP     C324897   6.027   8.786   9.376 -0.1233 -0.0279 -0.0079
    3TTP     C424898   5.849   8.802   9.195 -0.1706 -0.2103  0.0224
    3TTP    C1724899   5.873   8.673   9.234 -0.2136 -0.1665  0.1994
    3TTP    C1824900   5.974   8.665   9.335 -0.1866 -0.0641  0.1807
    3TTP    C3224901   6.199   8.901   9.527  0.1474  0.0037 -0.0681
    3TTP    C3324902   6.121   8.979   9.633 -0.4871 -0.4137 -0.1017
    3TTP    C3424903   6.189   9.106   9.701 -0.5809  0.3385  0.1301
    3TTP    C3524904   6.288   9.193   9.621 -0.5075  0.4471  0.1262
    3TTP    C3624905   6.364   9.305   9.689  0.0975  0.2398  0.3821
    3TTP    C3724906   6.269   9.407   9.747  0.1667  0.1032  0.3399
    3TTP    C3824907   6.314   9.507   9.842 -0.3632  0.5971 -0.3695
    3TTP    C3924908   6.424   9.481   9.952 -0.1960 -0.2456 -0.1193
    3TTP    C4024909   6.376   9.387  10.056 -0.0819 -0.4640  0.1155
    3TTP    C4124910   6.472   9.340  10.163  0.1501  0.6537  0.0943
    3TTP    C4224911   6.391   9.244  10.248 -0.5050  0.1598  0.0016
    4BIM     F124912   4.850   7.574   9.019 -0.1413 -0.0048  0.2759
    4BIM     F224913   4.602   7.618   8.917  0.1425 -0.2360 -0.5302
    4BIM     O124914   5.075   8.063   8.956 -0.3139  0.1445  0.8004
    4BIM     N524915   4.405   8.030   8.725  0.4275 -0.4621 -1.3149
    4BIM     N624916   4.631   8.402   8.696  0.2356 -0.2990 -0.7427
    4BIM    C1924917   4.918   8.278   8.836 -0.1040 -0.0235  0.2168
    4BIM    C2024918   4.871   8.153   8.856 -0.0716 -0.0520  0.1163
    4BIM    C2124919   4.958   8.048   8.918 -0.1855  0.0393  0.4334
    4BIM    C2224920   4.877   7.925   8.925 -0.1144 -0.0210  0.2227
    4BIM    C2324921   4.914   7.801   8.975 -0.1762  0.0277  0.3905
    4BIM    C2424922   4.820   7.699   8.971 -0.0874 -0.0470  0.1296
    4BIM    C2524923   4.692   7.722   8.919  0.0589 -0.1658 -0.2851
    4BIM    C2624924   4.654   7.846   8.868  0.1212 -0.2149 -0.4549
    4BIM    C2724925   4.748   7.950   8.871  0.0330 -0.1409 -0.1960
    4BIM    C2824926   4.739   8.091   8.827  0.0650 -0.1647 -0.2778
    4BIM    C2924927   4.630   8.153   8.770  0.1962 -0.2713 -0.6478
    4BIM    C3024928   4.507   8.085   8.745  0.3229 -0.3757 -1.0133
    4BIM    C3124929   4.631   8.290   8.730  0.2171 -0.2859 -0.6979
    5BIM     F124930   6.494   7.957   9.809  0.0886  0.0807  0.2826
    5BIM     F224931   6.619   8.106  10.000 -0.0348  0.1957  0.2747
    5BIM     O124932   6.224   8.341   9.540  0.0490 -0.1144  0.0434
    5BIM     N524933   6.607   8.594  10.081 -0.2407  0.2217  0.0928
    5BIM     N624934   6.370   8.864   9.833 -0.2466  0.0465 -0.0925
    5BIM    C1924935   6.247   8.620   9.626 -0.0830 -0.0738 -0.0491
    5BIM    C2024936   6.310   8.518   9.687 -0.0683 -0.0291  0.0114
    5BIM    C2124937   6.293   8.377   9.637  0.0008 -0.0541  0.0561
    5BIM    C2224938   6.375   8.291   9.724 -0.0002  0.0072  0.1175
    5BIM    C2324939   6.391   8.153   9.717  0.0521  0.0103  0.1735
    5BIM    C2424940   6.474   8.093   9.811  0.0391  0.0742  0.2257
    5BIM    C2524941   6.538   8.170   9.909 -0.0246  0.1333  0.2215
    5BIM    C2624942   6.523   8.308   9.917 -0.0771  0.1309  0.1657
    5BIM    C2724943   6.439   8.370   9.822 -0.0647  0.0665  0.1124
    5BIM    C2824944   6.402   8.513   9.803 -0.1091  0.0463  0.0470
    5BIM    C2924945   6.445   8.619   9.879 -0.1754  0.0894  0.0240
    5BIM    C3024946   6.534   8.605   9.990 -0.2110  0.1621  0.0619
    5BIM    C3124947   6.404   8.753   9.853 -0.2141  0.0653 -0.0400
    1BTD     S224948   9.296   3.887   6.152 -0.3314 -0.1320  0.1831
    1BTD     N124949   9.284   4.066   6.134 -0.6397 -0.1056  0.6098
    1BTD     N224950   9.435   3.894   6.267  0.1132 -0.2003 -0.3413
    1BTD     N324951   9.695   4.230   6.467  0.4625 -0.2916 -0.6399
    1BTD     N424952   9.509   4.442   6.303 -0.4649 -0.1751  0.5320
    1BTD     C524953   9.404   4.260   6.224 -0.5372 -0.1433  0.5552
    1BTD     C624954   9.379   4.119   6.210 -0.4072 -0.1467  0.3527
    1BTD     C724955   9.463   4.023   6.285  0.0141 -0.1998 -0.1799
    1BTD     C824956   9.568   4.072   6.369  0.2847 -0.2465 -0.4832
    1BTD    C1524957   9.589   4.211   6.380  0.1440 -0.2411 -0.2689
    1BTD    C1624958   9.508   4.304   6.308 -0.2620 -0.1900  0.2442
    1BTD    C4324959   9.625   4.538   6.317 -0.2552  0.4059 -0.0749
    1BTD    C4424960   9.715   4.558   6.194 -0.4191 -0.3799  0.1662
    1BTD    C4524961   9.796   4.431   6.158  0.0655  0.0720 -0.0524
    1BTD    C4624962   9.937   4.440   6.093  0.7888 -0.3135  0.2988
    1BTD    C4724963   9.664   4.644   6.071 -0.1449 -0.0417 -0.7616
    1BTD    C4824964   9.617   4.786   6.088  0.5954 -1.1427  0.0648
    1BTD    C4924965   9.734   4.886   6.124  0.8997 -0.3625 -0.7194
    1BTD    C5024966   9.688   5.026   6.150  0.6639  0.2978 -0.1449
    1BTD    C7524967   9.722   4.348   6.556  0.8218 -0.2333 -0.3730
    1BTD    C7624968   9.853   4.396   6.610 -0.5955  0.1847 -0.7919
    1BTD    C7724969   9.856   4.494   6.729  0.0953  0.2166 -0.1453
    1BTD    C7824970   9.795   4.446   6.854  0.5485  0.0206  0.2849
    1BTD    C7924971   9.957   4.417   6.493  0.3797 -0.2101  0.2450
    1BTD    C8024972  10.099   4.461   6.533  0.4994  0.6888  0.3208
    1BTD    C8124973  10.200   4.471   6.417  0.8054 -0.6157 -0.0982
    1BTD    C8224974  10.323   4.559   6.468  0.1038  0.2454  0.7070
    2TTP     S124975   9.201   4.409   6.064 -0.0285  0.1245 -0.2078
    2TTP     S524976   9.324   4.773   6.258 -0.3526 -0.0489  0.3278
    2TTP     C124977   9.177   4.808   6.158 -0.3816 -0.0317  0.3769
    2TTP     C224978   9.130   4.698   6.092 -0.2837  0.0228  0.2143
    2TTP     C324979   9.209   4.582   6.118 -0.1814  0.0529  0.0452
    2TTP     C424980   9.348   4.374   6.164  0.0007  0.1074 -0.2568
    2TTP    C1724981   9.395   4.484   6.230 -0.0977  0.0528 -0.0943
    2TTP    C1824982   9.316   4.600   6.204 -0.1996  0.0226  0.0747
    2TTP    C3224983   9.015   4.676   5.998  0.0779  0.3137  0.1612
    2TTP    C3324984   8.960   4.773   5.896  0.5236 -0.3807  0.5665
    2TTP    C3424985   8.837   4.727   5.816 -0.8861  0.0448  0.7412
    2TTP    C3524986   8.715   4.708   5.904  0.2911 -0.1469  0.6640
    2TTP    C3624987   8.597   4.649   5.824  0.2101 -0.3985  0.6683
    2TTP    C3724988   8.535   4.739   5.720 -0.3387  0.3434  0.6588
    2TTP    C3824989   8.410   4.660   5.661 -0.4090 -0.6938 -0.0459
    2TTP    C3924990   8.335   4.760   5.578  0.0228  0.3944  0.2322
    2TTP    C4024991   8.226   4.699   5.490 -0.2015 -0.7707 -0.3532
    2TTP    C4124992   8.106   4.638   5.572 -0.2268  0.1694  0.3332
    2TTP    C4224993   8.025   4.536   5.493 -0.2934 -0.2247  0.1725
    3TTP     S124994   9.711   3.844   6.499 -0.1064  0.0858 -0.0911
    3TTP     S524995   9.985   4.117   6.687  0.0965 -0.1705 -0.0143
    3TTP     C124996  10.039   3.947   6.723  0.0823 -0.2202 -0.2250
    3TTP     C224997   9.957   3.853   6.667  0.0188 -0.1441 -0.2609
    3TTP     C324998   9.850   3.911   6.594 -0.0209 -0.0436 -0.1237
    3TTP     C424999   9.658   4.015   6.462 -0.0922  0.1355  0.1196
    3TTP    C1725000   9.739   4.109   6.519 -0.0286  0.0594  0.1557
    3TTP    C1825001   9.847   4.050   6.592  0.0110 -0.0411  0.0182
    3TTP    C3225002   9.953   3.702   6.682  0.2001  0.3517  0.4989
    3TTP    C3325003  10.018   3.604   6.584  0.0282  0.2556 -0.0831
    3TTP    C3425004   9.995   3.458   6.612 -0.3308  0.0489  0.2325
    3TTP    C3525005   9.858   3.391   6.565 -0.6497 -0.3428 -0.7194
    3TTP    C3625006   9.854   3.241   6.585  0.4936  0.5835  0.4674
    3TTP    C3725007   9.716   3.178   6.565 -0.0091  0.2753  0.5590
    3TTP    C3825008   9.707   3.037   6.617  0.7338  1.1323 -0.3884
    3TTP    C3925009   9.567   2.968   6.618 -0.2395 -0.2905 -0.3072
    3TTP    C4025010   9.562   2.821   6.678  0.3528 -0.7151  0.2375
    3TTP    C4125011   9.423   2.768   6.708 -0.0296 -0.3351 -0.3959
    3TTP    C4225012   9.425   2.621   6.756 -0.0054 -0.0597  0.1492
    4BIM     F125013   9.495   5.562   6.133 -0.0105  0.0132  0.4214
    4BIM     F225014   9.243   5.662   6.110  0.0231 -0.0018 -0.0463
    4BIM     O125015   9.394   5.030   6.147 -0.0126  0.0112  0.3384
    4BIM     N525016   8.808   5.426   6.088  0.0710 -0.0248 -0.7777
    4BIM     N625017   8.780   4.991   6.104  0.0627 -0.0234 -0.7483
    4BIM    C1925018   9.117   4.937   6.130  0.0191 -0.0037 -0.1377
    4BIM    C2025019   9.153   5.067   6.128  0.0184 -0.0027 -0.0988
    4BIM    C2125020   9.297   5.107   6.137  0.0012  0.0051  0.1514
    4BIM    C2225021   9.300   5.254   6.131  0.0050  0.0043  0.1295
    4BIM    C2325022   9.411   5.337   6.136 -0.0064  0.0100  0.3133
    4BIM    C2425023   9.389   5.474   6.129 -0.0000  0.0078  0.2488
    4BIM    C2525024   9.259   5.525   6.117  0.0176  0.0001  0.0077
    4BIM    C2625025   9.147   5.443   6.112  0.0296 -0.0056 -0.1763
    4BIM    C2725026   9.168   5.304   6.119  0.0229 -0.0035 -0.1147
    4BIM    C2825027   9.072   5.191   6.117  0.0317 -0.0081 -0.2646
    4BIM    C2925028   8.935   5.200   6.106  0.0489 -0.0160 -0.5101
    4BIM    C3025029   8.866   5.324   6.096  0.0610 -0.0209 -0.6564
    4BIM    C3125030   8.851   5.085   6.105  0.0565 -0.0200 -0.6397
    5BIM     F125031  10.748   4.338   6.838 -0.0362 -0.0162  0.1994
    5BIM     F225032  10.793   4.179   7.054 -0.1200 -0.1228  0.1391
    5BIM     O125033  10.281   4.134   6.655 -0.0646  0.1996  0.0308
    5BIM     N525034  10.523   3.805   7.235 -0.2609 -0.1224 -0.0681
    5BIM     N625035  10.150   3.678   7.049 -0.2663  0.0677 -0.1876
    5BIM    C1925036  10.158   3.910   6.797 -0.1549  0.1742 -0.0869
    5BIM    C2025037  10.273   3.968   6.835 -0.1445  0.1242 -0.0421
    5BIM    C2125038  10.331   4.082   6.756 -0.0973  0.1411  0.0173
    5BIM    C2225039  10.456   4.121   6.824 -0.0977  0.0753  0.0554
    5BIM    C2325040  10.544   4.222   6.788 -0.0617  0.0650  0.1143
    5BIM    C2425041  10.657   4.240   6.867 -0.0702 -0.0023  0.1415
    5BIM    C2525042  10.679   4.158   6.979 -0.1134 -0.0570  0.1101
    5BIM    C2625043  10.592   4.056   7.015 -0.1495 -0.0472  0.0515
    5BIM    C2725044  10.477   4.037   6.936 -0.1415  0.0205  0.0232
    5BIM    C2825045  10.366   3.940   6.947 -0.1720  0.0483 -0.0379
    5BIM    C2925046  10.352   3.842   7.043 -0.2171  0.0110 -0.0821
    5BIM    C3025047  10.446   3.822   7.148 -0.2410 -0.0622 -0.0744
    5BIM    C3125048  10.241   3.753   7.046 -0.2439  0.0424 -0.1401
    1BTD     S225049   3.584   2.906   1.572 -0.1455  0.0094 -0.1448
    1BTD     N125050   3.748   2.887   1.645 -0.1745  0.1521 -0.0415
    1BTD     N225051   3.514   2.763   1.655 -0.1149  0.0370 -0.0714
    1BTD     N325052   3.667   2.436   1.956 -0.1049  0.3508  0.2648
    1BTD     N425053   3.954   2.589   1.944 -0.1785  0.4926  0.3017
    1BTD     C525054   3.852   2.730   1.801 -0.1757  0.3281  0.1372
    1BTD     C625055   3.742   2.780   1.723 -0.1606  0.2099  0.0383
    1BTD     C725056   3.611   2.711   1.729 -0.1272  0.1455  0.0215
    1BTD     C825057   3.598   2.594   1.812 -0.1106  0.2025  0.1045
    1BTD    C1525058   3.708   2.548   1.886 -0.1262  0.3183  0.2001
    1BTD    C1625059   3.834   2.615   1.881 -0.1585  0.3804  0.2163
    1BTD    C4325060   4.011   2.462   1.994 -0.0412 -0.1312  0.4186
    1BTD    C4425061   4.083   2.367   1.890 -0.3241 -0.2729 -0.4609
    1BTD    C4525062   3.983   2.304   1.792 -0.4609 -0.3691 -0.2450
    1BTD    C4625063   4.018   2.194   1.695  0.5341  0.3202  0.3486
    1BTD    C4725064   4.175   2.275   1.968 -0.3990  0.3369  0.1980
    1BTD    C4825065   4.283   2.332   2.060  0.6648 -0.8675  0.4654
    1BTD    C4925066   4.421   2.260   2.052 -0.2862  0.3350 -0.3230
    1BTD    C5025067   4.526   2.331   2.134  0.0642  0.2000 -0.1016
    1BTD    C7525068   3.722   2.391   2.081 -0.4504  0.5675 -1.3626
    1BTD    C7625069   3.650   2.445   2.209 -0.3568 -0.3048 -0.0790
    1BTD    C7725070   3.612   2.595   2.207  0.6162 -0.2101  0.3765
    1BTD    C7825071   3.526   2.648   2.324  0.5665  0.0754 -0.6203
    1BTD    C7925072   3.710   2.394   2.347  0.8092  0.6409  0.5411
    1BTD    C8025073   3.713   2.245   2.381 -0.2006 -0.6103 -0.3329
    1BTD    C8125074   3.589   2.161   2.342 -0.1100  0.0787  0.6309
    1BTD    C8225075   3.624   2.015   2.373  0.1363  0.1235  0.2545
    2TTP     S125076   4.084   2.911   1.768 -0.1751 -0.1383  0.1016
    2TTP     S525077   4.288   2.706   2.086  0.0588 -0.0767 -0.0079
    2TTP     C125078   4.387   2.850   2.037 -0.1564  0.1234  0.1402
    2TTP     C225079   4.330   2.922   1.936 -0.2415  0.1162  0.1827
    2TTP     C325080   4.206   2.866   1.893 -0.1396 -0.0477  0.0999
    2TTP     C425081   3.984   2.767   1.816  0.0400 -0.3384 -0.0465
    2TTP    C1725082   4.041   2.695   1.918  0.1251 -0.3312 -0.0890
    2TTP    C1825083   4.166   2.751   1.960  0.0230 -0.1674 -0.0062
    2TTP    C3225084   4.400   3.040   1.864  0.0728 -0.2919 -0.1877
    2TTP    C3325085   4.369   3.066   1.715 -0.0669 -0.1412 -0.1778
    2TTP    C3425086   4.441   3.204   1.680  0.2201  0.5701  0.5158
    2TTP    C3525087   4.390   3.271   1.554  0.5579  0.3149 -0.6922
    2TTP    C3625088   4.466   3.403   1.527 -0.0118  0.1199  0.2050
    2TTP    C3725089   4.431   3.444   1.389 -0.2621 -1.0490  1.2894
    2TTP    C3825090   4.517   3.550   1.331 -0.4528  0.1360 -0.4207
    2TTP    C3925091   4.474   3.625   1.207 -0.1479 -0.3182  0.0973
    2TTP    C4025092   4.576   3.733   1.165  0.3648 -0.2121 -0.4117
    2TTP    C4125093   4.541   3.788   1.029 -0.3745 -0.6476 -0.0223
    2TTP    C4225094   4.628   3.906   0.964  0.0820  0.4869 -0.2441
    3TTP     S125095   3.319   2.479   1.789  0.0298 -0.2674 -0.2447
    3TTP     S525096   3.429   2.142   2.033 -0.1393 -0.2075 -0.0850
    3TTP     C125097   3.254   2.125   1.987 -0.1368 -0.1624 -0.1112
    3TTP     C225098   3.210   2.228   1.909 -0.0844 -0.1783 -0.1620
    3TTP     C325099   3.312   2.324   1.883 -0.0444 -0.2266 -0.1822
    3TTP     C425100   3.494   2.496   1.835  0.0273 -0.3124 -0.2185
    3TTP    C1725101   3.538   2.393   1.913 -0.0251 -0.2966 -0.1677
    3TTP    C1825102   3.436   2.297   1.939 -0.0651 -0.2483 -0.1475
    3TTP    C3225103   3.079   2.238   1.830 -0.1212  0.9575 -0.3306
    3TTP    C3325104   2.974   2.340   1.885 -0.2213  0.0790  0.3997
    3TTP    C3425105   2.860   2.349   1.780 -0.1551  0.9298  0.0935
    3TTP    C3525106   2.748   2.453   1.791 -0.2326 -0.3453  0.1580
    3TTP    C3625107   2.791   2.594   1.811 -0.1550 -0.0515 -0.4547
    3TTP    C3725108   2.782   2.691   1.692  0.5958 -0.1788 -0.0902
    3TTP    C3825109   2.854   2.663   1.560 -0.1234  0.1007 -0.0244
    3TTP    C3925110   3.008   2.676   1.564 -0.1704  0.4560 -0.2632
    3TTP    C4025111   3.078   2.732   1.437 -0.6154  0.0308 -0.2152
    3TTP    C4125112   3.227   2.738   1.456 -1.1166  0.8421  0.1146
    3TTP    C4225113   3.297   2.813   1.346  0.3429 -0.0385  0.4074
    4BIM     F125114   4.824   2.626   2.698  0.0461  0.1350  0.1662
    4BIM     F225115   5.031   2.775   2.603  0.0329  0.0603  0.0188
    4BIM     O125116   4.449   2.720   2.320 -0.0602 -0.0385  0.2285
    4BIM     N525117   5.061   3.056   2.197 -0.0621 -0.1706 -0.1487
    4BIM     N625118   4.726   3.100   1.921 -0.1426 -0.2911 -0.0703
    4BIM    C1925119   4.513   2.896   2.095 -0.1107 -0.1714  0.1098
    4BIM    C2025120   4.599   2.866   2.194 -0.0834 -0.1249  0.1000
    4BIM    C2125121   4.559   2.775   2.306 -0.0585 -0.0576  0.1637
    4BIM    C2225122   4.676   2.765   2.396 -0.0323 -0.0196  0.1338
    4BIM    C2325123   4.686   2.691   2.513 -0.0038  0.0455  0.1721
    4BIM    C2425124   4.807   2.696   2.581  0.0177  0.0709  0.1319
    4BIM    C2525125   4.913   2.773   2.532  0.0106  0.0324  0.0560
    4BIM    C2625126   4.904   2.847   2.415 -0.0174 -0.0324  0.0175
    4BIM    C2725127   4.782   2.843   2.345 -0.0397 -0.0592  0.0572
    4BIM    C2825128   4.739   2.908   2.219 -0.0714 -0.1253  0.0333
    4BIM    C2925129   4.815   2.992   2.140 -0.0865 -0.1773 -0.0371
    4BIM    C3025130   4.950   3.027   2.172 -0.0731 -0.1734 -0.0982
    4BIM    C3125131   4.766   3.051   2.020 -0.1173 -0.2396 -0.0550
    5BIM     F125132   3.319   1.327   2.167 -0.2936 -0.0669  0.1286
    5BIM     F225133   3.050   1.320   2.207 -0.3278  0.1574 -0.0578
    5BIM     O125134   3.388   1.846   2.028  0.2321 -0.1288  0.1528
    5BIM     N525135   2.712   1.679   2.165 -0.0025  0.4358 -0.3083
    5BIM     N625136   2.820   2.086   2.049  0.4151  0.3421 -0.2518
    5BIM    C1925137   3.155   2.023   2.017  0.3860  0.0635 -0.0165
    5BIM    C2025138   3.148   1.893   2.050  0.2551  0.0703 -0.0154
    5BIM    C2125139   3.272   1.808   2.054  0.1828 -0.0324  0.0745
    5BIM    C2225140   3.230   1.673   2.094  0.0432  0.0045  0.0510
    5BIM    C2325141   3.309   1.560   2.111 -0.0617 -0.0609  0.1113
    5BIM    C2425142   3.246   1.443   2.149 -0.1855 -0.0072  0.0728
    5BIM    C2525143   3.108   1.439   2.169 -0.2028  0.1084 -0.0232
    5BIM    C2625144   3.027   1.551   2.152 -0.0987  0.1741 -0.0839
    5BIM    C2725145   3.089   1.671   2.114  0.0273  0.1213 -0.0462
    5BIM    C2825146   3.034   1.806   2.088  0.1569  0.1663 -0.0908
    5BIM    C2925147   2.902   1.843   2.097  0.1811  0.2760 -0.1841
    5BIM    C3025148   2.798   1.753   2.135  0.0800  0.3635 -0.2521
    5BIM    C3125149   2.857   1.976   2.071  0.3096  0.3118 -0.2208
    1BTD     S225150   2.589   8.569   7.681  0.0384  0.1449  0.0984
    1BTD     N125151   2.415   8.573   7.636  0.0235  0.2337  0.1627
    1BTD     N225152   2.583   8.401   7.746  0.0466  0.0393 -0.1726
    1BTD     N325153   2.258   8.066   7.796  0.0362 -0.0169 -0.6084
    1BTD     N425154   2.050   8.278   7.660  0.0078  0.2229 -0.1951
    1BTD     C525155   2.227   8.416   7.650  0.0156  0.2253 -0.0291
    1BTD     C625156   2.364   8.455   7.670  0.0253  0.1824 -0.0119
    1BTD     C725157   2.459   8.359   7.731  0.0383  0.0734 -0.1996
    1BTD     C825158   2.411   8.229   7.770  0.0408  0.0129 -0.3952
    1BTD    C1525159   2.276   8.195   7.750  0.0311  0.0581 -0.4045
    1BTD    C1625160   2.185   8.288   7.690  0.0186  0.1630 -0.2238
    1BTD    C4325161   1.976   8.153   7.607 -0.0066 -0.0799  0.1850
    1BTD    C4425162   1.831   8.112   7.612  0.1606 -0.0714 -0.5509
    1BTD    C4525163   1.767   8.109   7.758 -0.2464 -0.5026  0.0099
    1BTD    C4625164   1.784   8.229   7.848 -0.4165 -0.0247 -0.7593
    1BTD    C4725165   1.812   7.975   7.539  0.4773  0.2179 -0.0022
    1BTD    C4825166   1.664   7.922   7.527 -0.2777  0.0987  0.3498
    1BTD    C4925167   1.587   7.989   7.418  0.6797 -0.1507 -0.0317
    1BTD    C5025168   1.453   7.923   7.397  0.1633  0.0549 -0.0155
    1BTD    C7525169   2.127   8.030   7.856 -0.2213 -0.1420 -0.2042
    1BTD    C7625170   2.094   7.879   7.879 -0.1649 -0.4874  0.2415
    1BTD    C7725171   1.977   7.858   7.980 -0.5925 -0.0613  0.5327
    1BTD    C7825172   1.982   7.914   8.120  0.1857  0.5330  0.0975
    1BTD    C7925173   2.087   7.808   7.740  0.0617  0.0900 -0.5268
    1BTD    C8025174   2.052   7.663   7.741 -0.4657 -0.2755 -0.4612
    1BTD    C8125175   2.018   7.598   7.609 -0.5330 -0.3940 -0.2123
    1BTD    C8225176   2.032   7.452   7.609  0.6929 -0.1019  0.1190
    2TTP     S125177   2.088   8.633   7.506  0.0383 -0.1108  0.2330
    2TTP     S525178   1.721   8.409   7.504 -0.0003 -0.0441 -0.3302
    2TTP     C125179   1.694   8.566   7.416  0.0695  0.1137 -0.0729
    2TTP     C225180   1.806   8.644   7.412  0.0855  0.1023  0.1163
    2TTP     C325181   1.917   8.583   7.477  0.0432 -0.0312  0.0645
    2TTP     C425182   2.115   8.476   7.594 -0.0316 -0.2685 -0.0243
    2TTP    C1725183   2.004   8.398   7.599 -0.0476 -0.2569 -0.2136
    2TTP    C1825184   1.892   8.459   7.533 -0.0053 -0.1230 -0.1620
    2TTP    C3225185   1.823   8.779   7.336  0.5034 -0.1517 -0.9368
    2TTP    C3325186   1.931   8.787   7.232 -0.7021 -0.2332  0.0528
    2TTP    C3425187   1.927   8.693   7.108 -0.2447  0.2516 -0.0158
    2TTP    C3525188   1.822   8.716   7.001 -0.1891 -0.2599 -0.2117
    2TTP    C3625189   1.827   8.855   6.932  0.2057  0.6692 -0.0389
    2TTP    C3725190   1.685   8.897   6.897 -0.2838 -0.3510  0.1486
    2TTP    C3825191   1.707   9.039   6.824  0.6067  0.1324 -0.0236
    2TTP    C3925192   1.571   9.101   6.784  0.1762  0.3245  0.3838
    2TTP    C4025193   1.579   9.240   6.732 -0.7930  0.7034  0.1786
    2TTP    C4125194   1.472   9.272   6.633  0.6579  0.0186 -0.2116
    2TTP    C4225195   1.476   9.408   6.577  0.6164  0.0091 -0.2098
    3TTP     S125196   2.641   8.068   7.841 -0.2449  0.0441  0.1214
    3TTP     S525197   2.395   7.716   7.842  0.0023 -0.1292  0.0772
    3TTP     C125198   2.569   7.665   7.856  0.0415 -0.0111  0.0235
    3TTP     C225199   2.655   7.771   7.857 -0.0325  0.0491  0.0341
    3TTP     C325200   2.587   7.896   7.846 -0.1230  0.0045  0.0848
    3TTP     C425201   2.467   8.119   7.827 -0.2841 -0.0737  0.1751
    3TTP    C1725202   2.381   8.014   7.826 -0.2101 -0.1342  0.1645
    3TTP    C1825203   2.449   7.888   7.837 -0.1198 -0.0895  0.1136
    3TTP    C3225204   2.808   7.758   7.873  0.4196 -0.0068  0.2181
    3TTP    C3325205   2.883   7.743   7.741 -0.4392  0.1636 -0.1240
    3TTP    C3425206   3.028   7.697   7.770  0.6501  0.1630 -0.1768
    3TTP    C3525207   3.114   7.640   7.657 -0.1190  0.0069  0.4992
    3TTP    C3625208   3.062   7.534   7.557 -0.4793  0.2743  0.3574
    3TTP    C3725209   3.010   7.407   7.626 -0.4915  0.0246 -0.5785
    3TTP    C3825210   2.998   7.288   7.529 -0.2479 -0.1353  0.0924
    3TTP    C3925211   2.933   7.155   7.581 -0.5914 -0.6850  0.3830
    3TTP    C4025212   2.968   7.032   7.500  0.6078 -0.2193  0.2263
    3TTP    C4125213   2.856   6.934   7.506  0.5312  0.5111  0.2164
    3TTP    C4225214   2.889   6.811   7.413 -0.3943 -0.7350 -0.0715
    4BIM     F125215   1.015   8.177   7.150  0.0240 -0.0901 -0.2562
    4BIM     F225216   0.918   8.418   7.069 -0.0091 -0.0660 -0.1446
    4BIM     O125217   1.497   8.321   7.351  0.0210 -0.1228 -0.2255
    4BIM     N525218   1.122   8.868   7.097 -0.0587 -0.0548  0.0379
    4BIM     N625219   1.518   8.933   7.271 -0.0544 -0.0851  0.0395
    4BIM    C1925220   1.575   8.603   7.346 -0.0116 -0.1114 -0.1081
    4BIM    C2025221   1.458   8.558   7.298 -0.0096 -0.1040 -0.1200
    4BIM    C2125222   1.425   8.411   7.304  0.0076 -0.1106 -0.1816
    4BIM    C2225223   1.291   8.396   7.245  0.0053 -0.0999 -0.1793
    4BIM    C2325224   1.218   8.278   7.228  0.0176 -0.1013 -0.2254
    4BIM    C2425225   1.093   8.289   7.169  0.0124 -0.0896 -0.2124
    4BIM    C2525226   1.043   8.413   7.128 -0.0046 -0.0772 -0.1550
    4BIM    C2625227   1.115   8.531   7.144 -0.0170 -0.0756 -0.1086
    4BIM    C2725228   1.242   8.522   7.204 -0.0120 -0.0877 -0.1208
    4BIM    C2825229   1.343   8.627   7.235 -0.0218 -0.0896 -0.0823
    4BIM    C2925230   1.331   8.761   7.210 -0.0389 -0.0799 -0.0228
    4BIM    C3025231   1.216   8.820   7.148 -0.0498 -0.0663  0.0105
    4BIM    C3125232   1.434   8.855   7.243 -0.0473 -0.0827  0.0113
    5BIM     F125233   2.266   6.931   7.639 -0.0157  0.1203  0.1415
    5BIM     F225234   2.493   6.817   7.735  0.0479  0.0954 -0.0360
    5BIM     O125235   2.365   7.454   7.738  0.0647  0.0983  0.1775
    5BIM     N525236   2.890   7.024   7.946  0.1968  0.0439 -0.2646
    5BIM     N625237   2.921   7.456   8.004  0.2468  0.0319 -0.2007
    5BIM    C1925238   2.617   7.530   7.866  0.1540  0.0667  0.0211
    5BIM    C2025239   2.583   7.403   7.837  0.1314  0.0732  0.0188
    5BIM    C2125240   2.452   7.372   7.771  0.0855  0.0895  0.1022
    5BIM    C2225241   2.447   7.226   7.754  0.0706  0.0930  0.0764
    5BIM    C2325242   2.345   7.150   7.698  0.0302  0.1067  0.1308
    5BIM    C2425243   2.363   7.013   7.693  0.0236  0.1071  0.0914
    5BIM    C2525244   2.480   6.954   7.743  0.0563  0.0944 -0.0001
    5BIM    C2625245   2.582   7.029   7.799  0.0967  0.0806 -0.0548
    5BIM    C2725246   2.566   7.168   7.805  0.1041  0.0798 -0.0159
    5BIM    C2825247   2.654   7.275   7.858  0.1428  0.0672 -0.0550
    5BIM    C2925248   2.778   7.258   7.916  0.1816  0.0528 -0.1427
    5BIM    C3025249   2.839   7.129   7.932  0.1898  0.0480 -0.2097
    5BIM    C3125250   2.856   7.367   7.964  0.2172  0.0411 -0.1742
    1BTD     S225251   0.239   9.030   2.703  0.0545  0.1283  0.1432
    1BTD     N125252   0.174   8.892   2.799  0.0691  0.0963  0.1067
    1BTD     N225253   0.411   8.994   2.740  0.0599  0.1187  0.1093
    1BTD     N325254   0.645   8.672   2.990  0.0973  0.0412 -0.0259
    1BTD     N425255   0.353   8.546   3.061  0.1086  0.0136 -0.0290
    1BTD     C525256   0.271   8.713   2.935  0.0896  0.0534  0.0359
    1BTD     C625257   0.279   8.829   2.851  0.0769  0.0808  0.0728
    1BTD     C725258   0.411   8.886   2.818  0.0717  0.0935  0.0743
    1BTD     C825259   0.530   8.824   2.871  0.0796  0.0777  0.0386
    1BTD    C1525260   0.517   8.710   2.953  0.0920  0.0511  0.0032
    1BTD    C1625261   0.389   8.655   2.985  0.0969  0.0387  0.0017
    1BTD    C4325262   0.439   8.457   3.141 -0.1452  0.4924 -0.6182
    1BTD    C4425263   0.438   8.486   3.291  0.4127  0.1087 -0.5688
    1BTD    C4525264   0.491   8.634   3.311 -0.1308  1.4604  0.7307
    1BTD    C4625265   0.464   8.711   3.434  0.1031 -0.1157  0.2309
    1BTD    C4725266   0.500   8.382   3.393  0.4192 -0.5566  0.1863
    1BTD    C4825267   0.434   8.246   3.378 -0.4491  0.0070 -0.1567
    1BTD    C4925268   0.505   8.150   3.469 -0.0733 -0.5246 -0.2359
    1BTD    C5025269   0.434   8.017   3.474 -0.2989 -0.1768  0.7334
    1BTD    C7525270   0.697   8.535   2.983  0.3335  0.4762 -0.6271
    1BTD    C7625271   0.819   8.480   3.054 -0.5252 -0.5811  0.1284
    1BTD    C7725272   0.850   8.341   3.002  0.1104  0.3806  0.0611
    1BTD    C7825273   0.888   8.314   2.858  0.1866  0.1928  0.1176
    1BTD    C7925274   0.814   8.487   3.203  0.0448  0.4116 -0.3175
    1BTD    C8025275   0.933   8.434   3.283 -0.0666 -0.0603  0.4451
    1BTD    C8125276   0.920   8.457   3.431  0.0982 -0.6016 -1.2228
    1BTD    C8225277   1.055   8.433   3.494 -0.9548 -0.4656  0.1265
    2TTP     S125278  -0.010   8.592   2.934 -0.0061 -0.1929  0.2849
    2TTP     S525279   0.130   8.263   3.174  0.0952 -0.3326  0.0356
    2TTP     C125280  -0.040   8.226   3.118  0.0346 -0.2549  0.1685
    2TTP     C225281  -0.093   8.326   3.041 -0.0005 -0.2074  0.2534
    2TTP     C325282  -0.002   8.434   3.023  0.0196 -0.2306  0.2164
    2TTP     C425283   0.159   8.629   2.989  0.0546 -0.2704  0.1520
    2TTP    C1725284   0.212   8.529   3.067  0.0895 -0.3181  0.0671
    2TTP    C1825285   0.121   8.421   3.085  0.0695 -0.2949  0.1040
    2TTP    C3225286  -0.235   8.332   2.971  0.3170 -0.5413 -1.4092
    2TTP    C3325287  -0.240   8.308   2.821 -0.3395  0.3480 -0.4177
    2TTP    C3425288  -0.372   8.343   2.755 -0.2183 -0.2175  0.4670
    2TTP    C3525289  -0.365   8.309   2.606  0.4569  0.1152  0.3856
    2TTP    C3625290  -0.490   8.330   2.510  0.2049 -1.2411 -0.7704
    2TTP    C3725291  -0.540   8.478   2.494 -0.5665 -0.1197 -0.5706
    2TTP    C3825292  -0.453   8.588   2.424  0.0343 -0.0638 -0.3513
    2TTP    C3925293  -0.511   8.732   2.422  0.2891 -0.6371 -0.3133
    2TTP    C4025294  -0.648   8.760   2.349 -0.0416 -0.0593 -0.6084
    2TTP    C4125295  -0.706   8.901   2.364 -0.1594 -0.0725 -0.3931
    2TTP    C4225296  -0.751   8.929   2.506  0.5303  0.3263  0.0360
    3TTP     S125297   0.763   9.009   2.830 -0.0821  0.2675  0.3717
    3TTP     S525298   0.990   8.761   3.099 -0.0192 -0.1442 -0.0588
    3TTP     C125299   1.086   8.912   3.064 -0.1599  0.0534  0.3898
    3TTP     C225300   1.022   8.997   2.979 -0.1876  0.1919  0.5492
    3TTP     C325301   0.894   8.947   2.938 -0.0987  0.1473  0.3228
    3TTP     C425302   0.667   8.859   2.865  0.0586  0.0699 -0.0769
    3TTP    C1725303   0.731   8.773   2.950  0.0863 -0.0688 -0.2363
    3TTP    C1825304   0.859   8.824   2.991 -0.0026 -0.0243 -0.0099
    3TTP    C3225305   1.068   9.130   2.916  0.2257 -0.1424 -0.0687
    3TTP    C3325306   1.099   9.134   2.767 -0.7820  0.2342 -0.3877
    3TTP    C3425307   1.235   9.069   2.733  0.2920  0.0178 -0.2507
    3TTP    C3525308   1.277   9.110   2.591  0.4007 -0.4858  0.3199
    3TTP    C3625309   1.419   9.057   2.562 -0.0722  0.0869 -0.2965
    3TTP    C3725310   1.453   9.046   2.417  0.4993  0.0349  0.5071
    3TTP    C3825311   1.579   8.977   2.382 -0.2636  0.4931  0.1413
    3TTP    C3925312   1.608   8.837   2.442  0.4277 -0.3738 -0.1993
    3TTP    C4025313   1.755   8.793   2.468  0.0268 -0.6189  0.3020
    3TTP    C4125314   1.771   8.649   2.521 -0.6395 -0.0115  0.0917
    3TTP    C4225315   1.921   8.606   2.533  0.1173  0.1641  0.7160
    4BIM     F125316   0.145   7.471   3.384  0.1283  0.1584 -0.0092
    4BIM     F225317  -0.121   7.416   3.392  0.1683 -0.0476 -0.1067
    4BIM     O125318   0.139   7.982   3.207 -0.2010  0.1407 -0.0504
    4BIM     N525319  -0.509   7.701   3.275 -0.0095 -0.3573 -0.2761
    4BIM     N625320  -0.460   8.111   3.135 -0.2749 -0.3295 -0.2885
    4BIM    C1925321  -0.118   8.111   3.150 -0.2799 -0.0629 -0.1581
    4BIM    C2025322  -0.106   7.985   3.195 -0.1984 -0.0501 -0.1440
    4BIM    C2125323   0.030   7.925   3.221 -0.1626  0.0569 -0.0877
    4BIM    C2225324   0.007   7.787   3.268 -0.0732  0.0424 -0.0861
    4BIM    C2325325   0.102   7.693   3.305 -0.0141  0.1192 -0.0426
    4BIM    C2425326   0.056   7.569   3.346  0.0667  0.0866 -0.0505
    4BIM    C2525327  -0.081   7.541   3.350  0.0870 -0.0197 -0.1009
    4BIM    C2625328  -0.177   7.634   3.313  0.0281 -0.0969 -0.1445
    4BIM    C2725329  -0.132   7.761   3.271 -0.0539 -0.0652 -0.1372
    4BIM    C2825330  -0.207   7.881   3.226 -0.1302 -0.1265 -0.1746
    4BIM    C2925331  -0.344   7.893   3.216 -0.1359 -0.2332 -0.2277
    4BIM    C3025332  -0.434   7.787   3.249 -0.0668 -0.3009 -0.2541
    4BIM    C3125333  -0.407   8.013   3.171 -0.2122 -0.2856 -0.2609
    5BIM     F125334   1.631   8.531   3.553 -0.4229  0.3653  0.6898
    5BIM     F225335   1.807   8.733   3.504  0.0287 -0.2518 -0.2983
    5BIM     O125336   1.205   8.693   3.261 -0.4616  0.4442  0.7904
    5BIM     N525337   1.755   9.139   3.225  0.6504 -1.0829 -1.6473
    5BIM     N625338   1.386   9.224   3.008  0.5291 -0.8969 -1.3695
    5BIM    C1925339   1.221   8.943   3.111 -0.0440 -0.1173 -0.1179
    5BIM    C2025340   1.321   8.894   3.186 -0.0519 -0.1130 -0.1045
    5BIM    C2125341   1.305   8.765   3.261 -0.2731  0.1850  0.3768
    5BIM    C2225342   1.432   8.742   3.332 -0.2212  0.1073  0.2592
    5BIM    C2325343   1.465   8.634   3.414 -0.3721  0.3078  0.5858
    5BIM    C2425344   1.592   8.634   3.470 -0.2832  0.1807  0.3877
    5BIM    C2525345   1.682   8.738   3.445 -0.0505 -0.1377 -0.1214
    5BIM    C2625346   1.650   8.845   3.363  0.1010 -0.3388 -0.4494
    5BIM    C2725347   1.522   8.848   3.305  0.0142 -0.2141 -0.2559
    5BIM    C2825348   1.458   8.946   3.215  0.1276 -0.3626 -0.4997
    5BIM    C2925349   1.514   9.062   3.166  0.3552 -0.6716 -0.9966
    5BIM    C3025350   1.646   9.104   3.199  0.5167 -0.8967 -1.3526
    5BIM    C3125351   1.443   9.151   3.079  0.4495 -0.7937 -1.1989
    1BTD     S225352   4.241   2.298   5.536  0.0741  0.0107 -0.1859
    1BTD     N125353   4.262   2.120   5.524  0.1262  0.0151 -0.1613
    1BTD     N225354   4.380   2.322   5.647 -0.0561  0.0421 -0.0283
    1BTD     N325355   4.702   2.048   5.852 -0.2277  0.1140  0.3375
    1BTD     N425356   4.556   1.800   5.701 -0.0030  0.0808  0.1736
    1BTD     C525357   4.417   1.956   5.618  0.0561  0.0499  0.0155
    1BTD     C625358   4.366   2.089   5.600  0.0478  0.0386 -0.0429
    1BTD     C725359   4.432   2.202   5.668 -0.0542  0.0536  0.0315
    1BTD     C825360   4.546   2.176   5.752 -0.1429  0.0792  0.1608
    1BTD    C1525361   4.593   2.044   5.767 -0.1314  0.0894  0.2140
    1BTD    C1625362   4.529   1.935   5.701 -0.0328  0.0750  0.1423
    1BTD    C4325363   4.696   1.748   5.712 -0.6804 -0.2240 -0.7656
    1BTD    C4425364   4.727   1.605   5.756  0.3210 -0.0949  0.2360
    1BTD    C4525365   4.878   1.576   5.762  0.5030  0.2552  0.0858
    1BTD    C4625366   4.963   1.574   5.634  0.4980 -0.1554 -0.2214
    1BTD    C4725367   4.662   1.573   5.891  0.0563  0.0422 -0.4355
    1BTD    C4825368   4.673   1.427   5.934  0.2924  0.4210 -0.0114
    1BTD    C4925369   4.606   1.416   6.076 -0.2154 -0.3719 -0.4167
    1BTD    C5025370   4.609   1.272   6.119  0.1507 -0.1311  0.2360
    1BTD    C7525371   4.750   1.947   5.948  0.3517  0.2983  0.0907
    1BTD    C7625372   4.690   1.943   6.094  0.6148  0.4576 -0.5085
    1BTD    C7725373   4.533   1.925   6.090 -0.1675 -0.8694 -0.2830
    1BTD    C7825374   4.447   1.958   6.213  0.0100  0.1016  0.0446
    1BTD    C7925375   4.750   1.858   6.204 -0.5837 -0.3712  0.0221
    1BTD    C8025376   4.903   1.869   6.218  0.1970 -0.0070 -0.3130
    1BTD    C8125377   4.950   1.760   6.313 -0.4346 -0.6774 -1.3521
    1BTD    C8225378   5.101   1.761   6.341 -0.7084 -0.2989 -0.2485
    2TTP     S125379   4.238   1.755   5.477 -0.2496 -0.0943 -0.2113
    2TTP     S525380   4.513   1.440   5.578 -0.0149  0.2129  0.1142
    2TTP     C125381   4.375   1.368   5.482 -0.0013 -0.0010  0.2531
    2TTP     C225382   4.282   1.462   5.446 -0.0732 -0.1084  0.1608
    2TTP     C325383   4.316   1.593   5.491 -0.1414 -0.0257 -0.0230
    2TTP     C425384   4.376   1.826   5.572 -0.2632  0.1196 -0.3504
    2TTP    C1725385   4.469   1.733   5.609 -0.1915  0.2270 -0.2580
    2TTP    C1825386   4.434   1.602   5.563 -0.1233  0.1443 -0.0740
    2TTP    C3225387   4.159   1.443   5.362 -0.0838  0.1310 -0.0761
    2TTP    C3325388   4.021   1.436   5.431 -0.4986  0.5961  0.1648
    2TTP    C3425389   3.896   1.419   5.339 -0.1872 -0.6366 -1.1774
    2TTP    C3525390   3.759   1.445   5.415 -0.7877 -0.1983  0.1021
    2TTP    C3625391   3.727   1.365   5.538 -0.2400 -0.2247 -0.8140
    2TTP    C3725392   3.592   1.383   5.607 -0.1463 -0.3093  0.2546
    2TTP    C3825393   3.552   1.525   5.638  0.1089 -0.3836  0.0832
    2TTP    C3925394   3.431   1.538   5.734  0.2100 -0.9099  0.1972
    2TTP    C4025395   3.295   1.484   5.694 -0.5538  0.0146  0.5609
    2TTP    C4125396   3.234   1.557   5.571 -0.2984 -0.0442 -0.5642
    2TTP    C4225397   3.104   1.498   5.528  0.1596 -0.3876  0.0883
    3TTP     S125398   4.635   2.434   5.889 -0.0069 -0.0231 -0.3331
    3TTP     S525399   4.953   2.215   6.078 -0.3068  0.0932  0.3116
    3TTP     C125400   4.966   2.390   6.126 -0.1149  0.2074 -0.1395
    3TTP     C225401   4.868   2.468   6.071 -0.0110  0.1783 -0.3651
    3TTP     C325402   4.780   2.392   5.988 -0.0793  0.0646 -0.1899
    3TTP     C425403   4.622   2.259   5.840 -0.1990 -0.1372  0.1181
    3TTP    C1725404   4.719   2.181   5.896 -0.3027 -0.1081  0.3437
    3TTP    C1825405   4.808   2.257   5.978 -0.2348  0.0054  0.1684
    3TTP    C3225406   4.868   2.621   6.088 -0.7246 -0.3321 -0.0502
    3TTP    C3325407   4.890   2.708   5.963 -0.2547 -0.4786 -0.4241
    3TTP    C3425408   5.028   2.684   5.902 -0.5274 -0.1075 -0.2108
    3TTP    C3525409   5.072   2.797   5.808 -0.6239  0.1215  0.6410
    3TTP    C3625410   5.070   2.938   5.863  0.4214  0.6842 -0.0266
    3TTP    C3725411   5.088   3.042   5.761  0.4144  0.0647 -0.1698
    3TTP    C3825412   5.083   3.190   5.822 -0.9561  0.8989  0.6545
    3TTP    C3925413   5.119   3.291   5.712  0.5480 -0.5072 -0.2697
    3TTP    C4025414   5.159   3.429   5.764 -0.3765  0.1863  0.7946
    3TTP    C4125415   5.180   3.518   5.639  0.0715 -0.7288 -0.1486
    3TTP    C4225416   5.185   3.673   5.657  0.2752 -0.2332  0.3895
    4BIM     F125417   4.650   0.698   5.864  0.4569  0.0678 -0.0602
    4BIM     F225418   4.526   0.544   5.677  0.1079 -0.0380  0.2553
    4BIM     O125419   4.513   1.194   5.697  0.1405 -0.0264 -0.0819
    4BIM     N525420   4.249   0.678   5.289 -0.6193 -0.2572  0.6936
    4BIM     N625421   4.167   1.097   5.196 -0.7962 -0.3095  0.6129
    4BIM    C1925422   4.346   1.224   5.459 -0.3051 -0.1609  0.2118
    4BIM    C2025423   4.385   1.105   5.509 -0.2121 -0.1331  0.2049
    4BIM    C2125424   4.471   1.098   5.631  0.0179 -0.0637  0.0495
    4BIM    C2225425   4.495   0.955   5.657  0.0677 -0.0490  0.0845
    4BIM    C2325426   4.570   0.899   5.761  0.2613  0.0093 -0.0223
    4BIM    C2425427   4.578   0.760   5.765  0.2701  0.0116  0.0387
    4BIM    C2525428   4.514   0.681   5.668  0.0902 -0.0430  0.2011
    4BIM    C2625429   4.440   0.737   5.565 -0.1035 -0.1013  0.3083
    4BIM    C2725430   4.430   0.877   5.559 -0.1155 -0.1045  0.2488
    4BIM    C2825431   4.360   0.966   5.464 -0.2947 -0.1584  0.3295
    4BIM    C2925432   4.285   0.927   5.355 -0.4981 -0.2200  0.4890
    4BIM    C3025433   4.266   0.790   5.319 -0.5640 -0.2402  0.6009
    4BIM    C3125434   4.221   1.020   5.268 -0.6608 -0.2688  0.5563
    5BIM     F125435   5.481   2.006   6.629 -0.0015  0.0464  0.2489
    5BIM     F225436   5.619   2.239   6.655  0.2249 -0.0463 -0.1082
    5BIM     O125437   5.074   2.162   6.308 -0.0985  0.0553  0.3761
    5BIM     N525438   5.527   2.686   6.463  0.4815 -0.1731 -0.5310
    5BIM     N625439   5.181   2.761   6.207  0.3601 -0.1474 -0.3593
    5BIM    C1925440   5.061   2.441   6.219  0.0834 -0.0300  0.0801
    5BIM    C2025441   5.158   2.392   6.298  0.0989 -0.0287  0.0621
    5BIM    C2125442   5.158   2.248   6.340  0.0012  0.0166  0.2207
    5BIM    C2225443   5.277   2.229   6.426  0.0473  0.0057  0.1544
    5BIM    C2325444   5.318   2.112   6.488 -0.0111  0.0364  0.2522
    5BIM    C2425445   5.434   2.118   6.564  0.0508  0.0179  0.1603
    5BIM    C2525446   5.505   2.238   6.578  0.1675 -0.0298 -0.0235
    5BIM    C2625447   5.464   2.356   6.516  0.2264 -0.0607 -0.1221
    5BIM    C2725448   5.347   2.351   6.438  0.1652 -0.0427 -0.0312
    5BIM    C2825449   5.277   2.456   6.360  0.2015 -0.0656 -0.0952
    5BIM    C2925450   5.315   2.588   6.348  0.3095 -0.1122 -0.2676
    5BIM    C3025451   5.431   2.641   6.411  0.4036 -0.1455 -0.4117
    5BIM    C3125452   5.241   2.683   6.271  0.3368 -0.1313 -0.3170
    1BTD     S225453   7.306   5.994   4.136  0.0781  0.0232 -0.1101
    1BTD     N125454   7.159   6.087   4.092  0.0817 -0.0694 -0.3196
    1BTD     N225455   7.420   6.129   4.099  0.0432  0.1136  0.1055
    1BTD     N325456   7.385   6.570   3.944 -0.0217  0.1299  0.1669
    1BTD     N425457   7.063   6.519   3.935  0.0256 -0.0951 -0.3569
    1BTD     C525458   7.113   6.314   4.010  0.0519 -0.0802 -0.3326
    1BTD     C625459   7.200   6.208   4.054  0.0579 -0.0302 -0.2230
    1BTD     C725460   7.346   6.231   4.058  0.0364  0.0721  0.0149
    1BTD     C825461   7.398   6.359   4.018  0.0099  0.1193  0.1314
    1BTD    C1525462   7.309   6.460   3.976  0.0049  0.0677  0.0169
    1BTD    C1625463   7.168   6.437   3.972  0.0259 -0.0309 -0.2123
    1BTD    C4325464   7.057   6.663   3.970 -0.0404 -0.8024  0.1027
    1BTD    C4425465   6.965   6.778   3.923 -0.1448 -0.0704 -0.3383
    1BTD    C4525466   6.952   6.891   4.027  0.2711  0.0782 -0.8370
    1BTD    C4625467   7.079   6.983   4.050 -0.1329 -0.4860 -0.1072
    1BTD    C4725468   6.997   6.822   3.780 -0.0017  0.0532 -0.4504
    1BTD    C4825469   6.890   6.913   3.721  0.1714 -0.1195  0.2147
    1BTD    C4925470   6.927   6.972   3.586 -0.1860 -0.2328 -0.3114
    1BTD    C5025471   6.829   7.063   3.520  0.4302  0.3772  0.1859
    1BTD    C7525472   7.352   6.682   3.855  0.1437  0.1724 -0.8874
    1BTD    C7625473   7.375   6.670   3.702  0.7568 -0.2054 -0.3194
    1BTD    C7725474   7.356   6.806   3.631  0.2322 -0.1157 -0.5184
    1BTD    C7825475   7.411   6.943   3.681 -0.0666 -0.3317  0.1228
    1BTD    C7925476   7.287   6.562   3.631  0.0075  0.1817 -0.2026
    1BTD    C8025477   7.320   6.515   3.488 -0.0419  0.0327  1.6815
    1BTD    C8125478   7.470   6.493   3.455 -0.2270 -0.1423  0.7990
    1BTD    C8225479   7.497   6.461   3.308  0.1745 -0.0216  0.2266
    2TTP     S125480   6.828   6.213   4.002  0.3213 -0.1680 -0.0063
    2TTP     S525481   6.716   6.572   3.792 -0.4635 -0.2550  0.2602
    2TTP     C125482   6.572   6.460   3.798 -0.2553 -0.5248  0.2812
    2TTP     C225483   6.598   6.343   3.863 -0.0005 -0.5139  0.2001
    2TTP     C325484   6.733   6.337   3.911  0.0392 -0.2919  0.1186
    2TTP     C425485   6.972   6.325   3.996  0.1128  0.1019 -0.0273
    2TTP    C1725486   6.946   6.442   3.931 -0.1418  0.0911  0.0539
    2TTP    C1825487   6.811   6.448   3.884 -0.1814 -0.1309  0.1354
    2TTP    C3225488   6.497   6.232   3.886  0.7132  0.2155 -0.6864
    2TTP    C3325489   6.550   6.092   3.870 -0.1578  0.4582  0.3032
    2TTP    C3425490   6.429   6.003   3.887  0.0953  0.0426  0.2658
    2TTP    C3525491   6.429   5.863   3.825  0.4267 -0.0614 -0.5105
    2TTP    C3625492   6.547   5.776   3.868  0.1174 -0.2009 -0.0710
    2TTP    C3725493   6.559   5.645   3.790 -0.0656  0.1598  0.0432
    2TTP    C3825494   6.440   5.552   3.763  0.1817  0.1287 -0.0469
    2TTP    C3925495   6.369   5.498   3.886  0.6692 -0.0168  0.2618
    2TTP    C4025496   6.274   5.387   3.848  0.0457 -0.4773 -0.1809
    2TTP    C4125497   6.150   5.411   3.926 -0.2474  0.8453 -0.3998
    2TTP    C4225498   6.031   5.315   3.905  0.4874 -0.4932  0.3793
    3TTP     S125499   7.697   6.375   4.071 -0.1315 -0.0197 -0.0548
    3TTP     S525500   7.698   6.785   3.942 -0.2406  0.0460  0.1522
    3TTP     C125501   7.865   6.743   4.001 -0.1638 -0.0151 -0.1071
    3TTP     C225502   7.874   6.614   4.044 -0.1255 -0.0389 -0.1862
    3TTP     C325503   7.750   6.544   4.032 -0.1554 -0.0099 -0.0451
    3TTP     C425504   7.530   6.418   4.012 -0.2084  0.0414  0.2046
    3TTP    C1725505   7.521   6.547   3.969 -0.2466  0.0651  0.2836
    3TTP    C1825506   7.645   6.617   3.981 -0.2165  0.0361  0.1423
    3TTP    C3225507   8.008   6.549   4.078 -0.5198 -0.0781 -0.1653
    3TTP    C3325508   8.081   6.476   3.971 -0.0889  0.1730 -0.2355
    3TTP    C3425509   8.220   6.447   4.012 -0.2870 -0.4782  0.0289
    3TTP    C3525510   8.290   6.382   3.895 -0.1293  0.0181  0.4668
    3TTP    C3625511   8.441   6.361   3.915  0.2902  0.5562 -0.3097
    3TTP    C3725512   8.522   6.311   3.798 -0.4964  0.3006  0.3123
    3TTP    C3825513   8.492   6.181   3.719  0.0410 -0.2692  0.7358
    3TTP    C3925514   8.472   6.054   3.800 -0.2349  0.1892  0.1293
    3TTP    C4025515   8.450   5.928   3.723 -0.2889 -0.6341 -0.2123
    3TTP    C4125516   8.390   5.815   3.803 -0.1656 -0.2278 -0.0926
    3TTP    C4225517   8.473   5.758   3.921  0.1004 -0.2376 -0.2813
    4BIM     F125518   6.222   7.171   3.595 -0.0492 -0.0511  0.1988
    4BIM     F225519   6.010   7.032   3.496 -0.2161  0.0293  0.4413
    4BIM     O125520   6.533   6.767   3.776  0.1141 -0.1814 -0.3695
    4BIM     N525521   5.927   6.544   3.482 -0.3396  0.0521  0.3846
    4BIM     N625522   6.214   6.256   3.643 -0.1785 -0.0660 -0.1083
    4BIM    C1925523   6.442   6.490   3.745  0.0126 -0.1508 -0.3398
    4BIM    C2025524   6.372   6.598   3.704 -0.0219 -0.1212 -0.2063
    4BIM    C2125525   6.425   6.737   3.723  0.0345 -0.1396 -0.2317
    4BIM    C2225526   6.325   6.828   3.667 -0.0235 -0.0985 -0.0617
    4BIM    C2325527   6.330   6.967   3.662 -0.0007 -0.0978 -0.0209
    4BIM    C2425528   6.223   7.033   3.603 -0.0670 -0.0542  0.1495
    4BIM    C2525529   6.114   6.961   3.552 -0.1529 -0.0131  0.2741
    4BIM    C2625530   6.108   6.823   3.557 -0.1760 -0.0131  0.2342
    4BIM    C2725531   6.215   6.754   3.616 -0.1099 -0.0570  0.0625
    4BIM    C2825532   6.240   6.610   3.636 -0.1123 -0.0694 -0.0214
    4BIM    C2925533   6.156   6.506   3.600 -0.1847 -0.0386  0.0573
    4BIM    C3025534   6.031   6.527   3.535 -0.2697  0.0112  0.2370
    4BIM    C3125535   6.189   6.369   3.624 -0.1807 -0.0540 -0.0343
    5BIM     F125536   8.008   7.454   3.610  0.1316 -0.2940 -0.5381
    5BIM     F225537   8.239   7.479   3.752 -0.3879  0.2400  0.2238
    5BIM     O125538   7.824   6.980   3.797  0.3346 -0.4545 -0.7444
    5BIM     N525539   8.439   7.178   4.090 -0.9897  0.8926  1.1725
    5BIM     N625540   8.248   6.803   4.207 -0.7260  0.6595  0.8576
    5BIM    C1925541   7.978   6.836   3.999 -0.0891 -0.0017 -0.0896
    5BIM    C2025542   8.016   6.954   3.947 -0.1202  0.0179 -0.0675
    5BIM    C2125543   7.931   7.022   3.843  0.1070 -0.2241 -0.4169
    5BIM    C2225544   8.000   7.147   3.808  0.0062 -0.1329 -0.2927
    5BIM    C2325545   7.960   7.244   3.716  0.1445 -0.2855 -0.5159
    5BIM    C2425546   8.042   7.354   3.699  0.0069 -0.1550 -0.3345
    5BIM    C2525547   8.161   7.367   3.773 -0.2604  0.1203  0.0582
    5BIM    C2625548   8.202   7.271   3.864 -0.3998  0.2737  0.2827
    5BIM    C2725549   8.120   7.159   3.883 -0.2637  0.1450  0.1040
    5BIM    C2825550   8.134   7.040   3.971 -0.3521  0.2486  0.2581
    5BIM    C2925551   8.237   7.016   4.058 -0.6013  0.5084  0.6311
    5BIM    C3025552   8.348   7.105   4.075 -0.8140  0.7190  0.9274
    5BIM    C3125553   8.243   6.899   4.140 -0.6685  0.5901  0.7534
    1BTD     S225554   3.697   0.021   4.290  0.0934  0.2763 -0.1506
    1BTD     N125555   3.824  -0.024   4.409 -0.1064  0.3774  0.1037
    1BTD     N225556   3.633  -0.146   4.273  0.2760  0.2208 -0.2986
    1BTD     N325557   3.733  -0.568   4.453  0.2871  0.2906 -0.1411
    1BTD     N425558   3.968  -0.417   4.621 -0.1840  0.4835  0.3545
    1BTD     C525559   3.896  -0.231   4.518 -0.1413  0.4303  0.2288
    1BTD     C625560   3.813  -0.154   4.429 -0.0307  0.3653  0.0671
    1BTD     C725561   3.706  -0.223   4.353  0.1834  0.2778 -0.1582
    1BTD     C825562   3.688  -0.365   4.369  0.2761  0.2596 -0.2104
    1BTD    C1525563   3.772  -0.436   4.457  0.1620  0.3253 -0.0467
    1BTD    C1625564   3.875  -0.370   4.530 -0.0442  0.4101  0.1701
    1BTD    C4325565   3.958  -0.533   4.709 -0.9631 -0.5666  0.0137
    1BTD    C4425566   3.870  -0.534   4.835 -0.8284 -0.4470  0.2735
    1BTD    C4525567   3.824  -0.681   4.868  0.0651  0.0598  0.1915
    1BTD    C4625568   3.733  -0.705   4.986 -0.5123  0.0983 -0.3864
    1BTD    C4725569   3.927  -0.448   4.958  0.2492  0.3176  0.1517
    1BTD    C4825570   4.047  -0.489   5.033 -0.2759 -0.2449  0.4783
    1BTD    C4925571   4.082  -0.404   5.159  0.3750 -0.0392  0.0381
    1BTD    C5025572   4.208  -0.445   5.236  0.3294  0.4202  0.2520
    1BTD    C7525573   3.814  -0.694   4.469 -0.3583  0.2571  0.7289
    1BTD    C7625574   3.920  -0.732   4.361  0.2147  0.2685  0.5209
    1BTD    C7725575   4.018  -0.842   4.407 -0.1025  0.2830  0.4650
    1BTD    C7825576   4.110  -0.801   4.520 -0.0349  0.2828 -0.4814
    1BTD    C7925577   3.878  -0.747   4.214 -0.0112 -0.2806  0.0742
    1BTD    C8025578   3.786  -0.861   4.169 -0.1865  0.8137 -0.4778
    1BTD    C8125579   3.743  -0.850   4.025 -0.0418 -0.0356 -0.7237
    1BTD    C8225580   3.635  -0.957   3.997  0.3538  0.2277 -0.3995
    2TTP     S125581   4.120  -0.055   4.624  0.1253  0.0814  0.0889
    2TTP     S525582   4.295  -0.399   4.813  0.0824 -0.0298 -0.0712
    2TTP     C125583   4.407  -0.257   4.836 -0.0095  0.0019  0.1964
    2TTP     C225584   4.360  -0.143   4.778 -0.0017  0.0379  0.2613
    2TTP     C325585   4.233  -0.163   4.715  0.0772  0.0422  0.1025
    2TTP     C425586   4.009  -0.197   4.601  0.2173  0.0496 -0.1787
    2TTP    C1725587   4.056  -0.312   4.659  0.2095  0.0137 -0.2438
    2TTP    C1825588   4.182  -0.292   4.722  0.1305  0.0095 -0.0848
    2TTP    C3225589   4.397   0.005   4.810  0.0412  0.4332 -0.6458
    2TTP    C3325590   4.415   0.090   4.687 -0.4021  0.5546  0.2732
    2TTP    C3425591   4.451   0.243   4.688  0.0560  0.0355 -0.6252
    2TTP    C3525592   4.595   0.257   4.744  0.0112 -0.3001 -0.2614
    2TTP    C3625593   4.663   0.384   4.737 -0.7867 -0.2659  0.4622
    2TTP    C3725594   4.795   0.386   4.817 -0.1573  1.0327 -0.5547
    2TTP    C3825595   4.857   0.517   4.846  0.1405  0.1133  0.2611
    2TTP    C3925596   4.995   0.518   4.913 -0.0745  0.0385  0.3746
    2TTP    C4025597   5.033   0.647   4.990  0.0874  0.3645 -0.1627
    2TTP    C4125598   5.047   0.769   4.903  0.0818 -0.2537  0.1280
    2TTP    C4225599   5.178   0.775   4.820  0.1962 -0.0364 -0.4123
    3TTP     S125600   3.444  -0.457   4.217  0.0374 -0.0086 -0.0247
    3TTP     S525601   3.470  -0.843   4.407 -0.1754 -0.0539 -0.0871
    3TTP     C125602   3.318  -0.837   4.308 -0.1701  0.0450 -0.0898
    3TTP     C225603   3.301  -0.718   4.243 -0.1042  0.0648 -0.0707
    3TTP     C325604   3.408  -0.626   4.270 -0.0553  0.0026 -0.0533
    3TTP     C425605   3.597  -0.463   4.316  0.0322 -0.1073 -0.0222
    3TTP    C1725606   3.614  -0.582   4.381 -0.0338 -0.1271 -0.0412
    3TTP    C1825607   3.507  -0.674   4.354 -0.0827 -0.0653 -0.0587
    3TTP    C3225608   3.201  -0.671   4.136  0.5838 -0.1093 -0.4110
    3TTP    C3325609   3.250  -0.699   3.998  0.0606 -0.3050  0.4009
    3TTP    C3425610   3.129  -0.713   3.902 -0.3339 -0.0693 -0.2063
    3TTP    C3525611   3.075  -0.855   3.870  0.5869  0.8574 -0.2158
    3TTP    C3625612   3.172  -0.959   3.815 -0.4296  0.0406 -0.8615
    3TTP    C3725613   3.211  -0.919   3.674  0.3029  0.3276  0.3515
    3TTP    C3825614   3.317  -1.014   3.613 -0.7818  0.2372  0.4894
    3TTP    C3925615   3.465  -0.986   3.637 -0.2195  0.0801 -0.0976
    3TTP    C4025616   3.560  -1.058   3.556  0.0515  0.1755 -0.3505
    3TTP    C4125617   3.694  -0.998   3.584 -0.4242  0.2694 -0.2733
    3TTP    C4225618   3.791  -1.058   3.481  0.4626 -0.0836 -0.6055
    4BIM     F125619   4.762  -0.797   5.342 -0.0938 -0.1948 -0.1541
    4BIM     F225620   4.963  -0.618   5.382 -0.3021 -0.0374  0.1982
    4BIM     O125621   4.449  -0.523   4.995 -0.0447 -0.1671 -0.1770
    4BIM     N525622   5.029  -0.165   5.193 -0.5665  0.2086  0.6884
    4BIM     N625623   4.744   0.012   4.913 -0.4859  0.1984  0.5994
    4BIM    C1925624   4.530  -0.255   4.910 -0.2261 -0.0067  0.1514
    4BIM    C2025625   4.601  -0.331   4.996 -0.2302 -0.0200  0.1434
    4BIM    C2125626   4.553  -0.468   5.035 -0.1336 -0.1042 -0.0305
    4BIM    C2225627   4.652  -0.522   5.129 -0.1657 -0.0966  0.0080
    4BIM    C2325628   4.651  -0.646   5.192 -0.1031 -0.1585 -0.1113
    4BIM    C2425629   4.757  -0.676   5.277 -0.1510 -0.1369 -0.0435
    4BIM    C2525630   4.860  -0.583   5.297 -0.2585 -0.0556  0.1380
    4BIM    C2625631   4.862  -0.459   5.235 -0.3214  0.0062  0.2577
    4BIM    C2725632   4.756  -0.428   5.148 -0.2742 -0.0145  0.1918
    4BIM    C2825633   4.728  -0.306   5.068 -0.3182  0.0360  0.2822
    4BIM    C2925634   4.806  -0.193   5.061 -0.4205  0.1180  0.4603
    4BIM    C3025635   4.928  -0.178   5.133 -0.5003  0.1676  0.5850
    4BIM    C3125636   4.772  -0.081   4.980 -0.4560  0.1616  0.5358
    5BIM     F125637   3.350  -1.656   4.340 -0.0704 -0.1385  0.1588
    5BIM     F225638   3.078  -1.661   4.324 -0.0663 -0.1206  0.0842
    5BIM     O125639   3.444  -1.124   4.314 -0.0343 -0.1385  0.2846
    5BIM     N525640   2.755  -1.289   4.282 -0.0346 -0.0949  0.0664
    5BIM     N625641   2.883  -0.872   4.265 -0.0073 -0.0985  0.1796
    5BIM    C1925642   3.218  -0.939   4.289 -0.0176 -0.1213  0.2577
    5BIM    C2025643   3.205  -1.073   4.297 -0.0268 -0.1221  0.2291
    5BIM    C2125644   3.326  -1.161   4.309 -0.0351 -0.1311  0.2452
    5BIM    C2225645   3.276  -1.300   4.315 -0.0440 -0.1295  0.2058
    5BIM    C2325646   3.351  -1.417   4.326 -0.0535 -0.1357  0.2042
    5BIM    C2425647   3.282  -1.537   4.329 -0.0609 -0.1325  0.1629
    5BIM    C2525648   3.142  -1.539   4.321 -0.0588 -0.1234  0.1245
    5BIM    C2625649   3.066  -1.423   4.309 -0.0492 -0.1171  0.1258
    5BIM    C2725650   3.135  -1.301   4.306 -0.0417 -0.1202  0.1674
    5BIM    C2825651   3.085  -1.161   4.294 -0.0311 -0.1154  0.1801
    5BIM    C2925652   2.954  -1.122   4.284 -0.0262 -0.1061  0.1519
    5BIM    C3025653   2.845  -1.214   4.283 -0.0309 -0.1001  0.1049
    5BIM    C3125654   2.916  -0.985   4.273 -0.0158 -0.1018  0.1674
    1BTD     S225655   4.221   7.649   6.349  0.1675 -0.2699  0.0912
    1BTD     N125656   4.124   7.497   6.355  0.2265 -0.3200 -0.2179
    1BTD     N225657   4.371   7.572   6.412  0.0720 -0.2408  0.3583
    1BTD     N325658   4.502   7.143   6.549 -0.0163 -0.2723  0.3445
    1BTD     N425659   4.198   7.050   6.479  0.1739 -0.3700 -0.3654
    1BTD     C525660   4.166   7.265   6.420  0.1968 -0.3449 -0.2861
    1BTD     C625661   4.204   7.402   6.401  0.1744 -0.3130 -0.1115
    1BTD     C725662   4.343   7.444   6.433  0.0881 -0.2688  0.2109
    1BTD     C825663   4.436   7.347   6.483  0.0281 -0.2584  0.3425
    1BTD    C1525664   4.394   7.213   6.501  0.0528 -0.2907  0.1627
    1BTD    C1625665   4.261   7.173   6.470  0.1360 -0.3335 -0.1479
    1BTD    C4325666   4.231   6.925   6.558 -0.1914  0.4754 -0.4568
    1BTD    C4425667   4.183   6.920   6.704 -0.2151  0.7981 -0.3650
    1BTD    C4525668   4.225   6.797   6.793 -0.2342  0.0667 -0.2564
    1BTD    C4625669   4.372   6.754   6.802 -0.2961  0.6591  0.1057
    1BTD    C4725670   4.041   6.964   6.738  0.0366 -0.0811  0.5360
    1BTD    C4825671   3.925   6.864   6.715 -0.1349  0.8870  0.4630
    1BTD    C4925672   3.789   6.924   6.718  0.0801 -0.2581  0.6579
    1BTD    C5025673   3.660   6.835   6.717 -0.1484  0.5030  0.2574
    1BTD    C7525674   4.534   7.001   6.572 -0.1847  0.2266 -0.3149
    1BTD    C7625675   4.585   6.918   6.453  0.6239 -0.4600  0.7361
    1BTD    C7725676   4.505   6.950   6.318 -0.3094  0.5337 -0.3424
    1BTD    C7825677   4.561   6.882   6.191 -0.5703 -0.0961 -0.0404
    1BTD    C7925678   4.607   6.768   6.480 -0.7904 -0.2316 -0.0786
    1BTD    C8025679   4.703   6.728   6.602  0.2920 -0.2930  0.0020
    1BTD    C8125680   4.852   6.752   6.565 -0.0470 -0.1743  0.3513
    1BTD    C8225681   4.947   6.725   6.686  0.7190  0.0615  0.1799
    2TTP     S125682   3.876   7.239   6.352  0.2618 -0.0590  0.2718
    2TTP     S525683   3.916   6.812   6.387 -0.0036 -0.1032  0.0405
    2TTP     C125684   3.748   6.850   6.327  0.1267  0.0171 -0.2511
    2TTP     C225685   3.726   6.984   6.312  0.2164  0.0379 -0.1968
    2TTP     C325686   3.841   7.061   6.348  0.1854 -0.0405  0.0769
    2TTP     C425687   4.044   7.201   6.411  0.1314 -0.1793  0.5635
    2TTP    C1725688   4.066   7.067   6.426  0.0419 -0.2000  0.5091
    2TTP    C1825689   3.951   6.989   6.390  0.0729 -0.1218  0.2354
    2TTP    C3225690   3.591   7.051   6.274 -0.7874 -0.0825  0.5369
    2TTP    C3325691   3.500   7.126   6.370 -0.6433  0.4424  0.1071
    2TTP    C3425692   3.470   7.053   6.494  0.9040  0.0880  0.2773
    2TTP    C3525693   3.382   7.130   6.593  0.0322  0.2102 -0.1755
    2TTP    C3625694   3.443   7.262   6.641  0.7325 -0.3799 -0.1201
    2TTP    C3725695   3.373   7.360   6.739  0.0263 -0.1744  0.8049
    2TTP    C3825696   3.240   7.413   6.684 -0.1693  0.2469 -0.0860
    2TTP    C3925697   3.257   7.528   6.589  0.4340  0.0471 -0.7818
    2TTP    C4025698   3.124   7.553   6.524 -0.6924 -0.6947  0.4706
    2TTP    C4125699   3.141   7.689   6.456 -0.4045  0.5245  0.0576
    2TTP    C4225700   3.009   7.739   6.394 -0.1968 -0.5815 -0.4781
    3TTP     S125701   4.696   7.486   6.541  0.2639 -0.0523 -0.1020
    3TTP     S525702   4.847   7.117   6.701 -0.0701 -0.2428 -0.2234
    3TTP     C125703   4.971   7.247   6.728 -0.0467 -0.3151  0.0215
    3TTP     C225704   4.932   7.369   6.681  0.0578 -0.2606  0.0733
    3TTP     C325705   4.802   7.364   6.621  0.1233 -0.1596 -0.0784
    3TTP     C425706   4.572   7.356   6.514  0.2402  0.0199 -0.3469
    3TTP    C1725707   4.611   7.235   6.562  0.1358 -0.0346 -0.3988
    3TTP    C1825708   4.741   7.240   6.622  0.0705 -0.1354 -0.2470
    3TTP    C3225709   5.005   7.503   6.691 -0.3596  0.0425 -0.1754
    3TTP    C3325710   5.094   7.552   6.576 -0.4056 -0.3051 -0.1919
    3TTP    C3425711   5.039   7.539   6.431 -0.3318 -0.2883  0.1801
    3TTP    C3525712   4.961   7.667   6.386 -0.2951  0.1320  0.1691
    3TTP    C3625713   5.036   7.800   6.370  0.1007  0.5315 -0.4749
    3TTP    C3725714   5.166   7.802   6.297  0.6332 -0.0740  0.9099
    3TTP    C3825715   5.234   7.937   6.300  0.5439 -0.1553 -0.0979
    3TTP    C3925716   5.241   8.022   6.427 -0.2577 -0.2904 -0.3233
    3TTP    C4025717   5.312   7.971   6.551  0.6415 -0.2330 -0.2151
    3TTP    C4125718   5.330   8.073   6.662 -0.1888  0.2346  0.3234
    3TTP    C4225719   5.351   8.016   6.796 -0.3650  0.1643 -1.1442
    4BIM     F125720   3.583   6.074   6.552  0.0917 -0.1510 -0.1864
    4BIM     F225721   3.336   6.101   6.442 -0.1920  0.1178  0.5027
    4BIM     O125722   3.794   6.562   6.451  0.1928 -0.2404 -0.4097
    4BIM     N525723   3.130   6.488   6.211 -0.5278  0.4407  1.3347
    4BIM     N625724   3.345   6.864   6.155 -0.3917  0.3164  1.0214
    4BIM    C1925725   3.632   6.762   6.310 -0.0424 -0.0154  0.1694
    4BIM    C2025726   3.589   6.638   6.340 -0.0567 -0.0033  0.1987
    4BIM    C2125727   3.678   6.541   6.412  0.0691 -0.1240 -0.1110
    4BIM    C2225728   3.600   6.417   6.428  0.0167 -0.0756  0.0108
    4BIM    C2325729   3.641   6.298   6.490  0.0944 -0.1508 -0.1831
    4BIM    C2425730   3.550   6.194   6.493  0.0214 -0.0830 -0.0107
    4BIM    C2525731   3.422   6.208   6.436 -0.1247  0.0556  0.3446
    4BIM    C2625732   3.381   6.326   6.374 -0.2030  0.1311  0.5394
    4BIM    C2725733   3.472   6.432   6.370 -0.1309  0.0641  0.3694
    4BIM    C2825734   3.460   6.569   6.314 -0.1819  0.1141  0.4991
    4BIM    C2925735   3.350   6.621   6.249 -0.3188  0.2445  0.8336
    4BIM    C3025736   3.230   6.548   6.228 -0.4331  0.3518  1.1079
    4BIM    C3125737   3.348   6.755   6.197 -0.3580  0.2834  0.9350
    5BIM     F125738   5.291   6.704   7.259  0.0809 -0.1421 -0.1866
    5BIM     F225739   5.520   6.852   7.263 -0.0949  0.1217  0.2543
    5BIM     O125740   4.986   6.996   6.920  0.2573 -0.2834 -0.4669
    5BIM     N525741   5.631   7.272   7.026 -0.2217  0.4003  0.6884
    5BIM     N625742   5.347   7.470   6.760 -0.0485  0.2369  0.3804
    5BIM    C1925743   5.096   7.240   6.803  0.1522 -0.0815 -0.1455
    5BIM    C2025744   5.164   7.161   6.888  0.1146 -0.0563 -0.0921
    5BIM    C2125745   5.101   7.037   6.944  0.1732 -0.1655 -0.2668
    5BIM    C2225746   5.201   6.975   7.032  0.1111 -0.1042 -0.1531
    5BIM    C2325747   5.188   6.858   7.107  0.1339 -0.1659 -0.2463
    5BIM    C2425748   5.297   6.819   7.183  0.0631 -0.0876 -0.1052
    5BIM    C2525749   5.415   6.895   7.185 -0.0274  0.0485  0.1218
    5BIM    C2625750   5.428   7.012   7.111 -0.0505  0.1106  0.2161
    5BIM    C2725751   5.319   7.053   7.033  0.0200  0.0328  0.0758
    5BIM    C2825752   5.301   7.171   6.944  0.0187  0.0676  0.1223
    5BIM    C2925753   5.394   7.270   6.919 -0.0572  0.1913  0.3253
    5BIM    C3025754   5.524   7.271   6.978 -0.1473  0.3059  0.5242
    5BIM    C3125755   5.367   7.379   6.832 -0.0519  0.2155  0.3544
    1BTD     S225756   3.177   9.397   0.503  0.1028 -0.1694 -0.1475
    1BTD     N125757   3.323   9.334   0.586  0.1540 -0.1559 -0.2271
    1BTD     N225758   3.086   9.242   0.512  0.0972 -0.1607 -0.0418
    1BTD     N325759   3.166   8.811   0.679  0.1781 -0.1180  0.0298
    1BTD     N425760   3.457   8.924   0.771  0.2480 -0.1125 -0.1985
    1BTD     C525761   3.390   9.118   0.681  0.2022 -0.1333 -0.2094
    1BTD     C625762   3.298   9.206   0.614  0.1637 -0.1462 -0.1736
    1BTD     C725763   3.165   9.155   0.573  0.1319 -0.1488 -0.0699
    1BTD     C825764   3.131   9.018   0.600  0.1404 -0.1383 -0.0072
    1BTD    C1525765   3.224   8.936   0.666  0.1785 -0.1261 -0.0455
    1BTD    C1625766   3.352   8.985   0.706  0.2090 -0.1234 -0.1454
    1BTD    C4325767   3.499   8.781   0.759  0.4808  0.4082 -0.3640
    1BTD    C4425768   3.592   8.701   0.843 -0.2370  0.2718  0.1822
    1BTD    C4525769   3.555   8.695   0.991  0.3683  0.0361 -0.9675
    1BTD    C4625770   3.663   8.637   1.094  0.9883 -0.1909  0.6058
    1BTD    C4725771   3.641   8.567   0.780  0.2101  0.0303 -0.4349
    1BTD    C4825772   3.703   8.576   0.633 -0.0431  0.6650 -0.2773
    1BTD    C4925773   3.727   8.449   0.553  0.7195 -0.1341  0.0040
    1BTD    C5025774   3.604   8.354   0.531 -0.7631  0.2386 -0.2437
    1BTD    C7525775   3.190   8.699   0.779 -0.8739  0.5663  0.3284
    1BTD    C7625776   3.094   8.663   0.897  0.2566  0.8686  0.0626
    1BTD    C7725777   3.078   8.771   1.009  0.2116  0.3568 -0.5858
    1BTD    C7825778   3.199   8.804   1.094  0.3734 -0.6109  0.1231
    1BTD    C7925779   3.123   8.515   0.946  0.1328  0.2003  0.1394
    1BTD    C8025780   2.997   8.453   1.014 -0.3499 -0.6959  0.1517
    1BTD    C8125781   3.025   8.319   1.085  0.4947 -0.4976  0.0152
    1BTD    C8225782   2.892   8.259   1.143 -0.3234 -0.0369 -0.4766
    2TTP     S125783   3.639   9.274   0.751  0.0902  0.2552 -0.4179
    2TTP     S525784   3.823   8.912   0.894 -0.0356  0.4592  0.2697
    2TTP     C125785   3.945   9.047   0.904  0.0249  0.4278 -0.0279
    2TTP     C225786   3.895   9.167   0.860  0.0674  0.3631 -0.2578
    2TTP     C325787   3.759   9.156   0.818  0.0536  0.3357 -0.2071
    2TTP     C425788   3.517   9.139   0.741  0.0296  0.2868 -0.1202
    2TTP    C1725789   3.567   9.019   0.785 -0.0128  0.3514  0.1097
    2TTP    C1825790   3.703   9.030   0.827  0.0010  0.3786  0.0590
    2TTP    C3225791   3.966   9.301   0.870 -0.1065 -0.4190 -0.0358
    2TTP    C3325792   3.973   9.389   0.748 -0.1377  0.1393 -0.2501
    2TTP    C3425793   4.039   9.513   0.789 -0.3556  0.5152 -0.5012
    2TTP    C3525794   4.102   9.582   0.675  0.3218 -0.3686  0.1038
    2TTP    C3625795   4.200   9.695   0.700 -0.3310 -0.3686  0.2085
    2TTP    C3725796   4.350   9.657   0.713  0.1883  0.3082  0.4074
    2TTP    C3825797   4.442   9.778   0.730 -1.2996 -0.2072  0.1567
    2TTP    C3925798   4.581   9.725   0.754  0.5867 -0.4539  1.0355
    2TTP    C4025799   4.699   9.817   0.723  0.6736  0.4677 -0.0986
    2TTP    C4125800   4.834   9.757   0.745  0.1636  0.4223 -0.0044
    2TTP    C4225801   4.939   9.862   0.701  0.0661 -0.1929 -0.9136
    3TTP     S125802   2.848   8.953   0.503  0.3158  0.0031  0.0531
    3TTP     S525803   2.894   8.547   0.636  0.1192  0.0269  0.1956
    3TTP     C125804   2.726   8.567   0.571  0.1586  0.0617  0.1053
    3TTP     C225805   2.702   8.694   0.526  0.2216  0.0563  0.0560
    3TTP     C325806   2.815   8.779   0.541  0.2411  0.0246  0.0877
    3TTP     C425807   3.016   8.933   0.569  0.2764 -0.0315  0.1435
    3TTP    C1725808   3.040   8.806   0.614  0.2134 -0.0264  0.1928
    3TTP    C1825809   2.927   8.721   0.598  0.1939  0.0055  0.1610
    3TTP    C3225810   2.576   8.757   0.464  0.6647 -0.1390 -0.2825
    3TTP    C3325811   2.578   8.861   0.352 -0.3682 -0.5628  0.3591
    3TTP    C3425812   2.450   8.883   0.267 -0.9437  0.4946 -0.1791
    3TTP    C3525813   2.322   8.915   0.343 -0.0835 -0.5887 -0.1405
    3TTP    C3625814   2.219   9.001   0.263 -0.0215 -0.6736  0.8916
    3TTP    C3725815   2.263   9.144   0.229  0.0248  0.3726  0.3234
    3TTP    C3825816   2.179   9.198   0.118  0.2284  0.2194  0.5217
    3TTP    C3925817   2.186   9.343   0.098  0.0712 -0.1711  0.3879
    3TTP    C4025818   2.140   9.380  -0.051  0.5842 -0.2046 -0.5037
    3TTP    C4125819   2.170   9.517  -0.095  0.1479 -0.2565 -0.3314
    3TTP    C4225820   2.141   9.538  -0.235 -0.1584  1.1247  0.9270
    4BIM     F125821   4.438   8.480   1.256  0.0397 -0.2244 -0.1104
    4BIM     F225822   4.645   8.654   1.231 -0.0149 -0.1371  0.0392
    4BIM     O125823   4.033   8.771   1.045 -0.0355 -0.2003  0.0663
    4BIM     N525824   4.655   9.112   1.045 -0.1467  0.0060  0.3804
    4BIM     N625825   4.298   9.304   0.884 -0.1945  0.0072  0.4883
    4BIM    C1925826   4.088   9.041   0.946 -0.1143 -0.1080  0.2721
    4BIM    C2025827   4.182   8.961   1.000 -0.0935 -0.1175  0.2218
    4BIM    C2125828   4.146   8.823   1.049 -0.0530 -0.1659  0.1161
    4BIM    C2225829   4.270   8.764   1.101 -0.0385 -0.1645  0.0841
    4BIM    C2325830   4.287   8.637   1.157 -0.0025 -0.2003 -0.0081
    4BIM    C2425831   4.414   8.603   1.200  0.0048 -0.1904 -0.0211
    4BIM    C2525832   4.521   8.693   1.187 -0.0236 -0.1452  0.0561
    4BIM    C2625833   4.505   8.819   1.131 -0.0595 -0.1090  0.1483
    4BIM    C2725834   4.377   8.856   1.087 -0.0671 -0.1185  0.1629
    4BIM    C2825835   4.327   8.980   1.025 -0.1019 -0.0882  0.2505
    4BIM    C2925836   4.401   9.093   0.995 -0.1358 -0.0417  0.3410
    4BIM    C3025837   4.540   9.103   1.022 -0.1417 -0.0157  0.3623
    4BIM    C3125838   4.344   9.208   0.934 -0.1680 -0.0150  0.4215
    5BIM     F125839   2.614   7.834   0.922 -0.2263  0.1618  0.1214
    5BIM     F225840   2.375   7.817   0.792 -0.1786  0.2633  0.0199
    5BIM     O125841   2.788   8.317   0.751  0.1161  0.0262  0.0863
    5BIM     N525842   2.157   8.136   0.484  0.1343  0.3121 -0.1512
    5BIM     N625843   2.341   8.517   0.376  0.3921  0.1860 -0.1582
    5BIM    C1925844   2.622   8.472   0.566  0.2834  0.0751 -0.0232
    5BIM    C2025845   2.588   8.352   0.615  0.1954  0.1051 -0.0104
    5BIM    C2125846   2.678   8.278   0.709  0.1130  0.0770  0.0468
    5BIM    C2225847   2.611   8.151   0.741  0.0285  0.1216  0.0465
    5BIM    C2325848   2.656   8.049   0.825 -0.0646  0.1161  0.0902
    5BIM    C2425849   2.575   7.938   0.840 -0.1327  0.1644  0.0801
    5BIM    C2525850   2.452   7.929   0.773 -0.1080  0.2167  0.0277
    5BIM    C2625851   2.406   8.030   0.690 -0.0153  0.2224 -0.0161
    5BIM    C2725852   2.487   8.144   0.673  0.0548  0.1738 -0.0066
    5BIM    C2825853   2.468   8.267   0.592  0.1583  0.1662 -0.0437
    5BIM    C2925854   2.360   8.296   0.512  0.2099  0.2069 -0.0983
    5BIM    C3025855   2.249   8.208   0.497  0.1681  0.2646 -0.1272
    5BIM    C3125856   2.350   8.418   0.438  0.3099  0.1953 -0.1310
    1BTD     S225857   9.466   7.076   3.073 -0.1525 -0.0335  0.1434
    1BTD     N125858   9.297   7.104   3.019 -0.3939 -0.2619  0.7602
    1BTD     N225859   9.465   6.900   3.035  0.2313  0.1208 -0.6198
    1BTD     N325860   9.157   6.593   2.859  0.5789  0.0230 -1.0616
    1BTD     N425861   8.950   6.844   2.840 -0.1919 -0.4483  0.6389
    1BTD     C525862   9.118   6.965   2.926 -0.2787 -0.3536  0.6763
    1BTD     C625863   9.251   6.987   2.977 -0.1862 -0.2136  0.3849
    1BTD     C725864   9.345   6.873   2.986  0.1636  0.0004 -0.3875
    1BTD     C825865   9.301   6.743   2.943  0.4034  0.0640 -0.8299
    1BTD    C1525866   9.171   6.726   2.893  0.3014 -0.0781 -0.5213
    1BTD    C1625867   9.080   6.836   2.884 -0.0357 -0.2846  0.2230
    1BTD    C4325868   8.844   6.732   2.828 -0.1601  0.2266 -0.2329
    1BTD    C4425869   8.758   6.675   2.947 -0.1152  0.6159  0.1967
    1BTD    C4525870   8.844   6.598   3.053 -0.0502  0.4756  0.5248
    1BTD    C4625871   8.766   6.564   3.183 -0.5456 -0.3635  0.1043
    1BTD    C4725872   8.634   6.597   2.901  0.3764 -0.2621 -0.1861
    1BTD    C4825873   8.506   6.674   2.865 -0.0589  0.4506 -0.0989
    1BTD    C4925874   8.421   6.735   2.973 -0.1611  0.3418 -0.8126
    1BTD    C5025875   8.346   6.629   3.060 -0.4970 -0.5769  0.0345
    1BTD    C7525876   9.091   6.540   2.740  0.2491 -0.1845  0.2149
    1BTD    C7625877   9.024   6.402   2.717 -0.0712  0.3103  0.5880
    1BTD    C7725878   8.905   6.369   2.805 -0.0312 -0.8395  0.9910
    1BTD    C7825879   8.878   6.220   2.788 -0.0258  0.1702  0.0346
    1BTD    C7925880   9.007   6.380   2.565  1.0156 -0.1123  0.3288
    1BTD    C8025881   8.901   6.468   2.494 -0.4055 -0.0695  0.2796
    1BTD    C8125882   8.929   6.466   2.343  0.1835 -0.2275 -0.0386
    1BTD    C8225883   8.823   6.540   2.256  0.3010  0.2228  0.3039
    2TTP     S125884   8.968   7.228   2.910 -0.1212 -0.0670 -0.0167
    2TTP     S525885   8.659   7.032   2.684 -0.2913  0.0759  0.0906
    2TTP     C125886   8.620   7.210   2.693 -0.1106  0.1225 -0.0507
    2TTP     C225887   8.713   7.281   2.763 -0.0477  0.0809 -0.0921
    2TTP     C325888   8.818   7.197   2.812 -0.1397  0.0110 -0.0138
    2TTP     C425889   9.006   7.051   2.901 -0.3018 -0.1134  0.1245
    2TTP    C1725890   8.913   6.980   2.831 -0.3651 -0.0722  0.1660
    2TTP    C1825891   8.808   7.063   2.781 -0.2730 -0.0021  0.0877
    2TTP    C3225892   8.708   7.433   2.788 -0.0339  0.7153 -0.2486
    2TTP    C3325893   8.833   7.514   2.824  0.0140 -0.8244  0.1703
    2TTP    C3425894   8.778   7.654   2.859 -0.0349  0.0905  0.3987
    2TTP    C3525895   8.880   7.752   2.922  0.3264  0.3783  0.1077
    2TTP    C3625896   8.832   7.897   2.900 -0.2584  0.0876  0.5791
    2TTP    C3725897   8.723   7.956   2.994 -0.1541 -0.4352  0.0352
    2TTP    C3825898   8.703   8.104   2.994  0.0108 -0.1188  0.4764
    2TTP    C3925899   8.664   8.183   2.861 -0.3437 -0.4587 -0.4316
    2TTP    C4025900   8.671   8.335   2.869 -0.4596 -0.4562 -0.8914
    2TTP    C4125901   8.678   8.395   2.732 -0.7930  0.7080  0.0861
    2TTP    C4225902   8.689   8.546   2.719 -0.0861  0.3112 -0.8090
    3TTP     S125903   9.521   6.542   2.976 -0.0977  0.1769  0.1766
    3TTP     S525904   9.252   6.229   2.853  0.3889 -0.0978 -0.1997
    3TTP     C125905   9.416   6.157   2.880  0.4268  0.0704  0.0242
    3TTP     C225906   9.509   6.249   2.920  0.2793  0.1651  0.1535
    3TTP     C325907   9.454   6.380   2.930  0.1304  0.1084  0.0806
    3TTP     C425908   9.356   6.614   2.949 -0.1361  0.0087 -0.0473
    3TTP    C1725909   9.264   6.522   2.909  0.0121 -0.0859 -0.1767
    3TTP    C1825910   9.319   6.391   2.899  0.1612 -0.0292 -0.1036
    3TTP    C3225911   9.663   6.225   2.950  0.1612 -0.1379  0.5812
    3TTP    C3325912   9.765   6.333   2.991  0.3922 -0.3656  0.7087
    3TTP    C3425913   9.904   6.271   3.017 -0.6530  0.3414  0.3545
    3TTP    C3525914  10.010   6.376   3.049 -0.4978  0.0220 -0.3676
    3TTP    C3625915  10.159   6.335   3.061 -0.4080 -0.0823  0.4795
    3TTP    C3725916  10.197   6.199   3.119  0.2681  0.1014 -0.3115
    3TTP    C3825917  10.342   6.200   3.164 -0.5416 -0.2243 -0.0463
    3TTP    C3925918  10.411   6.066   3.171 -0.1019  0.1052  0.5358
    3TTP    C4025919  10.561   6.071   3.190 -0.0207 -0.0317 -0.4345
    3TTP    C4125920  10.624   5.934   3.178 -0.2528  0.4906 -0.5406
    3TTP    C4225921  10.773   5.913   3.203 -0.2225 -0.0492 -0.5223
    4BIM     F125922   7.890   7.001   2.366 -0.0795 -0.3536  0.1230
    4BIM     F225923   7.841   7.265   2.323 -0.1466 -0.3831  0.0191
    4BIM     O125924   8.380   7.024   2.596 -0.1040 -0.1365  0.1538
    4BIM     N525925   8.118   7.661   2.426 -0.2604 -0.2704 -0.1082
    4BIM     N625926   8.511   7.627   2.614 -0.2666 -0.0947 -0.0632
    4BIM    C1925927   8.506   7.285   2.637 -0.1773 -0.0873  0.0656
    4BIM    C2025928   8.385   7.269   2.581 -0.1681 -0.1407  0.0619
    4BIM    C2125929   8.327   7.131   2.563 -0.1299 -0.1630  0.1090
    4BIM    C2225930   8.195   7.150   2.499 -0.1299 -0.2223  0.0914
    4BIM    C2325931   8.104   7.051   2.463 -0.1009 -0.2602  0.1212
    4BIM    C2425932   7.985   7.093   2.404 -0.1072 -0.3139  0.0958
    4BIM    C2525933   7.960   7.229   2.382 -0.1417 -0.3290  0.0423
    4BIM    C2625934   8.051   7.328   2.418 -0.1707 -0.2913  0.0123
    4BIM    C2725935   8.171   7.288   2.478 -0.1650 -0.2366  0.0373
    4BIM    C2825936   8.287   7.366   2.527 -0.1898 -0.1872  0.0170
    4BIM    C2925937   8.301   7.503   2.523 -0.2260 -0.1850 -0.0336
    4BIM    C3025938   8.200   7.590   2.470 -0.2449 -0.2320 -0.0745
    4BIM    C3125939   8.416   7.570   2.573 -0.2480 -0.1353 -0.0496
    5BIM     F125940   9.061   5.435   2.677 -0.1013  0.0497  0.5434
    5BIM     F225941   9.305   5.317   2.700  0.0474  0.2016 -0.2229
    5BIM     O125942   9.182   5.948   2.802 -0.1147  0.0362  0.6104
    5BIM     N525943   9.743   5.514   2.821  0.2520  0.4106 -1.2771
    5BIM     N625944   9.788   5.938   2.915  0.2120  0.3697 -1.0703
    5BIM    C1925945   9.458   6.017   2.868  0.0231  0.1769 -0.0982
    5BIM    C2025946   9.418   5.893   2.836  0.0203  0.1742 -0.0849
    5BIM    C2125947   9.275   5.865   2.803 -0.0527  0.0999  0.2903
    5BIM    C2225948   9.266   5.721   2.773 -0.0350  0.1173  0.2019
    5BIM    C2325949   9.153   5.648   2.737 -0.0851  0.0666  0.4577
    5BIM    C2425950   9.169   5.513   2.713 -0.0556  0.0964  0.3067
    5BIM    C2525951   9.295   5.452   2.725  0.0210  0.1748 -0.0882
    5BIM    C2625952   9.408   5.524   2.760  0.0710  0.2258 -0.3452
    5BIM    C2725953   9.394   5.662   2.785  0.0424  0.1965 -0.1976
    5BIM    C2825954   9.493   5.765   2.824  0.0794  0.2346 -0.3896
    5BIM    C2925955   9.627   5.746   2.846  0.1547  0.3111 -0.7759
    5BIM    C3025956   9.690   5.618   2.832  0.2081  0.3656 -1.0501
    5BIM    C3125957   9.715   5.852   2.884  0.1857  0.3428 -0.9356
    1BTD     S225958   8.959   4.214   7.236 -0.2199 -0.2621  0.0801
    1BTD     N125959   8.883   4.366   7.175  0.0219 -0.2817 -0.2747
    1BTD     N225960   8.840   4.106   7.156 -0.4151 -0.2598  0.3647
    1BTD     N325961   8.461   4.159   6.883 -0.3755 -0.2899  0.3042
    1BTD     N425962   8.515   4.479   6.907  0.1631 -0.3170 -0.4834
    1BTD     C525963   8.690   4.421   7.035  0.0892 -0.2997 -0.3742
    1BTD     C625964   8.779   4.330   7.102 -0.0510 -0.2851 -0.1681
    1BTD     C725965   8.754   4.184   7.091 -0.2959 -0.2730  0.1898
    1BTD     C825966   8.643   4.137   7.014 -0.3879 -0.2757  0.3237
    1BTD    C1525967   8.559   4.230   6.949 -0.2441 -0.2903  0.1126
    1BTD    C1625968   8.582   4.371   6.960 -0.0082 -0.3021 -0.2323
    1BTD    C4325969   8.367   4.497   6.879 -0.6211  0.1604  0.8599
    1BTD    C4425970   8.274   4.543   6.991 -0.5617  0.2180 -0.7481
    1BTD    C4525971   8.273   4.441   7.109  0.0459 -0.1086  0.8423
    1BTD    C4625972   8.192   4.475   7.234  0.0622  0.8032 -0.2730
    1BTD    C4725973   8.133   4.580   6.943  0.2952 -0.2192 -0.3128
    1BTD    C4825974   8.116   4.706   6.852 -0.5043 -0.6742  0.1115
    1BTD    C4925975   7.975   4.715   6.803 -0.0411  0.0457  0.3203
    1BTD    C5025976   7.926   4.853   6.760 -0.8821 -0.1271 -0.2827
    1BTD    C7525977   8.383   4.212   6.763  0.6750  0.0365  0.1191
    1BTD    C7625978   8.246   4.160   6.723  0.5537 -0.0192  0.1382
    1BTD    C7725979   8.147   4.177   6.838 -0.2516  0.6534  0.4290
    1BTD    C7825980   8.005   4.115   6.824 -0.4659  0.6387  0.2683
    1BTD    C7925981   8.195   4.201   6.578 -0.3743 -0.1296  0.7550
    1BTD    C8025982   8.153   4.344   6.555 -0.2674 -0.3468  0.0730
    1BTD    C8125983   8.051   4.351   6.442  0.6846 -0.1993  0.5085
    1BTD    C8225984   8.001   4.484   6.383  0.3307 -0.0024 -0.0194
    2TTP     S125985   8.796   4.705   7.061  0.1692  0.2116  0.2927
    2TTP     S525986   8.483   4.834   6.796  0.3567  0.0814  0.0075
    2TTP     C125987   8.593   4.976   6.829  0.2860  0.1190  0.0822
    2TTP     C225988   8.696   4.944   6.913  0.2239  0.1614  0.1746
    2TTP     C325989   8.692   4.807   6.954  0.2303  0.1657  0.1899
    2TTP     C425990   8.686   4.564   7.027  0.2403  0.1740  0.2182
    2TTP    C1725991   8.583   4.595   6.943  0.3024  0.1315  0.1256
    2TTP    C1825992   8.587   4.732   6.903  0.2964  0.1273  0.1103
    2TTP    C3225993   8.814   5.031   6.961 -0.2279 -0.2944 -0.1696
    2TTP    C3325994   8.943   5.014   6.891  0.1056 -0.2990 -0.7130
    2TTP    C3425995   9.058   5.081   6.968  0.1284 -0.0289  0.2974
    2TTP    C3525996   9.065   5.232   6.959 -0.0708 -0.4655  0.2671
    2TTP    C3625997   9.172   5.309   7.023  0.2526 -0.2167 -0.2707
    2TTP    C3725998   9.312   5.278   6.982 -0.3580  0.4118  0.0267
    2TTP    C3825999   9.426   5.355   7.044 -0.0406  0.0940 -0.0580
    2TTP    C3926000   9.440   5.503   7.001 -0.6101 -0.0778 -0.0424
    2TTP    C4026001   9.539   5.594   7.076  0.5227 -0.4049 -0.0434
    2TTP    C4126002   9.484   5.640   7.209 -0.2952 -0.1107 -0.1250
    2TTP    C4226003   9.570   5.739   7.283  0.7374 -0.2245 -0.3738
    3TTP     S126004   8.624   3.830   7.020  0.0704  0.2227 -0.0162
    3TTP     S526005   8.296   3.848   6.742  0.0460  0.5228  0.0309
    3TTP     C126006   8.328   3.674   6.783  0.1065  0.4725 -0.2278
    3TTP     C226007   8.431   3.658   6.871  0.1178  0.3768 -0.2574
    3TTP     C326008   8.489   3.783   6.910  0.0789  0.3398 -0.0771
    3TTP     C426009   8.592   4.005   6.979  0.0100  0.2730  0.2425
    3TTP    C1726010   8.489   4.020   6.891 -0.0013  0.3688  0.2721
    3TTP    C1826011   8.431   3.895   6.852  0.0379  0.4057  0.0919
    3TTP    C3226012   8.484   3.527   6.926 -0.4921  0.2478 -0.0311
    3TTP    C3326013   8.558   3.513   7.055 -0.0805 -0.1429  0.8097
    3TTP    C3426014   8.599   3.373   7.072 -0.6984  0.3271  0.3378
    3TTP    C3526015   8.699   3.358   7.189 -0.0873  0.0828  0.1068
    3TTP    C3626016   8.749   3.220   7.227 -0.6793 -0.1990 -0.6616
    3TTP    C3726017   8.840   3.209   7.352  0.2010 -0.2792  0.4040
    3TTP    C3826018   8.974   3.268   7.327 -0.4919  0.8696 -0.1499
    3TTP    C3926019   9.064   3.266   7.445  0.1552  0.1975 -0.8858
    3TTP    C4026020   9.209   3.286   7.435  0.2871  0.0506 -0.5878
    3TTP    C4126021   9.276   3.305   7.574 -0.5177  0.0282 -0.2830
    3TTP    C4226022   9.429   3.280   7.562  0.1368  0.4495 -0.1024
    4BIM     F126023   7.939   5.401   6.568 -0.0614  0.0293  0.2253
    4BIM     F226024   8.104   5.612   6.517  0.0424 -0.1302 -0.1040
    4BIM     O126025   8.291   5.039   6.763 -0.1814  0.0317  0.4460
    4BIM     N526026   8.592   5.656   6.584  0.1063 -0.3580 -0.4199
    4BIM     N626027   8.834   5.331   6.747 -0.0081 -0.3241 -0.1812
    4BIM    C1926028   8.573   5.112   6.785 -0.1247 -0.1201  0.2097
    4BIM    C2026029   8.478   5.195   6.737 -0.0987 -0.1144  0.1671
    4BIM    C2126030   8.335   5.150   6.729 -0.1307 -0.0341  0.2955
    4BIM    C2226031   8.259   5.264   6.674 -0.0899 -0.0496  0.2078
    4BIM    C2326032   8.122   5.270   6.648 -0.0999  0.0063  0.2749
    4BIM    C2426033   8.073   5.388   6.596 -0.0548 -0.0225  0.1671
    4BIM    C2526034   8.158   5.497   6.570 -0.0011 -0.1048 -0.0023
    4BIM    C2626035   8.295   5.491   6.595  0.0088 -0.1609 -0.0702
    4BIM    C2726036   8.346   5.372   6.648 -0.0362 -0.1329  0.0370
    4BIM    C2826037   8.485   5.334   6.686 -0.0396 -0.1758  0.0051
    4BIM    C2926038   8.597   5.413   6.676  0.0043 -0.2574 -0.1456
    4BIM    C3026039   8.594   5.546   6.625  0.0598 -0.3123 -0.2959
    4BIM    C3126040   8.727   5.367   6.715 -0.0031 -0.2936 -0.1644
    5BIM     F126041   7.987   3.581   6.048  0.1462 -0.1145 -0.0006
    5BIM     F226042   7.892   3.339   6.127  0.2594 -0.1770 -0.0553
    5BIM     O126043   8.266   3.730   6.488  0.0486 -0.0687  0.0461
    5BIM     N526044   7.954   3.097   6.554  0.3519 -0.2342 -0.1012
    5BIM     N626045   8.191   3.262   6.882  0.2527 -0.1858 -0.0535
    5BIM    C1926046   8.274   3.551   6.719  0.1217 -0.1122  0.0100
    5BIM    C2026047   8.208   3.523   6.606  0.1421 -0.1213  0.0006
    5BIM    C2126048   8.208   3.620   6.491  0.1016 -0.0975  0.0204
    5BIM    C2226049   8.127   3.559   6.384  0.1373 -0.1152  0.0032
    5BIM    C2326050   8.099   3.612   6.258  0.1192 -0.1033  0.0122
    5BIM    C2426051   8.019   3.535   6.174  0.1611 -0.1247 -0.0079
    5BIM    C2526052   7.970   3.411   6.215  0.2194 -0.1568 -0.0362
    5BIM    C2626053   7.998   3.358   6.340  0.2377 -0.1689 -0.0454
    5BIM    C2726054   8.078   3.433   6.427  0.1960 -0.1476 -0.0254
    5BIM    C2826055   8.126   3.406   6.565  0.2007 -0.1526 -0.0280
    5BIM    C2926056   8.099   3.294   6.640  0.2508 -0.1809 -0.0523
    5BIM    C3026057   8.019   3.186   6.592  0.3064 -0.2101 -0.0790
    5BIM    C3126058   8.150   3.277   6.773  0.2515 -0.1835 -0.0530
    1BTD     S226059   8.753   3.516   3.694  0.2034 -0.1173  0.4251
    1BTD     N126060   8.861   3.583   3.822 -0.2215  0.0720  0.6906
    1BTD     N226061   8.702   3.677   3.632  0.4487 -0.2088 -0.0212
    1BTD     N326062   8.794   4.126   3.736  0.1814 -0.0538 -0.4517
    1BTD     N426063   8.990   4.009   3.969 -0.6447  0.2923  0.4254
    1BTD     C526064   8.926   3.807   3.896 -0.4327  0.1829  0.5415
    1BTD     C626065   8.854   3.715   3.812 -0.1616  0.0579  0.4455
    1BTD     C726066   8.765   3.767   3.706  0.2134 -0.0992  0.0470
    1BTD     C826067   8.753   3.910   3.689  0.2992 -0.1236 -0.2354
    1BTD    C1526068   8.825   3.996   3.774  0.0255  0.0021 -0.1283
    1BTD    C1626069   8.910   3.945   3.876 -0.3361  0.1537  0.2555
    1BTD    C4326070   8.953   4.141   4.031  0.3896 -0.7398  0.3907
    1BTD    C4426071   9.031   4.247   4.115  0.3016 -0.2457 -0.6427
    1BTD    C4526072   9.147   4.308   4.035 -0.6930 -0.2685 -0.2004
    1BTD    C4626073   9.237   4.406   4.106  0.5531  0.2059  0.1258
    1BTD    C4726074   8.941   4.360   4.185  0.0209  0.4876  0.0830
    1BTD    C4826075   8.822   4.308   4.266 -0.2418 -0.0742 -0.6010
    1BTD    C4926076   8.744   4.414   4.340  0.5081 -0.6951  0.2111
    1BTD    C5026077   8.662   4.349   4.446  0.8506  0.2593  0.1407
    1BTD    C7526078   8.892   4.234   3.717  0.0991 -0.1542 -0.0864
    1BTD    C7626079   8.843   4.379   3.727  0.6317  0.2099  0.0995
    1BTD    C7726080   8.938   4.491   3.683  0.2535  0.1126 -0.6874
    1BTD    C7826081   8.985   4.488   3.537  0.0300 -0.1974  0.0312
    1BTD    C7926082   8.767   4.409   3.860  0.3293  0.3521  0.2593
    1BTD    C8026083   8.685   4.533   3.868  0.1620  0.0627 -0.3541
    1BTD    C8126084   8.596   4.545   3.997 -0.0806 -0.2741 -0.2234
    1BTD    C8226085   8.525   4.678   4.014  0.4878  0.5793  0.2016
    2TTP     S126086   9.129   3.659   4.071 -0.1274 -0.0611  0.2396
    2TTP     S526087   9.275   4.034   4.223  0.5031 -0.1752 -0.0788
    2TTP     C126088   9.375   3.899   4.294  0.3028 -0.2802  0.0045
    2TTP     C226089   9.335   3.776   4.251  0.0963 -0.2511  0.1079
    2TTP     C326090   9.225   3.783   4.161  0.0892 -0.1450  0.1248
    2TTP     C426091   9.029   3.794   3.999  0.0730  0.0438  0.1562
    2TTP    C1726092   9.068   3.917   4.042  0.2794  0.0148  0.0529
    2TTP    C1826093   9.179   3.910   4.133  0.2866 -0.0914  0.0360
    2TTP    C3226094   9.388   3.643   4.304 -0.1737 -0.4328 -0.2401
    2TTP    C3326095   9.484   3.578   4.203  0.4771  0.5978 -0.8828
    2TTP    C3426096   9.503   3.426   4.228  0.2944  0.0039 -0.0978
    2TTP    C3526097   9.584   3.379   4.118  0.3607  0.1169 -0.2701
    2TTP    C3626098   9.621   3.232   4.094  0.1682  0.1151  0.3632
    2TTP    C3726099   9.684   3.160   4.215 -1.1174 -0.1957 -0.2624
    2TTP    C3826100   9.720   3.011   4.185 -0.4732 -0.1309 -1.2474
    2TTP    C3926101   9.791   2.928   4.296  0.1766 -0.0565 -0.4919
    2TTP    C4026102   9.941   2.971   4.301 -0.2508  0.2581  0.2647
    2TTP    C4126103  10.040   2.899   4.398  0.2082 -0.3810 -0.1820
    2TTP    C4226104  10.146   2.995   4.445  0.1675 -0.2458  1.0349
    3TTP     S126105   8.554   3.960   3.474  0.2551 -0.0620  0.1502
    3TTP     S526106   8.630   4.382   3.504 -0.0153 -0.0148  0.1734
    3TTP     C126107   8.518   4.353   3.363  0.1229 -0.0938  0.0794
    3TTP     C226108   8.488   4.221   3.346  0.2146 -0.1130  0.0666
    3TTP     C326109   8.553   4.138   3.443  0.1788 -0.0659  0.1307
    3TTP     C426110   8.666   3.988   3.614  0.1168  0.0171  0.2443
    3TTP    C1726111   8.696   4.121   3.632  0.0252  0.0364  0.2570
    3TTP    C1826112   8.632   4.204   3.535  0.0608 -0.0107  0.1929
    3TTP    C3226113   8.394   4.145   3.250  0.6414 -0.6014  0.5722
    3TTP    C3326114   8.459   4.140   3.116 -0.7780  1.1797  0.3040
    3TTP    C3426115   8.381   4.065   2.999  0.7579  0.1962  0.9278
    3TTP    C3526116   8.328   3.929   3.017  0.1119  0.4437  0.0346
    3TTP    C3626117   8.242   3.892   2.900 -0.0245  0.1685 -0.7840
    3TTP    C3726118   8.228   3.745   2.861  0.0901  0.1754  0.1871
    3TTP    C3826119   8.118   3.711   2.759 -0.6423 -0.7914 -0.0011
    3TTP    C3926120   7.974   3.745   2.800 -0.2470 -0.6244 -0.1870
    3TTP    C4026121   7.872   3.758   2.689  0.2837  0.1683 -0.0688
    3TTP    C4126122   7.844   3.630   2.619  0.0176  0.3039 -0.5924
    3TTP    C4226123   7.750   3.646   2.505 -0.3326 -0.0525  0.3010
    4BIM     F126124   9.752   4.539   4.651 -0.1535  0.0409 -0.2611
    4BIM     F226125   9.932   4.366   4.759 -0.2708  0.1116  0.0497
    4BIM     O126126   9.434   4.199   4.375  0.1597 -0.1389 -0.4008
    4BIM     N526127   9.965   3.874   4.716 -0.2153  0.0852  0.3970
    4BIM     N626128   9.680   3.643   4.479  0.0529 -0.0695  0.2252
    4BIM    C1926129   9.494   3.912   4.379  0.1593 -0.1351 -0.1534
    4BIM    C2026130   9.566   4.005   4.445  0.0849 -0.0926 -0.1303
    4BIM    C2126131   9.530   4.150   4.438  0.0908 -0.0976 -0.2635
    4BIM    C2226132   9.629   4.222   4.519 -0.0014 -0.0447 -0.1984
    4BIM    C2326133   9.636   4.359   4.543 -0.0298 -0.0294 -0.2770
    4BIM    C2426134   9.739   4.405   4.624 -0.1209  0.0234 -0.1906
    4BIM    C2526135   9.832   4.315   4.679 -0.1809  0.0595 -0.0305
    4BIM    C2626136   9.825   4.179   4.656 -0.1531  0.0448  0.0489
    4BIM    C2726137   9.721   4.131   4.574 -0.0613 -0.0083 -0.0368
    4BIM    C2826138   9.687   3.993   4.531 -0.0103 -0.0364  0.0113
    4BIM    C2926139   9.754   3.878   4.564 -0.0455 -0.0146  0.1589
    4BIM    C3026140   9.869   3.876   4.648 -0.1385  0.0401  0.2894
    4BIM    C3126141   9.713   3.749   4.517  0.0091 -0.0449  0.1945
    5BIM     F126142   8.463   5.172   3.411 -0.4237  0.0931  0.3185
    5BIM     F226143   8.330   5.172   3.173  0.3226  0.1664 -0.1065
    5BIM     O126144   8.545   4.641   3.482 -0.6795  0.0687  0.4332
    5BIM     N526145   8.197   4.793   2.883  1.2133  0.2545 -0.6356
    5BIM     N626146   8.288   4.379   2.987  0.8631  0.2207 -0.4603
    5BIM    C1926147   8.447   4.453   3.281 -0.0573  0.1300  0.0680
    5BIM    C2026148   8.432   4.586   3.272 -0.0222  0.1334  0.0558
    5BIM    C2126149   8.485   4.677   3.380 -0.3550  0.1005  0.2506
    5BIM    C2226150   8.451   4.814   3.339 -0.2196  0.1136  0.1814
    5BIM    C2326151   8.480   4.932   3.407 -0.4263  0.0933  0.3060
    5BIM    C2426152   8.438   5.051   3.349 -0.2363  0.1118  0.2048
    5BIM    C2526153   8.369   5.051   3.226  0.1479  0.1495 -0.0142
    5BIM    C2626154   8.340   4.933   3.158  0.3560  0.1701 -0.1394
    5BIM    C2726155   8.382   4.812   3.215  0.1690  0.1520 -0.0398
    5BIM    C2826156   8.367   4.672   3.169  0.3054  0.1655 -0.1258
    5BIM    C2926157   8.306   4.630   3.054  0.6666  0.2009 -0.3338
    5BIM    C3026158   8.246   4.720   2.960  0.9658  0.2303 -0.4990
    5BIM    C3126159   8.297   4.492   3.018  0.7727  0.2116 -0.4021
    1BTD     S226160   4.712   6.974   4.287  0.1066  0.0402 -0.1829
    1BTD     N126161   4.820   7.111   4.331  0.2103 -0.0277 -0.2254
    1BTD     N226162   4.582   7.079   4.220  0.0954  0.1277 -0.0246
    1BTD     N326163   4.512   7.540   4.163  0.2594  0.1835  0.2210
    1BTD     N426164   4.805   7.580   4.300  0.4011 -0.0080 -0.0262
    1BTD     C526165   4.809   7.355   4.313  0.3083 -0.0149 -0.1184
    1BTD     C626166   4.757   7.222   4.295  0.2302  0.0161 -0.1246
    1BTD     C726167   4.624   7.204   4.233  0.1657  0.1031 -0.0123
    1BTD     C826168   4.549   7.320   4.192  0.1827  0.1545  0.1006
    1BTD    C1526169   4.604   7.448   4.211  0.2602  0.1214  0.1024
    1BTD    C1626170   4.732   7.466   4.271  0.3220  0.0376 -0.0057
    1BTD    C4326171   4.810   7.702   4.213 -0.2015  0.0503 -0.3334
    1BTD    C4426172   4.872   7.841   4.251  0.3343 -0.6632  0.9577
    1BTD    C4526173   4.907   7.917   4.120 -0.0704  0.4360 -0.0497
    1BTD    C4626174   5.003   7.837   4.021 -0.1353  0.0595  0.4052
    1BTD    C4726175   4.778   7.917   4.347 -1.1007 -0.2982 -0.3683
    1BTD    C4826176   4.839   8.033   4.411  0.4983  0.4339 -0.7696
    1BTD    C4926177   4.732   8.128   4.463  0.1385  0.3367 -0.1275
    1BTD    C5026178   4.786   8.260   4.519 -0.1340  0.5316  0.3440
    1BTD    C7526179   4.488   7.670   4.221 -0.1007  0.0098 -0.5417
    1BTD    C7626180   4.422   7.793   4.160  0.2826  0.0010  0.1031
    1BTD    C7726181   4.494   7.846   4.036 -0.8269 -0.8326  0.8705
    1BTD    C7826182   4.431   7.972   3.971 -0.1352 -0.0685  0.8579
    1BTD    C7926183   4.402   7.903   4.271  0.4016  0.3285  0.1776
    1BTD    C8026184   4.328   7.874   4.400 -0.5795  0.1582  0.6129
    1BTD    C8126185   4.183   7.834   4.383  0.4436  0.5291 -0.1394
    1BTD    C8226186   4.121   7.796   4.518  0.5384 -0.1639 -0.1443
    2TTP     S126187   5.074   7.335   4.445  0.0945 -0.0881 -0.2999
    2TTP     S526188   5.083   7.763   4.488  0.2713 -0.1005 -0.2073
    2TTP     C126189   5.226   7.693   4.575  0.1880 -0.1863 -0.1380
    2TTP     C226190   5.232   7.557   4.567  0.1284 -0.1874 -0.1625
    2TTP     C326191   5.123   7.503   4.492  0.1465 -0.1208 -0.2369
    2TTP     C426192   4.931   7.405   4.358  0.1779 -0.0023 -0.3692
    2TTP    C1726193   4.925   7.541   4.366  0.2374 -0.0012 -0.3446
    2TTP    C1826194   5.033   7.595   4.441  0.2193 -0.0677 -0.2702
    2TTP    C3226195   5.322   7.463   4.639  0.2010  0.3430 -0.1676
    2TTP    C3326196   5.404   7.369   4.554  0.0400  0.2317  0.1553
    2TTP    C3426197   5.426   7.232   4.608 -0.2080 -0.2244  0.1808
    2TTP    C3526198   5.475   7.131   4.507 -0.5465  0.1720  0.5058
    2TTP    C3626199   5.490   6.995   4.565  0.2123  0.4926 -0.2804
    2TTP    C3726200   5.377   6.936   4.649  0.7267 -0.0684  0.2586
    2TTP    C3826201   5.406   6.810   4.730 -0.0915 -0.0208  0.3940
    2TTP    C3926202   5.275   6.772   4.791 -0.1710  0.4243  0.3840
    2TTP    C4026203   5.282   6.639   4.862 -0.1350  0.4154 -0.1162
    2TTP    C4126204   5.166   6.587   4.945  0.5579 -0.1202 -0.8836
    2TTP    C4226205   5.205   6.468   5.030 -0.0917  0.0066 -0.2038
    3TTP     S126206   4.286   7.232   4.089  0.0219 -0.0400 -0.1037
    3TTP     S526207   4.190   7.639   3.987  0.1769  0.0360  0.0521
    3TTP     C126208   4.050   7.533   3.940  0.1480  0.1035 -0.0150
    3TTP     C226209   4.071   7.401   3.969  0.0985  0.0840 -0.0670
    3TTP     C326210   4.199   7.379   4.029  0.0815  0.0151 -0.0558
    3TTP     C426211   4.426   7.338   4.136  0.0508 -0.1075 -0.0366
    3TTP    C1726212   4.405   7.470   4.107  0.1004 -0.0879  0.0152
    3TTP    C1826213   4.277   7.492   4.047  0.1173 -0.0190  0.0043
    3TTP    C3226214   3.970   7.292   3.945  0.1463 -0.3270  0.6875
    3TTP    C3326215   3.973   7.156   4.007 -0.3766  0.5191  0.2841
    3TTP    C3426216   3.859   7.061   3.978 -0.3811  0.0093  0.1094
    3TTP    C3526217   3.735   7.127   4.022  1.0228 -0.1931 -0.9133
    3TTP    C3626218   3.606   7.050   3.980  0.1451  0.1555 -0.3650
    3TTP    C3726219   3.470   7.114   4.016 -0.2190  0.4215  0.2170
    3TTP    C3826220   3.353   7.018   4.005  0.2506 -0.2192 -0.1941
    3TTP    C3926221   3.209   7.060   4.061  0.1570  0.3132  0.2369
    3TTP    C4026222   3.116   6.951   4.027 -0.2243  0.3987 -0.2331
    3TTP    C4126223   2.992   6.975   4.100  0.8547 -0.4900 -0.3765
    3TTP    C4226224   2.892   6.864   4.082  0.3551 -0.0344  0.1058
    4BIM     F126225   5.411   8.484   4.705  0.1841 -0.0942  0.1895
    4BIM     F226226   5.617   8.403   4.863  0.0917 -0.1965  0.2587
    4BIM     O126227   5.207   8.007   4.550  0.2321  0.0050 -0.1825
    4BIM     N526228   5.768   7.946   4.980 -0.0073 -0.2719  0.0927
    4BIM     N626229   5.567   7.590   4.827  0.0488 -0.1736 -0.2122
    4BIM    C1926230   5.331   7.760   4.646  0.1607 -0.0569 -0.2488
    4BIM    C2026231   5.375   7.883   4.679  0.1523 -0.0778 -0.1578
    4BIM    C2126232   5.305   8.005   4.625  0.1909 -0.0436 -0.1292
    4BIM    C2226233   5.377   8.122   4.680  0.1698 -0.0787 -0.0262
    4BIM    C2326234   5.350   8.256   4.659  0.1917 -0.0651  0.0321
    4BIM    C2426235   5.432   8.349   4.721  0.1646 -0.1052  0.1278
    4BIM    C2526236   5.538   8.307   4.803  0.1170 -0.1579  0.1631
    4BIM    C2626237   5.566   8.173   4.825  0.0947 -0.1719  0.1053
    4BIM    C2726238   5.484   8.078   4.762  0.1217 -0.1316  0.0083
    4BIM    C2826239   5.487   7.929   4.764  0.1090 -0.1332 -0.0712
    4BIM    C2926240   5.576   7.850   4.833  0.0654 -0.1773 -0.0654
    4BIM    C3026241   5.681   7.903   4.913  0.0256 -0.2290  0.0216
    4BIM    C3126242   5.571   7.707   4.829  0.0566 -0.1749 -0.1462
    5BIM     F126243   3.906   8.180   3.457  0.1588  0.1898  0.2058
    5BIM     F226244   3.639   8.126   3.477  0.1393  0.2415  0.0856
    5BIM     O126245   4.114   7.775   3.751 -0.0374  0.0021  0.0874
    5BIM     N526246   3.406   7.760   3.714 -0.0289  0.1818 -0.1714
    5BIM     N626247   3.622   7.455   3.939 -0.1783  0.0247 -0.2397
    5BIM    C1926248   3.934   7.580   3.873 -0.1260 -0.0152 -0.0694
    5BIM    C2026249   3.892   7.684   3.799 -0.0758  0.0302 -0.0350
    5BIM    C2126250   3.990   7.780   3.739 -0.0324  0.0362  0.0458
    5BIM    C2226251   3.912   7.880   3.665  0.0167  0.0895  0.0654
    5BIM    C2326252   3.959   7.989   3.592  0.0674  0.1132  0.1342
    5BIM    C2426253   3.865   8.070   3.530  0.1078  0.1641  0.1394
    5BIM    C2526254   3.728   8.042   3.540  0.0977  0.1907  0.0775
    5BIM    C2626255   3.680   7.934   3.612  0.0472  0.1675  0.0085
    5BIM    C2726256   3.774   7.850   3.676  0.0057  0.1156  0.0023
    5BIM    C2826257   3.756   7.729   3.759 -0.0516  0.0802 -0.0619
    5BIM    C2926258   3.637   7.669   3.792 -0.0771  0.0916 -0.1326
    5BIM    C3026259   3.510   7.719   3.749 -0.0504  0.1411 -0.1537
    5BIM    C3126260   3.629   7.551   3.873 -0.1326  0.0548 -0.1911
    1BTD     S226261   8.923   7.530   5.496  0.2083 -0.0915  0.1895
    1BTD     N126262   8.795   7.417   5.553  0.1674  0.0755  0.4270
    1BTD     N226263   8.814   7.618   5.383  0.2365 -0.2775  0.0161
    1BTD     N326264   8.362   7.595   5.257  0.2191 -0.3552  0.0916
    1BTD     N426265   8.339   7.347   5.467  0.1340  0.0799  0.5978
    1BTD     C526266   8.557   7.384   5.506  0.1512  0.0724  0.5101
    1BTD     C626267   8.684   7.449   5.489  0.1762 -0.0116  0.3678
    1BTD     C726268   8.694   7.562   5.393  0.2148 -0.2092  0.1378
    1BTD     C826269   8.578   7.603   5.319  0.2263 -0.3128  0.0616
    1BTD    C1526270   8.456   7.535   5.339  0.2010 -0.2247  0.2067
    1BTD    C1626271   8.446   7.427   5.431  0.1633 -0.0346  0.4284
    1BTD    C4326272   8.197   7.387   5.460  0.3082 -0.8102 -0.2420
    1BTD    C4426273   8.078   7.321   5.537  0.0512 -0.5595  0.1338
    1BTD    C4526274   8.098   7.347   5.689  0.5920  0.0125  0.9184
    1BTD    C4626275   8.032   7.257   5.797 -0.0201 -0.3437  0.3780
    1BTD    C4726276   7.936   7.350   5.483  0.0286 -0.2962  0.1955
    1BTD    C4826277   7.907   7.307   5.339 -0.1101 -0.1742  0.5477
    1BTD    C4926278   7.957   7.163   5.308 -0.5489 -0.0078  0.0391
    1BTD    C5026279   7.932   7.132   5.163  0.6840  0.0581 -0.0390
    1BTD    C7526280   8.235   7.543   5.196  0.4174  0.1937  0.0155
    1BTD    C7626281   8.251   7.475   5.054 -0.4555  0.4046 -0.2220
    1BTD    C7726282   8.350   7.357   5.041 -1.1407  0.4783  0.2213
    1BTD    C7826283   8.329   7.238   5.131 -0.3485 -0.1139 -0.3837
    1BTD    C7926284   8.117   7.449   4.980  0.4965 -0.9365  0.7698
    1BTD    C8026285   8.008   7.563   4.969 -0.0639 -0.2646 -0.3002
    1BTD    C8126286   7.888   7.517   4.886 -0.6011  0.0593 -0.1283
    1BTD    C8226287   7.777   7.617   4.875 -0.1013 -0.0688  0.5276
    2TTP     S126288   8.611   7.123   5.639 -0.0164  0.0044 -0.2812
    2TTP     S526289   8.226   6.989   5.500 -0.1256 -0.0101  0.0340
    2TTP     C126290   8.321   6.845   5.558 -0.0816 -0.0038 -0.0225
    2TTP     C226291   8.445   6.878   5.604 -0.0451  0.0012 -0.1231
    2TTP     C326292   8.470   7.018   5.596 -0.0508 -0.0001 -0.1594
    2TTP     C426293   8.516   7.268   5.581 -0.0608 -0.0019 -0.2248
    2TTP    C1726294   8.392   7.235   5.535 -0.0969 -0.0070 -0.1242
    2TTP    C1826295   8.367   7.094   5.543 -0.0911 -0.0058 -0.0880
    2TTP    C3226296   8.554   6.793   5.669 -0.0083  0.5832  0.0925
    2TTP    C3326297   8.650   6.720   5.572 -0.4458  0.3427 -0.2847
    2TTP    C3426298   8.796   6.706   5.625  0.0100 -0.6114  0.2755
    2TTP    C3526299   8.822   6.671   5.771  0.0173  0.4884  0.0054
    2TTP    C3626300   8.772   6.531   5.817 -0.6053  0.0563 -0.0269
    2TTP    C3726301   8.783   6.510   5.968  0.0645  0.0525  0.5083
    2TTP    C3826302   8.753   6.372   6.025  0.0135  0.1226 -0.0698
    2TTP    C3926303   8.600   6.347   6.027  0.2771 -0.3849  0.1234
    2TTP    C4026304   8.553   6.207   6.042 -0.3490  0.2355  0.6347
    2TTP    C4126305   8.411   6.161   6.014  0.3622 -0.7133  0.4370
    2TTP    C4226306   8.397   6.012   6.037 -0.5789  0.6128 -0.0678
    3TTP     S126307   8.647   7.843   5.149 -0.0214  0.1851 -0.1346
    3TTP     S526308   8.237   7.868   5.020  0.0277 -0.2626 -0.3828
    3TTP     C126309   8.333   7.996   4.934 -0.0709 -0.1188 -0.2799
    3TTP     C226310   8.465   7.996   4.969 -0.0920  0.0281 -0.1971
    3TTP     C326311   8.495   7.895   5.065 -0.0308  0.0321 -0.2120
    3TTP     C426312   8.551   7.715   5.235  0.0775  0.0414 -0.2373
    3TTP    C1726313   8.419   7.715   5.201  0.0986 -0.1055 -0.3203
    3TTP    C1826314   8.388   7.816   5.105  0.0372 -0.1094 -0.3054
    3TTP    C3226315   8.570   8.094   4.920  0.5329  0.0209 -0.2947
    3TTP    C3326316   8.638   8.050   4.789 -0.1314  0.4395  0.3550
    3TTP    C3426317   8.762   8.130   4.744 -0.3900 -1.1334 -0.1968
    3TTP    C3526318   8.759   8.283   4.738 -0.3488 -0.0550 -0.2408
    3TTP    C3626319   8.877   8.342   4.654  0.5932 -0.7268  0.0232
    3TTP    C3726320   8.892   8.491   4.658 -0.2414 -0.7472 -0.5187
    3TTP    C3826321   8.926   8.569   4.793 -0.1563  0.6081  0.7190
    3TTP    C3926322   9.063   8.543   4.868  0.4100 -0.0371  0.0616
    3TTP    C4026323   9.197   8.555   4.798  0.3820 -0.0706 -0.2715
    3TTP    C4126324   9.248   8.673   4.720  0.0721 -0.8765  0.4172
    3TTP    C4226325   9.226   8.814   4.782 -0.7587  0.1408  0.4649
    4BIM     F126326   7.669   6.428   5.270  0.0656  0.1905 -0.1168
    4BIM     F226327   7.759   6.208   5.403 -0.0989  0.2296  0.0615
    4BIM     O126328   8.056   6.787   5.389  0.1924  0.0753 -0.1811
    4BIM     N526329   8.166   6.148   5.679 -0.2451  0.2033  0.2718
    4BIM     N626330   8.450   6.473   5.745 -0.1130  0.1055  0.1857
    4BIM    C1926331   8.280   6.704   5.558  0.0802  0.0714 -0.0336
    4BIM    C2026332   8.179   6.623   5.523  0.0544  0.0989 -0.0243
    4BIM    C2126333   8.068   6.672   5.436  0.1161  0.0989 -0.1032
    4BIM    C2226334   7.975   6.559   5.417  0.0679  0.1324 -0.0702
    4BIM    C2326335   7.857   6.556   5.344  0.0979  0.1446 -0.1189
    4BIM    C2426336   7.786   6.437   5.341  0.0404  0.1771 -0.0727
    4BIM    C2526337   7.833   6.324   5.409 -0.0445  0.1972  0.0190
    4BIM    C2626338   7.951   6.326   5.483 -0.0747  0.1855  0.0681
    4BIM    C2726339   8.024   6.446   5.487 -0.0174  0.1525  0.0225
    4BIM    C2826340   8.151   6.480   5.555 -0.0288  0.1326  0.0542
    4BIM    C2926341   8.229   6.397   5.632 -0.1030  0.1434  0.1403
    4BIM    C3026342   8.194   6.260   5.657 -0.1810  0.1762  0.2122
    4BIM    C3126343   8.350   6.439   5.694 -0.1080  0.1224  0.1647
    5BIM     F126344   7.661   8.057   4.459 -0.2278  0.0637  0.0696
    5BIM     F226345   7.739   8.309   4.392 -0.1528 -0.0043 -0.1019
    5BIM     O126346   8.062   7.912   4.792 -0.2182  0.1342  0.0887
    5BIM     N526347   8.136   8.568   4.532 -0.0389 -0.0520 -0.3345
    5BIM     N626348   8.435   8.403   4.806 -0.0467  0.0167 -0.2850
    5BIM    C1926349   8.279   8.101   4.846 -0.1436  0.0943 -0.0682
    5BIM    C2026350   8.175   8.127   4.765 -0.1490  0.0792 -0.0664
    5BIM    C2126351   8.067   8.025   4.742 -0.1881  0.1016  0.0170
    5BIM    C2226352   7.970   8.086   4.650 -0.1837  0.0768 -0.0041
    5BIM    C2326353   7.854   8.029   4.599 -0.2121  0.0856  0.0523
    5BIM    C2426354   7.778   8.107   4.513 -0.2010  0.0576  0.0174
    5BIM    C2526355   7.818   8.237   4.478 -0.1625  0.0222 -0.0708
    5BIM    C2626356   7.934   8.294   4.528 -0.1341  0.0138 -0.1273
    5BIM    C2726357   8.013   8.217   4.616 -0.1445  0.0417 -0.0933
    5BIM    C2826358   8.140   8.248   4.685 -0.1216  0.0417 -0.1352
    5BIM    C2926359   8.212   8.365   4.677 -0.0827  0.0124 -0.2211
    5BIM    C3026360   8.170   8.476   4.598 -0.0587 -0.0229 -0.2832
    5BIM    C3126361   8.334   8.385   4.748 -0.0632  0.0150 -0.2558
    1BTD     S226362   3.849   9.341   7.295 -0.1282  0.2075 -0.1719
    1BTD     N126363   3.826   9.163   7.298 -0.0585  0.2003 -0.0685
    1BTD     N226364   3.675   9.378   7.274 -0.1374  0.1254 -0.2363
    1BTD     N326365   3.277   9.131   7.234 -0.0309 -0.0553 -0.1810
    1BTD     N426366   3.464   8.866   7.264  0.0664  0.0367  0.0257
    1BTD     C526367   3.635   9.011   7.280  0.0055  0.1137 -0.0218
    1BTD     C626368   3.696   9.141   7.283 -0.0465  0.1400 -0.0864
    1BTD     C726369   3.611   9.262   7.270 -0.0907  0.0980 -0.1804
    1BTD     C826370   3.469   9.246   7.253 -0.0806  0.0322 -0.2048
    1BTD    C1526371   3.414   9.117   7.250 -0.0291  0.0084 -0.1394
    1BTD    C1626372   3.496   9.001   7.264  0.0134  0.0490 -0.0488
    1BTD    C4326373   3.337   8.814   7.317  0.0064  0.2913 -0.4504
    1BTD    C4426374   3.280   8.675   7.294  0.5924 -0.2149  0.2950
    1BTD    C4526375   3.160   8.637   7.378  0.2140  0.0113 -0.1572
    1BTD    C4626376   3.155   8.655   7.529 -0.3796  0.3660 -0.3870
    1BTD    C4726377   3.247   8.676   7.145 -0.4116  0.6822  0.0467
    1BTD    C4826378   3.199   8.538   7.090  0.1641 -0.3201 -0.0915
    1BTD    C4926379   3.177   8.550   6.943  1.0417  0.5911  0.3258
    1BTD    C5026380   3.098   8.426   6.896  0.3495  0.1862  0.0043
    1BTD    C7526381   3.191   9.039   7.155 -0.1781 -0.2507  0.2326
    1BTD    C7626382   3.037   9.032   7.170  0.0120 -0.3961  0.7701
    1BTD    C7726383   2.961   8.960   7.046 -0.0577 -0.1567 -0.5450
    1BTD    C7826384   2.981   9.016   6.906 -0.4385 -0.3530  0.4805
    1BTD    C7926385   2.985   8.979   7.302 -0.5940  0.0088 -0.0854
    1BTD    C8026386   2.841   8.968   7.334  0.0685 -0.7907  0.1981
    1BTD    C8126387   2.814   8.889   7.463 -0.1443  0.5653  0.1450
    1BTD    C8226388   2.673   8.855   7.494 -0.3262  0.1356  0.1248
    2TTP     S126389   3.852   8.807   7.250  0.2459 -0.1431  0.0814
    2TTP     S526390   3.549   8.506   7.197  0.0097  0.1581 -0.2939
    2TTP     C126391   3.712   8.431   7.164 -0.0072 -0.0511  0.0902
    2TTP     C226392   3.815   8.520   7.179  0.0649 -0.1564  0.2285
    2TTP     C326393   3.769   8.650   7.216  0.1358 -0.0758  0.0365
    2TTP     C426394   3.689   8.882   7.282  0.2629  0.0660 -0.3026
    2TTP    C1726395   3.586   8.794   7.268  0.1908  0.1713 -0.4410
    2TTP    C1826396   3.632   8.663   7.231  0.1197  0.0906 -0.2488
    2TTP    C3226397   3.963   8.512   7.144 -0.1909  0.2902 -0.5184
    2TTP    C3326398   4.064   8.515   7.264  0.4334  0.6540 -0.2014
    2TTP    C3426399   4.214   8.520   7.237 -0.2199  0.5679  0.3688
    2TTP    C3526400   4.307   8.527   7.354 -0.2060  0.0958 -0.9103
    2TTP    C3626401   4.444   8.579   7.317 -0.1987  0.1509 -0.0615
    2TTP    C3726402   4.528   8.601   7.446  0.0841  0.6065 -0.2029
    2TTP    C3826403   4.486   8.711   7.544  0.2647  0.1435  0.8513
    2TTP    C3926404   4.591   8.734   7.651 -0.3735  0.0151 -0.2647
    2TTP    C4026405   4.552   8.841   7.759 -0.3219  0.8311  0.0076
    2TTP    C4126406   4.665   8.868   7.859 -0.6163 -0.3673  0.4208
    2TTP    C4226407   4.635   8.987   7.948 -0.1294  0.5007 -0.0234
    3TTP     S126408   3.342   9.517   7.261 -0.1423  0.0889 -0.0902
    3TTP     S526409   2.954   9.332   7.272 -0.0459 -0.1180 -0.1616
    3TTP     C126410   2.933   9.512   7.291 -0.1227 -0.1575  0.1354
    3TTP     C226411   3.052   9.579   7.289 -0.1569 -0.0959  0.1746
    3TTP     C326412   3.163   9.492   7.272 -0.1238 -0.0153 -0.0279
    3TTP     C426413   3.363   9.337   7.242 -0.0654  0.1283 -0.3870
    3TTP    C1726414   3.244   9.270   7.244 -0.0312  0.0671 -0.4264
    3TTP    C1826415   3.133   9.357   7.261 -0.0644 -0.0136 -0.2236
    3TTP    C3226416   3.064   9.730   7.299 -0.2727  0.1564 -0.1246
    3TTP    C3326417   3.118   9.788   7.434  0.0156 -0.0579  0.4951
    3TTP    C3426418   3.035   9.744   7.560 -0.2227 -0.2115 -0.3131
    3TTP    C3526419   2.897   9.814   7.568  0.0172 -0.6888 -0.4000
    3TTP    C3626420   2.895   9.959   7.608  0.2476 -0.3107 -0.5394
    3TTP    C3726421   2.767  10.042   7.574  0.1044 -0.1102 -0.2598
    3TTP    C3826422   2.633  10.004   7.623  0.9525 -0.5356 -0.5614
    3TTP    C3926423   2.527  10.093   7.564  0.2689  0.0499  0.2144
    3TTP    C4026424   2.389  10.046   7.608  0.2327  0.3719 -0.5864
    3TTP    C4126425   2.280  10.147   7.596  0.0528 -0.2679  0.0336
    3TTP    C4226426   2.151  10.120   7.679 -0.1801 -0.4331  0.0330
    4BIM     F126427   3.234   7.822   6.876 -0.3624 -0.0038  0.7262
    4BIM     F226428   3.443   7.652   6.912  0.0893  0.2220 -0.6896
    4BIM     O126429   3.453   8.291   7.034 -0.4127 -0.0935  1.0636
    4BIM     N526430   3.901   7.742   7.078  0.7028  0.4823 -2.4850
    4BIM     N626431   4.030   8.143   7.194  0.5726  0.3664 -1.9360
    4BIM    C1926432   3.731   8.295   7.125  0.0010  0.0901 -0.1693
    4BIM    C2026433   3.668   8.184   7.084 -0.0040  0.1040 -0.1988
    4BIM    C2126434   3.525   8.190   7.039 -0.2233  0.0052  0.4580
    4BIM    C2226435   3.487   8.052   7.001 -0.1684  0.0494  0.2391
    4BIM    C2326436   3.364   8.008   6.953 -0.3167 -0.0103  0.6644
    4BIM    C2426437   3.352   7.873   6.924 -0.2253  0.0499  0.3374
    4BIM    C2526438   3.460   7.785   6.943  0.0075  0.1662 -0.3921
    4BIM    C2626439   3.583   7.829   6.991  0.1564  0.2264 -0.8196
    4BIM    C2726440   3.597   7.966   7.021  0.0670  0.1669 -0.4982
    4BIM    C2826441   3.712   8.043   7.073  0.1773  0.2048 -0.7964
    4BIM    C2926442   3.837   7.994   7.104  0.4041  0.3132 -1.4930
    4BIM    C3026443   3.872   7.856   7.089  0.5676  0.4057 -2.0359
    4BIM    C3126444   3.942   8.076   7.153  0.4954  0.3419 -1.7327
    5BIM     F126445   2.140   9.299   7.288  0.0130  0.0012  0.1043
    5BIM     F226446   2.074   9.562   7.262 -0.0138 -0.0510 -0.3709
    5BIM     O126447   2.680   9.330   7.312 -0.0111  0.1352  0.4860
    5BIM     N526448   2.365   9.962   7.241 -0.0695 -0.0306 -0.7820
    5BIM     N626449   2.800   9.933   7.266 -0.0831  0.0847 -0.3881
    5BIM    C1926450   2.809   9.592   7.296 -0.0454  0.1330  0.1676
    5BIM    C2026451   2.676   9.574   7.291 -0.0383  0.1013  0.0902
    5BIM    C2126452   2.617   9.436   7.300 -0.0206  0.1049  0.2649
    5BIM    C2226453   2.470   9.452   7.291 -0.0168  0.0651  0.1216
    5BIM    C2326454   2.373   9.353   7.295 -0.0019  0.0536  0.2047
    5BIM    C2426455   2.241   9.392   7.285 -0.0012  0.0146  0.0349
    5BIM    C2526456   2.207   9.528   7.272 -0.0152 -0.0124 -0.2099
    5BIM    C2626457   2.304   9.628   7.268 -0.0300 -0.0012 -0.2940
    5BIM    C2726458   2.438   9.590   7.278 -0.0309  0.0384 -0.1247
    5BIM    C2826459   2.563   9.670   7.277 -0.0446  0.0596 -0.1537
    5BIM    C2926460   2.573   9.806   7.265 -0.0603  0.0435 -0.3663
    5BIM    C3026461   2.458   9.891   7.252 -0.0653  0.0029 -0.5943
    5BIM    C3126462   2.698   9.875   7.266 -0.0727  0.0663 -0.3771
    1BTD     S226463   2.726   5.387   1.150  0.0045 -0.2688 -0.0048
    1BTD     N126464   2.893   5.402   1.215 -0.1085 -0.0163  0.2290
    1BTD     N226465   2.696   5.226   1.224  0.2010 -0.3868 -0.1795
    1BTD     N326466   2.935   4.925   1.493  0.3973 -0.1724 -0.1132
    1BTD     N426467   3.178   5.142   1.482  0.0159  0.2843  0.3902
    1BTD     C526468   3.039   5.263   1.355 -0.0390  0.1352  0.3071
    1BTD     C626469   2.916   5.292   1.285  0.0004 -0.0324  0.1680
    1BTD     C726470   2.806   5.193   1.290  0.1737 -0.2397 -0.0606
    1BTD     C826471   2.824   5.071   1.364  0.2989 -0.2694 -0.1388
    1BTD    C1526472   2.946   5.048   1.431  0.2546 -0.1009  0.0032
    1BTD    C1626473   3.052   5.143   1.426  0.0877  0.0992  0.2236
    1BTD    C4326474   3.239   5.081   1.604  0.3345 -0.2358 -0.0578
    1BTD    C4426475   3.232   5.143   1.749 -0.2553  0.0286  0.6445
    1BTD    C4526476   3.081   5.167   1.794  0.1009 -0.2749  0.3396
    1BTD    C4626477   3.073   5.223   1.934 -0.2197  0.5829 -0.0796
    1BTD    C4726478   3.321   5.070   1.856 -0.2131 -0.7532 -0.9282
    1BTD    C4826479   3.468   5.067   1.823  0.1346  0.0110  0.7251
    1BTD    C4926480   3.552   5.034   1.942 -0.3623 -0.7953  0.1926
    1BTD    C5026481   3.697   5.011   1.910  0.6025 -0.2283  0.5491
    1BTD    C7526482   3.045   4.838   1.534 -0.2881  0.0855  0.2585
    1BTD    C7626483   3.042   4.745   1.653  0.3868 -0.1045  0.2233
    1BTD    C7726484   3.152   4.641   1.682  0.0196 -0.0731  0.1649
    1BTD    C7826485   3.296   4.689   1.690 -0.1128 -0.3773 -0.2049
    1BTD    C7926486   2.985   4.809   1.776  0.0119 -0.3393  0.4573
    1BTD    C8026487   2.971   4.724   1.903 -0.1926  0.7000 -0.1794
    1BTD    C8126488   2.957   4.798   2.043 -0.1143  0.8696  0.8507
    1BTD    C8226489   2.853   4.907   2.063 -0.1824 -0.1038  0.2823
    2TTP     S126490   3.243   5.484   1.307 -0.0686 -0.2208 -0.0150
    2TTP     S526491   3.536   5.259   1.527 -0.3540 -0.4318  0.1511
    2TTP     C126492   3.615   5.410   1.463 -0.0539 -0.7764 -0.3085
    2TTP     C226493   3.529   5.489   1.391  0.0520 -0.7313 -0.3869
    2TTP     C326494   3.398   5.432   1.384 -0.1001 -0.4232 -0.0868
    2TTP     C426495   3.164   5.333   1.371 -0.3687  0.1237  0.4447
    2TTP    C1726496   3.250   5.254   1.442 -0.4745  0.0789  0.5230
    2TTP    C1826497   3.381   5.311   1.449 -0.3224 -0.2292  0.2229
    2TTP    C3226498   3.571   5.628   1.338  0.0523 -0.2468 -0.3558
    2TTP    C3326499   3.467   5.739   1.325  0.0589  0.4511 -0.1712
    2TTP    C3426500   3.516   5.860   1.243 -0.0647  0.6462 -0.0306
    2TTP    C3526501   3.404   5.961   1.234  0.2814 -0.2643 -0.1098
    2TTP    C3626502   3.424   6.083   1.147 -0.7629  0.4317 -0.3896
    2TTP    C3726503   3.306   6.179   1.137 -0.6064 -0.1764  0.1962
    2TTP    C3826504   3.261   6.245   1.270  0.4404 -0.4499  0.0632
    2TTP    C3926505   3.365   6.311   1.359 -0.4923 -0.0997  0.2145
    2TTP    C4026506   3.319   6.357   1.494  0.2703 -0.0893 -0.6586
    2TTP    C4126507   3.441   6.412   1.570 -0.0458  0.6064  0.5294
    2TTP    C4226508   3.404   6.491   1.691  0.2801 -0.1147 -0.0136
    3TTP     S126509   2.563   4.928   1.368  0.0594  0.2139 -0.0172
    3TTP     S526510   2.750   4.604   1.580 -0.1852 -0.0324 -0.1753
    3TTP     C126511   2.575   4.563   1.554 -0.2311  0.1394 -0.1426
    3TTP     C226512   2.507   4.660   1.487 -0.1582  0.2258 -0.0918
    3TTP     C326513   2.591   4.771   1.454 -0.0635  0.1590 -0.0770
    3TTP     C426514   2.738   4.970   1.394  0.1054  0.0421 -0.0499
    3TTP    C1726515   2.806   4.872   1.461  0.0325 -0.0444 -0.1007
    3TTP    C1826516   2.723   4.761   1.494 -0.0622  0.0223 -0.1156
    3TTP    C3226517   2.362   4.666   1.459 -0.1513 -0.5513  0.4511
    3TTP    C3326518   2.297   4.698   1.320 -0.8588 -0.3467 -0.2441
    3TTP    C3426519   2.151   4.699   1.313 -0.0238 -0.5379  0.7703
    3TTP    C3526520   2.110   4.758   1.177 -0.1970  0.1204  0.1900
    3TTP    C3626521   1.962   4.774   1.148  0.4831  0.4750 -0.5742
    3TTP    C3726522   1.924   4.811   1.010  0.0160  0.1764  0.5036
    3TTP    C3826523   1.780   4.857   0.979 -0.3637 -0.0287  0.0068
    3TTP    C3926524   1.763   4.920   0.840  0.1442  0.0110 -0.0327
    3TTP    C4026525   1.800   4.833   0.723  0.6641 -0.0304 -0.2926
    3TTP    C4126526   1.865   4.911   0.604 -0.1013 -0.0909 -0.3139
    3TTP    C4226527   1.871   4.827   0.477  0.0289  0.3206  0.1664
    4BIM     F126528   4.266   5.015   1.780  0.0714  0.0864 -0.0836
    4BIM     F226529   4.427   5.201   1.665 -0.0483  0.2371 -0.0083
    4BIM     O126530   3.778   5.198   1.633 -0.0450 -0.1991 -0.0552
    4BIM     N526531   4.312   5.600   1.395 -0.3034  0.2507  0.1203
    4BIM     N626532   3.899   5.706   1.304 -0.3702 -0.0026  0.1273
    4BIM    C1926533   3.759   5.441   1.471 -0.2007 -0.1561  0.0269
    4BIM    C2026534   3.876   5.388   1.512 -0.1667 -0.0902  0.0168
    4BIM    C2126535   3.877   5.263   1.595 -0.0865 -0.1178 -0.0261
    4BIM    C2226536   4.019   5.232   1.623 -0.0674 -0.0297 -0.0264
    4BIM    C2326537   4.070   5.126   1.696  0.0007 -0.0194 -0.0594
    4BIM    C2426538   4.208   5.118   1.708  0.0056  0.0712 -0.0524
    4BIM    C2526539   4.291   5.214   1.649 -0.0562  0.1488 -0.0135
    4BIM    C2626540   4.241   5.320   1.576 -0.1245  0.1391  0.0195
    4BIM    C2726541   4.101   5.330   1.562 -0.1303  0.0478  0.0130
    4BIM    C2826542   4.017   5.430   1.492 -0.1937  0.0137  0.0411
    4BIM    C2926543   4.061   5.540   1.422 -0.2642  0.0681  0.0818
    4BIM    C3026544   4.199   5.572   1.407 -0.2855  0.1684  0.1028
    4BIM    C3126545   3.971   5.630   1.357 -0.3221  0.0288  0.1066
    5BIM     F126546   2.788   3.825   1.854  0.2108  0.0350 -0.2944
    5BIM     F226547   2.523   3.765   1.875  0.2391 -0.0514 -0.1778
    5BIM     O126548   2.765   4.325   1.649 -0.0452  0.1091 -0.0867
    5BIM     N526549   2.126   4.037   1.759  0.0974 -0.1228  0.1378
    5BIM     N626550   2.161   4.440   1.594 -0.1083 -0.0474  0.2766
    5BIM    C1926551   2.503   4.446   1.596 -0.1090  0.0528  0.0984
    5BIM    C2026552   2.520   4.323   1.647 -0.0458  0.0374  0.0417
    5BIM    C2126553   2.657   4.267   1.671 -0.0165  0.0685 -0.0526
    5BIM    C2226554   2.639   4.132   1.727  0.0526  0.0412 -0.0957
    5BIM    C2326555   2.737   4.041   1.765  0.0997  0.0553 -0.1831
    5BIM    C2426556   2.695   3.919   1.814  0.1619  0.0235 -0.2089
    5BIM    C2526557   2.559   3.888   1.825  0.1765 -0.0210 -0.1487
    5BIM    C2626558   2.460   3.978   1.787  0.1299 -0.0352 -0.0615
    5BIM    C2726559   2.500   4.103   1.737  0.0665 -0.0036 -0.0341
    5BIM    C2826560   2.422   4.219   1.688  0.0065 -0.0076  0.0528
    5BIM    C2926561   2.285   4.228   1.683  0.0007 -0.0458  0.1287
    5BIM    C3026562   2.198   4.123   1.725  0.0539 -0.0880  0.1335
    5BIM    C3126563   2.217   4.345   1.634 -0.0592 -0.0465  0.2097
    1BTD     S226564   4.371   5.460   5.586  0.2529 -0.1315 -0.0846
    1BTD     N126565   4.290   5.600   5.509  0.1992  0.0027  0.2095
    1BTD     N226566   4.531   5.541   5.597  0.3003 -0.2097 -0.2049
    1BTD     N326567   4.711   5.958   5.477  0.3003 -0.1273  0.0807
    1BTD     N426568   4.413   6.031   5.368  0.1756  0.1343  0.5915
    1BTD     C526569   4.358   5.824   5.437  0.1884  0.0685  0.4029
    1BTD     C626570   4.381   5.695   5.495  0.2183 -0.0168  0.2033
    1BTD     C726571   4.517   5.662   5.545  0.2751 -0.1357 -0.0288
    1BTD     C826572   4.622   5.759   5.533  0.2989 -0.1634 -0.0495
    1BTD    C1526573   4.594   5.885   5.476  0.2678 -0.0775  0.1507
    1BTD    C1626574   4.464   5.917   5.428  0.2133  0.0373  0.3742
    1BTD    C4326575   4.487   6.118   5.266 -0.4177 -0.0953  0.4013
    1BTD    C4426576   4.443   6.268   5.248 -0.5702  0.7483 -0.5308
    1BTD    C4526577   4.461   6.340   5.389  0.1620  0.0070  0.2767
    1BTD    C4626578   4.443   6.498   5.396 -0.4143  0.5507 -0.0028
    1BTD    C4726579   4.513   6.335   5.129 -0.2055  0.1643 -0.3829
    1BTD    C4826580   4.489   6.297   4.986  0.5705  0.3079  0.4184
    1BTD    C4926581   4.335   6.310   4.952  0.6163 -0.3936 -0.1681
    1BTD    C5026582   4.297   6.262   4.812 -0.0697  0.6414  0.1961
    1BTD    C7526583   4.723   6.104   5.483 -0.0699  0.2691  0.1567
    1BTD    C7626584   4.842   6.186   5.438 -0.7674  0.0310  0.2308
    1BTD    C7726585   4.888   6.141   5.301  0.7794 -0.0489 -0.0471
    1BTD    C7826586   5.028   6.177   5.249  0.0566 -0.2324 -0.3761
    1BTD    C7926587   4.815   6.332   5.446  0.1995 -0.5354  0.3697
    1BTD    C8026588   4.817   6.402   5.580  0.2809 -0.2233  0.1863
    1BTD    C8126589   4.807   6.557   5.580  0.4749  0.7672  0.5922
    1BTD    C8226590   4.815   6.623   5.716  0.1807  0.3961 -0.0308
    2TTP     S126591   4.067   5.851   5.383 -0.5268  0.0679 -0.1848
    2TTP     S526592   4.126   6.268   5.297  0.0764  0.0699  0.2266
    2TTP     C126593   3.947   6.236   5.310  0.0142  0.2362 -0.1901
    2TTP     C226594   3.918   6.105   5.337 -0.1758  0.2452 -0.3417
    2TTP     C326595   4.036   6.026   5.349 -0.2789  0.1215 -0.1341
    2TTP     C426596   4.245   5.882   5.370 -0.4643 -0.0985  0.2319
    2TTP    C1726597   4.274   6.013   5.342 -0.2744 -0.1075  0.3836
    2TTP    C1826598   4.156   6.093   5.331 -0.1713  0.0163  0.1761
    2TTP    C3226599   3.783   6.036   5.328 -0.1355  0.1848  0.2531
    2TTP    C3326600   3.750   5.929   5.433 -0.0910  0.0652 -0.0626
    2TTP    C3426601   3.623   5.854   5.404 -0.0240  0.3741  0.2604
    2TTP    C3526602   3.596   5.753   5.506 -0.4378  0.8084 -0.1650
    2TTP    C3626603   3.462   5.683   5.487 -0.1636 -0.0894  0.0050
    2TTP    C3726604   3.432   5.589   5.602 -0.7594  0.2264  0.0974
    2TTP    C3826605   3.309   5.509   5.564  0.0542 -0.0224  0.4057
    2TTP    C3926606   3.263   5.412   5.673 -0.1295  0.4630 -0.2922
    2TTP    C4026607   3.159   5.312   5.630  0.1405 -0.2914 -0.5035
    2TTP    C4126608   3.139   5.195   5.730  0.3408  0.6656  0.2126
    2TTP    C4226609   3.038   5.098   5.669 -0.1244 -0.0952  0.1870
    3TTP     S126610   4.860   5.666   5.693 -0.1135  0.1411 -0.2809
    3TTP     S526611   5.087   6.005   5.556 -0.1742  0.2937 -0.0060
    3TTP     C126612   5.196   5.898   5.655 -0.1049  0.1328 -0.2546
    3TTP     C226613   5.133   5.787   5.703 -0.0818  0.0759 -0.3538
    3TTP     C326614   4.995   5.782   5.664 -0.1185  0.1577 -0.2377
    3TTP     C426615   4.751   5.772   5.594 -0.1829  0.3020 -0.0323
    3TTP    C1726616   4.814   5.883   5.546 -0.2059  0.3587  0.0670
    3TTP    C1826617   4.952   5.888   5.586 -0.1693  0.2769 -0.0495
    3TTP    C3226618   5.199   5.674   5.784  0.1424  0.5509  0.2870
    3TTP    C3326619   5.150   5.675   5.931 -0.3593  0.5420 -0.0690
    3TTP    C3426620   5.147   5.813   6.005  0.0409  0.2521 -0.6704
    3TTP    C3526621   5.098   5.796   6.152  0.0573  0.6306 -0.2334
    3TTP    C3626622   4.959   5.729   6.177 -0.1399 -0.0633  0.2644
    3TTP    C3726623   4.930   5.736   6.332  0.4160  0.0900  0.1234
    3TTP    C3826624   4.794   5.691   6.379  0.3128 -0.6469  0.0162
    3TTP    C3926625   4.671   5.740   6.303 -0.3866 -0.0370  0.1502
    3TTP    C4026626   4.636   5.883   6.326  0.1193 -0.2981 -0.1646
    3TTP    C4126627   4.501   5.920   6.261  0.4869  0.5020 -0.1557
    3TTP    C4226628   4.458   6.065   6.238 -0.3863  0.5718 -0.9310
    4BIM     F126629   3.928   7.035   5.109  0.1872  0.0657  0.0031
    4BIM     F226630   3.657   7.018   5.092  0.2061  0.0042 -0.2383
    4BIM     O126631   4.054   6.529   5.255  0.1608  0.1341  0.2639
    4BIM     N526632   3.357   6.632   5.171  0.2144 -0.0356 -0.3992
    4BIM     N626633   3.510   6.241   5.288  0.1900  0.0303 -0.1469
    4BIM    C1926634   3.840   6.333   5.290  0.1696  0.0996  0.1261
    4BIM    C2026635   3.819   6.461   5.254  0.1754  0.0848  0.0697
    4BIM    C2126636   3.934   6.556   5.238  0.1704  0.1042  0.1471
    4BIM    C2226637   3.876   6.686   5.199  0.1789  0.0807  0.0571
    4BIM    C2326638   3.944   6.805   5.172  0.1781  0.0873  0.0842
    4BIM    C2426639   3.867   6.915   5.137  0.1874  0.0609 -0.0170
    4BIM    C2526640   3.728   6.906   5.128  0.1971  0.0294 -0.1413
    4BIM    C2626641   3.660   6.787   5.154  0.1979  0.0225 -0.1690
    4BIM    C2726642   3.735   6.675   5.190  0.1887  0.0490 -0.0677
    4BIM    C2826643   3.694   6.536   5.224  0.1869  0.0501 -0.0650
    4BIM    C2926644   3.566   6.487   5.227  0.1945  0.0241 -0.1675
    4BIM    C3026645   3.451   6.567   5.196  0.2053 -0.0087 -0.2946
    4BIM    C3126646   3.536   6.352   5.261  0.1920  0.0277 -0.1554
    5BIM     F126647   5.783   6.402   5.377 -0.2493  0.1835 -0.1143
    5BIM     F226648   5.951   6.302   5.566 -0.2381  0.5164  0.0542
    5BIM     O126649   5.336   6.112   5.472  0.0230 -0.2458 -0.1358
    5BIM     N526650   5.873   5.951   5.906 -0.0284  0.6888  0.2810
    5BIM     N626651   5.489   5.745   5.943  0.1822  0.2863  0.2301
    5BIM    C1926652   5.337   5.913   5.687  0.1303 -0.0803  0.0175
    5BIM    C2026653   5.443   5.990   5.655  0.0614  0.0145  0.0163
    5BIM    C2126654   5.434   6.090   5.544  0.0094 -0.0801 -0.0650
    5BIM    C2226655   5.566   6.156   5.536 -0.0603  0.0622 -0.0439
    5BIM    C2326656   5.606   6.256   5.448 -0.1247  0.0403 -0.0986
    5BIM    C2426657   5.736   6.303   5.461 -0.1835  0.1954 -0.0638
    5BIM    C2526658   5.823   6.251   5.558 -0.1780  0.3666  0.0231
    5BIM    C2626659   5.783   6.152   5.647 -0.1137  0.3897  0.0778
    5BIM    C2726660   5.652   6.103   5.636 -0.0534  0.2342  0.0440
    5BIM    C2826661   5.579   5.999   5.713  0.0215  0.2116  0.0844
    5BIM    C2926662   5.630   5.924   5.817  0.0488  0.3477  0.1687
    5BIM    C3026663   5.763   5.939   5.866  0.0064  0.5348  0.2301
    5BIM    C3126664   5.552   5.826   5.885  0.1221  0.3132  0.2019
    1BTD     S226665   8.488   5.306   8.322  0.0350 -0.2232 -0.0689
    1BTD     N126666   8.419   5.458   8.254 -0.1066 -0.1693  0.1936
    1BTD     N226667   8.651   5.375   8.349  0.0751 -0.2269 -0.2968
    1BTD     N326668   8.861   5.790   8.282 -0.0997 -0.1372 -0.2875
    1BTD     N426669   8.574   5.892   8.165 -0.3231 -0.0660  0.3166
    1BTD     C526670   8.503   5.683   8.209 -0.2167 -0.1162  0.2503
    1BTD     C626671   8.516   5.548   8.255 -0.1163 -0.1574  0.1023
    1BTD     C726672   8.647   5.501   8.308 -0.0150 -0.1898 -0.1719
    1BTD     C826673   8.757   5.593   8.313 -0.0191 -0.1792 -0.2847
    1BTD    C1526674   8.740   5.725   8.266 -0.1192 -0.1385 -0.1323
    1BTD    C1626675   8.614   5.770   8.215 -0.2172 -0.1074  0.1320
    1BTD    C4326676   8.615   6.030   8.210 -0.4612  0.0673  0.1461
    1BTD    C4426677   8.526   6.108   8.310 -0.0082 -0.3305  0.5958
    1BTD    C4526678   8.483   6.049   8.438  0.3309  0.2013  0.0299
    1BTD    C4626679   8.587   6.031   8.551 -0.3155  0.4904  0.1463
    1BTD    C4726680   8.573   6.259   8.331 -0.5747 -0.2266 -0.0479
    1BTD    C4826681   8.590   6.351   8.208  0.3818 -0.0824 -0.2050
    1BTD    C4926682   8.700   6.456   8.230 -0.0735  0.1911  0.7077
    1BTD    C5026683   8.699   6.565   8.121 -0.4198  0.7921  0.4324
    1BTD    C7526684   8.917   5.902   8.194  0.1707 -0.5733 -0.0132
    1BTD    C7626685   9.017   6.008   8.246  0.0395  0.3624  0.7479
    1BTD    C7726686   8.984   6.105   8.361 -0.0042  0.2409 -0.3902
    1BTD    C7826687   8.935   6.069   8.495  0.4084  0.5538  0.0023
    1BTD    C7926688   9.097   6.080   8.130 -0.1161  0.5783  0.3751
    1BTD    C8026689   9.160   5.994   8.019  0.6312 -0.4390 -0.8859
    1BTD    C8126690   9.250   6.072   7.922  0.4152  0.1728  0.1915
    1BTD    C8226691   9.269   5.987   7.797 -0.1690 -0.8929 -0.2863
    2TTP     S126692   8.228   5.733   8.086  0.0437 -0.0359  0.1908
    2TTP     S526693   8.349   6.135   7.989  0.2828 -0.2757 -0.5174
    2TTP     C126694   8.177   6.111   7.933  0.2336 -0.2407 -0.3833
    2TTP     C226695   8.130   5.985   7.960  0.1574 -0.1645 -0.1566
    2TTP     C326696   8.228   5.904   8.025  0.1342 -0.1312 -0.0806
    2TTP     C426697   8.400   5.758   8.142  0.0927 -0.0708  0.0570
    2TTP    C1726698   8.447   5.883   8.115  0.1693 -0.1471 -0.1697
    2TTP    C1826699   8.350   5.964   8.049  0.1924 -0.1805 -0.2458
    2TTP    C3226700   7.993   5.933   7.924 -0.1791 -0.4122  0.0620
    2TTP    C3326701   7.985   5.828   7.811  0.5874 -0.2962 -0.3977
    2TTP    C3426702   7.846   5.793   7.765 -0.1181  0.5607  0.9240
    2TTP    C3526703   7.742   5.745   7.865  0.4491  0.0858 -0.5366
    2TTP    C3626704   7.610   5.709   7.802  0.2092  0.3820  0.1805
    2TTP    C3726705   7.531   5.818   7.718  0.0524 -0.1530 -0.1423
    2TTP    C3826706   7.478   5.938   7.791  0.1366 -0.5111 -0.2780
    2TTP    C3926707   7.347   5.921   7.885 -0.6673  0.3516 -0.1069
    2TTP    C4026708   7.227   5.824   7.843 -0.3145 -1.0893  0.0140
    2TTP    C4126709   7.152   5.853   7.712 -0.5022  0.0703 -0.4507
    2TTP    C4226710   7.031   5.768   7.706  0.6022 -0.4056 -0.5117
    3TTP     S126711   8.994   5.455   8.439  0.0352  0.2580  0.1143
    3TTP     S526712   9.215   5.823   8.415 -0.0918  0.3166 -0.1605
    3TTP     C126713   9.319   5.698   8.497 -0.0574  0.4197 -0.0458
    3TTP     C226714   9.257   5.577   8.509 -0.0165  0.4076  0.0458
    3TTP     C326715   9.125   5.578   8.455 -0.0103  0.3166  0.0288
    3TTP     C426716   8.890   5.580   8.358  0.0007  0.1550 -0.0002
    3TTP    C1726717   8.952   5.701   8.346 -0.0402  0.1670 -0.0919
    3TTP    C1826718   9.084   5.699   8.400 -0.0465  0.2581 -0.0749
    3TTP    C3226719   9.307   5.450   8.581  0.0424  0.5969  0.9782
    3TTP    C3326720   9.297   5.310   8.513  0.1621  0.0134 -0.0506
    3TTP    C3426721   9.333   5.202   8.612 -0.2068  0.2906 -0.4341
    3TTP    C3526722   9.282   5.068   8.552 -0.2370 -0.3316  0.2475
    3TTP    C3626723   9.267   4.936   8.627 -0.0678 -0.1537 -0.2801
    3TTP    C3726724   9.396   4.898   8.695 -0.3992 -0.0185  0.0906
    3TTP    C3826725   9.383   4.757   8.744  0.1565 -0.1403  0.4567
    3TTP    C3926726   9.488   4.712   8.841 -0.1468 -0.1793  0.0991
    3TTP    C4026727   9.512   4.556   8.853  0.2740 -0.0595  0.0005
    3TTP    C4126728   9.386   4.477   8.893  0.5088 -0.0356 -0.1356
    3TTP    C4226729   9.410   4.325   8.901 -0.1888  0.2241  0.2983
    4BIM     F126730   8.297   6.886   7.683  0.0601  0.0114  0.0501
    4BIM     F226731   8.027   6.912   7.656  0.0730 -0.0306 -0.1253
    4BIM     O126732   8.335   6.368   7.837  0.0174  0.1174  0.4205
    4BIM     N526733   7.667   6.580   7.727  0.0610 -0.0153 -0.1130
    4BIM     N626734   7.751   6.170   7.852  0.0250  0.0758  0.2116
    4BIM    C1926735   8.091   6.209   7.865  0.0142  0.1149  0.3847
    4BIM    C2026736   8.092   6.338   7.828  0.0248  0.0898  0.2984
    4BIM    C2126737   8.221   6.414   7.815  0.0250  0.0930  0.3234
    4BIM    C2226738   8.187   6.550   7.773  0.0374  0.0615  0.2111
    4BIM    C2326739   8.273   6.656   7.749  0.0429  0.0529  0.1906
    4BIM    C2426740   8.217   6.777   7.709  0.0545  0.0217  0.0765
    4BIM    C2526741   8.078   6.790   7.696  0.0612  0.0002 -0.0136
    4BIM    C2626742   7.991   6.685   7.720  0.0564  0.0087  0.0062
    4BIM    C2726743   8.046   6.562   7.760  0.0443  0.0402  0.1211
    4BIM    C2826744   7.982   6.432   7.793  0.0366  0.0566  0.1712
    4BIM    C2926745   7.848   6.404   7.791  0.0397  0.0436  0.1110
    4BIM    C3026746   7.749   6.501   7.756  0.0515  0.0112 -0.0119
    4BIM    C3126747   7.795   6.276   7.825  0.0316  0.0615  0.1669
    5BIM     F126748   9.860   6.321   8.558  0.0134 -0.1355  0.4637
    5BIM     F226749  10.058   6.138   8.595  0.1130 -0.2558 -0.5882
    5BIM     O126750   9.428   5.997   8.516 -0.1144  0.0012  0.7224
    5BIM     N526751  10.034   5.644   8.620  0.1652 -0.3312 -1.9159
    5BIM     N626752   9.657   5.428   8.580  0.0451 -0.2002 -1.5020
    5BIM    C1926753   9.463   5.708   8.538 -0.0646 -0.0652 -0.1909
    5BIM    C2026754   9.564   5.796   8.546 -0.0362 -0.0949 -0.2146
    5BIM    C2126755   9.538   5.944   8.535 -0.0646 -0.0576  0.2720
    5BIM    C2226756   9.669   6.011   8.549 -0.0226 -0.1042  0.1073
    5BIM    C2326757   9.695   6.147   8.545 -0.0291 -0.0923  0.4213
    5BIM    C2426758   9.827   6.187   8.561  0.0171 -0.1442  0.1769
    5BIM    C2526759   9.928   6.093   8.580  0.0685 -0.2059 -0.3653
    5BIM    C2626760   9.903   5.956   8.584  0.0756 -0.2184 -0.6807
    5BIM    C2726761   9.770   5.914   8.568  0.0291 -0.1664 -0.4404
    5BIM    C2826762   9.710   5.778   8.568  0.0224 -0.1632 -0.6597
    5BIM    C2926763   9.777   5.659   8.583  0.0634 -0.2136 -1.1766
    5BIM    C3026764   9.918   5.651   8.603  0.1192 -0.2781 -1.5814
    5BIM    C3126765   9.711   5.533   8.581  0.0529 -0.2059 -1.3525
    1BTD     S226766   9.174   5.311   3.796  0.1754 -0.1848  0.0981
    1BTD     N126767   9.324   5.212   3.803  0.1674 -0.1647  0.6635
    1BTD     N226768   9.260   5.468   3.813  0.1590 -0.1136 -0.4464
    1BTD     N326769   9.705   5.609   3.860  0.1111  0.0675 -0.5353
    1BTD     N426770   9.784   5.294   3.847  0.1216  0.0048  0.8323
    1BTD     C526771   9.563   5.258   3.826  0.1433 -0.0755  0.7351
    1BTD     C626772   9.425   5.296   3.817  0.1535 -0.1088  0.4293
    1BTD     C726773   9.389   5.440   3.822  0.1490 -0.0802 -0.1920
    1BTD     C826774   9.493   5.538   3.837  0.1342 -0.0198 -0.4763
    1BTD    C1526775   9.627   5.496   3.846  0.1243  0.0112 -0.1596
    1BTD    C1626776   9.662   5.358   3.841  0.1290 -0.0164  0.4390
    1BTD    C4326777   9.900   5.327   3.931  0.1761  0.4480 -0.1727
    1BTD    C4426778   9.937   5.250   4.066 -0.1110 -0.3800  0.1086
    1BTD    C4526779   9.812   5.262   4.160  0.1836  0.3955  0.3438
    1BTD    C4626780   9.799   5.159   4.266  0.5700  0.3392 -0.4217
    1BTD    C4726781  10.067   5.302   4.131  0.7824  0.0771 -0.2883
    1BTD    C4826782  10.197   5.294   4.054  0.1195  0.2798 -0.9379
    1BTD    C4926783  10.315   5.308   4.150 -0.0625  0.1865 -0.1536
    1BTD    C5026784  10.450   5.328   4.083  0.4964  0.4142 -0.6258
    1BTD    C7526785   9.847   5.631   3.836 -0.5670  0.3622  0.1069
    1BTD    C7626786   9.898   5.677   3.701  0.0027  1.3903  0.0815
    1BTD    C7726787  10.048   5.717   3.696  0.1016  0.5831  0.2130
    1BTD    C7826788  10.168   5.620   3.692 -0.0320 -0.2912 -0.4006
    1BTD    C7926789   9.856   5.578   3.586 -0.5056 -0.0811 -0.0396
    1BTD    C8026790   9.848   5.638   3.442 -0.1680  0.2494  0.0599
    1BTD    C8126791   9.775   5.769   3.430  0.1701 -0.7032 -0.5367
    1BTD    C8226792   9.754   5.809   3.284 -0.0073  0.2088  0.8831
    2TTP     S126793   9.588   4.955   3.805 -0.0572 -0.0555 -0.2853
    2TTP     S526794  10.016   4.999   3.804 -0.0533 -0.0632  0.4086
    2TTP     C126795   9.976   4.822   3.785 -0.0343 -0.0114 -0.1357
    2TTP     C226796   9.841   4.798   3.784 -0.0344 -0.0057 -0.3821
    2TTP     C326797   9.765   4.918   3.798 -0.0495 -0.0426 -0.1499
    2TTP     C426798   9.628   5.131   3.824 -0.0763 -0.1076  0.2590
    2TTP    C1726799   9.763   5.155   3.825 -0.0762 -0.1130  0.5054
    2TTP    C1826800   9.839   5.035   3.810 -0.0611 -0.0764  0.2731
    2TTP    C3226801   9.772   4.666   3.769  0.3016 -0.4145  0.0536
    2TTP    C3326802   9.707   4.608   3.896  0.0646 -0.2522 -0.4241
    2TTP    C3426803   9.614   4.490   3.878 -0.1384  0.5571 -0.1286
    2TTP    C3526804   9.480   4.505   3.803 -0.4196 -0.3980 -0.2436
    2TTP    C3626805   9.390   4.614   3.851 -0.1454  0.1480  0.6789
    2TTP    C3726806   9.279   4.650   3.759  0.0596 -0.6552 -0.2160
    2TTP    C3826807   9.186   4.767   3.789  0.0460 -0.0141  1.2413
    2TTP    C3926808   9.114   4.822   3.663  0.7689  0.2522 -0.4789
    2TTP    C4026809   8.986   4.898   3.694 -0.5168 -0.0013  0.1873
    2TTP    C4126810   8.892   4.937   3.575 -0.2097 -0.6672 -0.1199
    2TTP    C4226811   8.759   4.994   3.626 -0.3449  0.2778  0.0640
    3TTP     S126812   9.376   5.822   3.871 -0.0479 -0.0604  0.0426
    3TTP     S526813   9.776   5.978   3.899 -0.1585  0.2702 -0.1999
    3TTP     C126814   9.658   6.117   3.913 -0.2667  0.1651 -0.0612
    3TTP     C226815   9.528   6.076   3.905 -0.2389  0.0570  0.0218
    3TTP     C326816   9.516   5.935   3.888 -0.1311  0.0529 -0.0210
    3TTP     C426817   9.493   5.684   3.857  0.0606  0.0446 -0.0961
    3TTP    C1726818   9.624   5.724   3.865  0.0325  0.1529 -0.1791
    3TTP    C1826819   9.636   5.865   3.882 -0.0753  0.1568 -0.1362
    3TTP    C3226820   9.400   6.158   3.908 -0.4384 -0.3051 -0.0606
    3TTP    C3326821   9.328   6.165   3.775 -0.2338 -0.0780 -0.4455
    3TTP    C3426822   9.203   6.255   3.780 -0.2088  0.7374 -0.3131
    3TTP    C3526823   9.134   6.279   3.646  0.4344 -0.4869  0.0178
    3TTP    C3626824   9.033   6.399   3.643  0.2045  0.1889 -0.4163
    3TTP    C3726825   9.084   6.540   3.656 -0.4737 -0.2250  0.3375
    3TTP    C3826826   8.979   6.651   3.667 -0.1075  0.3377  0.2674
    3TTP    C3926827   8.901   6.664   3.535 -0.6218 -0.3650  0.1966
    3TTP    C4026828   8.788   6.763   3.550  0.0980 -0.5527  0.1185
    3TTP    C4126829   8.738   6.820   3.420  0.4508 -0.6756  0.1307
    3TTP    C4226830   8.622   6.917   3.432 -0.3208 -0.1735 -0.5062
    4BIM     F126831  10.769   4.820   3.594  0.1878 -0.3394 -0.0944
    4BIM     F226832  10.786   4.569   3.698  0.2303 -0.1583  0.3409
    4BIM     O126833  10.241   4.922   3.657  0.1483 -0.3663 -0.3814
    4BIM     N526834  10.434   4.280   3.892  0.2634  0.0824  0.7620
    4BIM     N626835  10.018   4.411   3.920  0.2239  0.0246  0.4503
    4BIM    C1926836  10.070   4.718   3.778  0.1750 -0.2032 -0.0674
    4BIM    C2026837  10.202   4.702   3.758  0.1832 -0.2034 -0.0122
    4BIM    C2126838  10.284   4.812   3.695  0.1685 -0.2903 -0.1829
    4BIM    C2226839  10.422   4.762   3.689  0.1827 -0.2664 -0.0681
    4BIM    C2326840  10.534   4.828   3.638  0.1764 -0.3241 -0.1580
    4BIM    C2426841  10.655   4.761   3.643  0.1928 -0.2860 -0.0165
    4BIM    C2526842  10.663   4.631   3.696  0.2147 -0.1929  0.2077
    4BIM    C2626843  10.552   4.565   3.747  0.2211 -0.1347  0.2985
    4BIM    C2726844  10.429   4.631   3.743  0.2047 -0.1721  0.1578
    4BIM    C2826845  10.294   4.589   3.788  0.2059 -0.1297  0.2010
    4BIM    C2926846  10.260   4.469   3.846  0.2245 -0.0393  0.4007
    4BIM    C3026847  10.356   4.366   3.871  0.2458  0.0272  0.5987
    4BIM    C3126848  10.127   4.438   3.886  0.2241 -0.0046  0.4267
    5BIM     F126849  10.340   6.519   4.122 -0.0867  0.3469  0.3550
    5BIM     F226850  10.240   6.739   3.996  0.1211  0.0681 -0.3068
    5BIM     O126851   9.929   6.172   4.061 -0.1016  0.3021  0.7077
    5BIM     N526852   9.804   6.808   3.773  0.4093 -0.3644 -1.0071
    5BIM     N626853   9.503   6.492   3.750  0.3557 -0.3432 -0.5983
    5BIM    C1926854   9.688   6.259   3.920  0.0916  0.0198  0.2005
    5BIM    C2026855   9.795   6.337   3.940  0.0873  0.0421  0.1376
    5BIM    C2126856   9.916   6.286   4.014 -0.0151  0.1903  0.4115
    5BIM    C2226857  10.013   6.396   4.018  0.0081  0.1761  0.2587
    5BIM    C2326858  10.140   6.396   4.076 -0.0620  0.2844  0.4141
    5BIM    C2426859  10.214   6.513   4.067 -0.0217  0.2450  0.2176
    5BIM    C2526860  10.162   6.626   4.002  0.0854  0.1015 -0.1233
    5BIM    C2626861  10.036   6.627   3.944  0.1557 -0.0074 -0.2800
    5BIM    C2726862   9.959   6.510   3.952  0.1164  0.0305 -0.0852
    5BIM    C2826863   9.824   6.478   3.902  0.1694 -0.0576 -0.1731
    5BIM    C2926864   9.740   6.563   3.833  0.2743 -0.2035 -0.4833
    5BIM    C3026865   9.776   6.697   3.800  0.3482 -0.2916 -0.7703
    5BIM    C3126866   9.610   6.523   3.788  0.3185 -0.2795 -0.5447
    1BTD     S226867   4.729   0.763   2.002  0.1418  0.0563  0.1815
    1BTD     N126868   4.893   0.835   2.010  0.0172  0.3412  0.2018
    1BTD     N226869   4.713   0.783   1.824  0.1707 -0.0619  0.1660
    1BTD     N326870   4.979   0.952   1.476  0.0049  0.2112  0.1715
    1BTD     N426871   5.201   1.017   1.706 -0.1849  0.7080  0.2156
    1BTD     C526872   5.051   0.930   1.849 -0.0861  0.5267  0.2085
    1BTD     C626873   4.927   0.868   1.886  0.0042  0.3338  0.1964
    1BTD     C726874   4.826   0.839   1.782  0.0902  0.1082  0.1763
    1BTD     C826875   4.855   0.872   1.645  0.0818  0.0867  0.1694
    1BTD    C1526876   4.978   0.932   1.613 -0.0079  0.2802  0.1818
    1BTD    C1626877   5.075   0.960   1.713 -0.0910  0.4976  0.2011
    1BTD    C4326878   5.254   1.105   1.599  0.1136  0.3519  0.0955
    1BTD    C4426879   5.402   1.082   1.546 -0.9903 -0.3491 -0.4095
    1BTD    C4526880   5.458   1.191   1.452 -0.8282  0.2992  0.0878
    1BTD    C4626881   5.455   1.332   1.510 -0.5725 -0.1072  0.3713
    1BTD    C4726882   5.436   0.937   1.510 -0.4913  0.5117  0.8756
    1BTD    C4826883   5.589   0.907   1.482 -0.3728 -0.9915 -0.0441
    1BTD    C4926884   5.682   0.918   1.601 -0.2927 -1.0456 -0.6674
    1BTD    C5026885   5.662   0.805   1.702 -0.3254  0.5174  0.2300
    1BTD    C7526886   5.091   0.919   1.387 -0.3145  0.1246  0.0557
    1BTD    C7626887   5.119   0.978   1.253  0.1150  0.4209  0.5799
    1BTD    C7726888   5.144   1.126   1.268  0.6003  0.1664 -0.4590
    1BTD    C7826889   5.119   1.212   1.149 -0.0699  0.3906  0.3434
    1BTD    C7926890   5.220   0.896   1.172 -0.0940  0.3134  0.3927
    1BTD    C8026891   5.167   0.767   1.111 -0.3391  0.2364  0.0633
    1BTD    C8126892   5.033   0.778   1.040 -0.0925 -0.4607 -0.1606
    1BTD    C8226893   4.999   0.651   0.966  0.3750 -0.2998  0.1088
    2TTP     S126894   5.215   0.984   2.095  0.0699 -0.1036  0.0423
    2TTP     S526895   5.525   1.155   1.852 -0.1144  0.3882  0.1518
    2TTP     C126896   5.572   1.174   2.027  0.0001  0.0686  0.1580
    2TTP     C226897   5.479   1.123   2.112  0.0638 -0.1021  0.1245
    2TTP     C326898   5.367   1.066   2.043  0.0244  0.0133  0.0929
    2TTP     C426899   5.169   0.964   1.920 -0.0447  0.2160  0.0362
    2TTP    C1726900   5.262   1.016   1.835 -0.1082  0.3867  0.0696
    2TTP    C1826901   5.373   1.073   1.904 -0.0689  0.2713  0.1013
    2TTP    C3226902   5.496   1.107   2.269 -0.2825  0.4110  0.1639
    2TTP    C3326903   5.411   1.008   2.356 -0.4511 -0.3613  0.0934
    2TTP    C3426904   5.424   1.013   2.508 -0.4556  0.4882 -0.1647
    2TTP    C3526905   5.562   0.973   2.573  0.5203 -0.0094 -0.4516
    2TTP    C3626906   5.572   1.015   2.719  0.0134  0.5694 -0.4704
    2TTP    C3726907   5.708   0.978   2.789 -0.0742  0.3355  0.1911
    2TTP    C3826908   5.840   1.036   2.727 -0.2986  0.0509 -0.4223
    2TTP    C3926909   5.968   1.008   2.803 -0.3767 -0.4555 -0.5551
    2TTP    C4026910   6.097   1.074   2.737  0.4157 -0.8132 -0.5428
    2TTP    C4126911   6.130   1.036   2.591 -0.3948  0.2804  0.6742
    2TTP    C4226912   6.123   0.892   2.553  0.2880  0.8609 -0.1616
    3TTP     S126913   4.596   0.886   1.484 -0.0419 -0.0785 -0.0853
    3TTP     S526914   4.813   1.049   1.151  0.2179  0.2715  0.2541
    3TTP     C126915   4.636   1.059   1.115  0.2512  0.1713  0.0623
    3TTP     C226916   4.558   1.009   1.215  0.1729  0.0574 -0.0537
    3TTP     C326917   4.636   0.961   1.325  0.0838  0.0450  0.0045
    3TTP     C426918   4.774   0.876   1.521 -0.0750  0.0217  0.1064
    3TTP    C1726919   4.851   0.926   1.420  0.0031  0.1356  0.2225
    3TTP    C1826920   4.773   0.974   1.311  0.0923  0.1480  0.1642
    3TTP    C3226921   4.406   1.012   1.229 -0.3606 -0.9091 -0.1410
    3TTP    C3326922   4.339   0.876   1.205 -0.5540 -0.0797 -0.5155
    3TTP    C3426923   4.194   0.874   1.224 -0.7826 -0.7244  0.4824
    3TTP    C3526924   4.144   0.729   1.212 -0.0749  0.2785 -0.0908
    3TTP    C3626925   3.992   0.729   1.229  0.3768  0.3019  0.4051
    3TTP    C3726926   3.931   0.589   1.250  0.0190  0.2462 -0.5530
    3TTP    C3826927   3.954   0.527   1.384  0.7265 -0.4888 -0.2324
    3TTP    C3926928   3.899   0.383   1.396 -0.0555  0.3744 -0.0139
    3TTP    C4026929   3.931   0.311   1.529  0.5261  0.2272  0.3239
    3TTP    C4126930   4.072   0.270   1.552 -0.1665  0.0130  0.2577
    3TTP    C4226931   4.089   0.224   1.692 -0.0317  0.6174 -0.3484
    4BIM     F126932   6.113   1.725   1.734 -0.0765  0.1327  0.0604
    4BIM     F226933   6.197   1.766   1.989  0.0762  0.0055  0.0309
    4BIM     O126934   5.733   1.347   1.812  0.0519  0.0086  0.0870
    4BIM     N526935   6.047   1.557   2.412  0.3874 -0.2657  0.0076
    4BIM     N626936   5.733   1.254   2.421  0.4569 -0.3371  0.0343
    4BIM    C1926937   5.678   1.253   2.084  0.2434 -0.1570  0.0683
    4BIM    C2026938   5.771   1.346   2.054  0.2052 -0.1208  0.0628
    4BIM    C2126939   5.793   1.389   1.912  0.1061 -0.0355  0.0731
    4BIM    C2226940   5.899   1.491   1.915  0.0871 -0.0150  0.0635
    4BIM    C2326941   5.954   1.561   1.808  0.0045  0.0575  0.0679
    4BIM    C2426942   6.054   1.653   1.836  0.0029  0.0627  0.0567
    4BIM    C2526943   6.097   1.674   1.967  0.0817 -0.0029  0.0416
    4BIM    C2626944   6.043   1.605   2.075  0.1643 -0.0754  0.0370
    4BIM    C2726945   5.942   1.512   2.049  0.1671 -0.0819  0.0482
    4BIM    C2826946   5.864   1.423   2.139  0.2429 -0.1494  0.0471
    4BIM    C2926947   5.877   1.414   2.276  0.3312 -0.2243  0.0342
    4BIM    C3026948   5.971   1.493   2.350  0.3618 -0.2468  0.0196
    4BIM    C3126949   5.798   1.326   2.355  0.3998 -0.2859  0.0343
    5BIM     F126950   4.926   1.296   0.380  0.0380 -0.0988 -0.1310
    5BIM     F226951   4.669   1.322   0.294  0.0508 -0.0945 -0.1680
    5BIM     O126952   4.845   1.132   0.890 -0.0383 -0.0461 -0.1262
    5BIM     N526953   4.243   1.244   0.532  0.0148 -0.0507 -0.2177
    5BIM     N626954   4.231   1.110   0.948 -0.0476 -0.0104 -0.2065
    5BIM    C1926955   4.571   1.099   0.988 -0.0533 -0.0233 -0.1598
    5BIM    C2026956   4.601   1.139   0.863 -0.0345 -0.0367 -0.1595
    5BIM    C2126957   4.745   1.154   0.820 -0.0280 -0.0479 -0.1417
    5BIM    C2226958   4.742   1.199   0.680 -0.0069 -0.0612 -0.1464
    5BIM    C2326959   4.850   1.226   0.597  0.0056 -0.0744 -0.1344
    5BIM    C2426960   4.823   1.267   0.468  0.0248 -0.0854 -0.1421
    5BIM    C2526961   4.691   1.281   0.423  0.0314 -0.0832 -0.1611
    5BIM    C2626962   4.582   1.254   0.505  0.0191 -0.0700 -0.1732
    5BIM    C2726963   4.608   1.212   0.637 -0.0006 -0.0587 -0.1657
    5BIM    C2826964   4.516   1.176   0.748 -0.0173 -0.0436 -0.1745
    5BIM    C2926965   4.379   1.176   0.744 -0.0167 -0.0372 -0.1930
    5BIM    C3026966   4.304   1.213   0.627  0.0006 -0.0446 -0.2065
    5BIM    C3126967   4.298   1.140   0.856 -0.0336 -0.0225 -0.2003
    1BTD     S226968   4.402   2.497   7.122 -0.3834  0.0846  0.3014
    1BTD     N126969   4.476   2.661   7.120 -0.4129  0.0972  0.2475
    1BTD     N226970   4.484   2.446   7.274 -0.1616  0.0498  0.1708
    1BTD     N326971   4.786   2.637   7.578  0.2367  0.0017 -0.1920
    1BTD     N426972   4.777   2.902   7.388 -0.0730  0.0601 -0.0978
    1BTD     C526973   4.633   2.783   7.262 -0.2317  0.0771  0.0659
    1BTD     C626974   4.555   2.668   7.226 -0.2638  0.0760  0.1407
    1BTD     C726975   4.559   2.548   7.313 -0.1231  0.0494  0.0979
    1BTD     C826976   4.641   2.549   7.431  0.0426  0.0254 -0.0173
    1BTD    C1526977   4.717   2.664   7.462  0.0682  0.0275 -0.0873
    1BTD    C1626978   4.713   2.780   7.378 -0.0676  0.0532 -0.0460
    1BTD    C4326979   4.825   2.969   7.514 -0.2160 -0.3586  0.0351
    1BTD    C4426980   4.729   3.039   7.615 -0.6892 -0.1060  0.2720
    1BTD    C4526981   4.614   2.955   7.671 -0.1135  0.3940  0.5008
    1BTD    C4626982   4.515   3.019   7.763  0.8157 -0.1599  0.3032
    1BTD    C4726983   4.811   3.122   7.719  0.4326  0.4013 -0.4886
    1BTD    C4826984   4.868   3.262   7.680 -0.2589  0.0316  0.5168
    1BTD    C4926985   4.759   3.373   7.648  0.1711 -0.1596 -0.4174
    1BTD    C5026986   4.807   3.519   7.657  0.0755 -0.1781 -0.3612
    1BTD    C7526987   4.915   2.689   7.629  0.3303  0.2828 -0.4468
    1BTD    C7626988   5.046   2.619   7.596 -0.2463 -0.1790  0.3340
    1BTD    C7726989   5.155   2.640   7.697 -0.1723 -0.2746  0.4336
    1BTD    C7826990   5.136   2.611   7.849  0.0624 -0.1505  0.2530
    1BTD    C7926991   5.089   2.633   7.446 -0.2520  0.1116 -0.0813
    1BTD    C8026992   5.130   2.770   7.399  0.6760 -0.1608 -0.5345
    1BTD    C8126993   5.156   2.768   7.259  0.4701 -0.0545  0.4126
    1BTD    C8226994   5.300   2.732   7.225 -0.0935 -0.0462  0.1032
    2TTP     S126995   4.562   3.020   7.085  0.1712 -0.2069  0.1988
    2TTP     S526996   4.807   3.273   7.332  0.3201  0.2263 -0.3895
    2TTP     C126997   4.720   3.377   7.211 -0.0469  0.0570 -0.2743
    2TTP     C226998   4.639   3.305   7.127 -0.1143 -0.0867 -0.0857
    2TTP     C326999   4.643   3.165   7.156  0.1210 -0.0684 -0.0256
    2TTP     C427000   4.649   2.916   7.207  0.5381 -0.0376  0.0834
    2TTP    C1727001   4.730   2.988   7.290  0.6056  0.1061 -0.1049
    2TTP    C1827002   4.726   3.128   7.261  0.3700  0.0877 -0.1650
    2TTP    C3227003   4.553   3.356   7.005 -0.4649  0.0128 -0.6283
    2TTP    C3327004   4.403   3.324   7.022 -0.7565 -0.4813 -0.7988
    2TTP    C3427005   4.321   3.367   6.897 -0.5685  0.2489 -0.7182
    2TTP    C3527006   4.376   3.303   6.768  1.0078 -0.2058 -0.1391
    2TTP    C3627007   4.300   3.339   6.641 -0.1522  0.2818 -0.0046
    2TTP    C3727008   4.165   3.272   6.609  0.1381  0.1895 -0.2255
    2TTP    C3827009   4.100   3.317   6.478 -0.2313  0.2462 -0.0480
    2TTP    C3927010   4.063   3.465   6.465  0.0269 -0.4392 -0.1155
    2TTP    C4027011   4.022   3.495   6.323  0.4951  0.3271  0.5114
    2TTP    C4127012   4.033   3.638   6.290  0.1735  0.0618 -0.1822
    2TTP    C4227013   3.967   3.660   6.155  0.2264  0.7019 -0.9654
    3TTP     S127014   4.602   2.293   7.573 -0.0231 -0.0298  0.1168
    3TTP     S527015   4.864   2.427   7.887 -0.0845  0.0893  0.1174
    3TTP     C127016   4.803   2.261   7.929  0.1650 -0.0306  0.0111
    3TTP     C227017   4.718   2.210   7.835  0.1990 -0.0744  0.0046
    3TTP     C327018   4.699   2.300   7.725  0.0287 -0.0149  0.0834
    3TTP     C427019   4.663   2.459   7.530 -0.2726  0.0901  0.2232
    3TTP    C1727020   4.747   2.510   7.625 -0.3064  0.1339  0.2295
    3TTP    C1827021   4.767   2.420   7.734 -0.1363  0.0744  0.1509
    3TTP    C3227022   4.636   2.084   7.828 -0.1367  0.7008  0.4233
    3TTP    C3327023   4.486   2.110   7.851  0.2792 -0.0051  0.8154
    3TTP    C3427024   4.405   1.980   7.890 -0.8660  0.3587  0.5932
    3TTP    C3527025   4.253   1.990   7.914  0.3173 -0.1857  0.2345
    3TTP    C3627026   4.164   2.038   7.800 -0.2261 -0.0319  0.5627
    3TTP    C3727027   4.169   1.951   7.671  0.5822 -0.0400 -0.5702
    3TTP    C3827028   4.049   1.980   7.584 -0.4803 -0.2004  0.5021
    3TTP    C3927029   3.944   1.874   7.587  0.0657 -0.3119 -0.4796
    3TTP    C4027030   3.824   1.918   7.497 -0.7162  0.7672  0.3902
    3TTP    C4127031   3.742   1.795   7.459  0.4271 -0.5714  0.1609
    3TTP    C4227032   3.611   1.837   7.394 -0.1503 -0.3135 -0.3680
    4BIM     F127033   5.262   3.906   7.528 -0.0354 -0.1261  0.1541
    4BIM     F227034   5.098   4.109   7.451  0.1323 -0.1030 -0.1438
    4BIM     O127035   4.987   3.477   7.344 -0.0329 -0.1231  0.1434
    4BIM     N527036   4.667   4.096   7.208  0.3752 -0.0674 -0.5798
    4BIM     N627037   4.485   3.720   7.080  0.3433 -0.0696 -0.5281
    4BIM    C1927038   4.733   3.519   7.204  0.1281 -0.0998 -0.1452
    4BIM    C2027039   4.809   3.619   7.254  0.1210 -0.1014 -0.1305
    4BIM    C2127040   4.938   3.590   7.324  0.0360 -0.1138  0.0215
    4BIM    C2227041   4.994   3.720   7.365  0.0508 -0.1124 -0.0035
    4BIM    C2327042   5.113   3.743   7.433 -0.0091 -0.1212  0.1042
    4BIM    C2427043   5.146   3.875   7.461  0.0204 -0.1179  0.0536
    4BIM    C2527044   5.061   3.980   7.421  0.1067 -0.1059 -0.0996
    4BIM    C2627045   4.942   3.957   7.353  0.1667 -0.0969 -0.2078
    4BIM    C2727046   4.908   3.824   7.324  0.1383 -0.1002 -0.1588
    4BIM    C2827047   4.790   3.766   7.254  0.1848 -0.0930 -0.2432
    4BIM    C2927048   4.685   3.836   7.200  0.2707 -0.0809 -0.3963
    4BIM    C3027049   4.675   3.979   7.205  0.3278 -0.0735 -0.4965
    4BIM    C3127050   4.576   3.772   7.134  0.3102 -0.0747 -0.4679
    5BIM     F127051   5.397   2.297   8.496 -0.1975  0.1190  0.2496
    5BIM     F227052   5.331   2.045   8.573  0.0359 -0.0160  0.0086
    5BIM     O127053   5.040   2.379   8.097 -0.0784  0.0567  0.1297
    5BIM     N527054   4.982   1.740   8.399  0.4560 -0.2548 -0.4234
    5BIM     N627055   4.716   1.855   8.073  0.5020 -0.2763 -0.4683
    5BIM    C1927056   4.850   2.167   8.029  0.1868 -0.0946 -0.1430
    5BIM    C2027057   4.942   2.156   8.127  0.1477 -0.0736 -0.1035
    5BIM    C2127058   5.037   2.270   8.156  0.0097  0.0052  0.0386
    5BIM    C2227059   5.123   2.225   8.266  0.0004  0.0089  0.0472
    5BIM    C2327060   5.226   2.296   8.328 -0.1086  0.0706  0.1590
    5BIM    C2427061   5.294   2.233   8.431 -0.0937  0.0605  0.1432
    5BIM    C2527062   5.260   2.103   8.470  0.0265 -0.0091  0.0187
    5BIM    C2627063   5.158   2.031   8.409  0.1355 -0.0709 -0.0930
    5BIM    C2727064   5.087   2.094   8.305  0.1225 -0.0618 -0.0789
    5BIM    C2827065   4.975   2.046   8.221  0.2178 -0.1153 -0.1767
    5BIM    C2927066   4.913   1.923   8.228  0.3465 -0.1893 -0.3090
    5BIM    C3027067   4.951   1.823   8.322  0.4061 -0.2251 -0.3712
    5BIM    C3127068   4.805   1.886   8.143  0.4313 -0.2367 -0.3958
    1BTD     S227069   8.297   1.782   3.406  0.1647 -0.2746  0.1499
    1BTD     N127070   8.411   1.875   3.509  0.1912 -0.2081  0.0604
    1BTD     N227071   8.208   1.928   3.348  0.0367 -0.3260  0.2173
    1BTD     N327072   8.234   2.391   3.416 -0.1767 -0.3104  0.1934
    1BTD     N427073   8.484   2.327   3.614  0.0131 -0.1652 -0.0001
    1BTD     C527074   8.446   2.112   3.561  0.0961 -0.1875  0.0312
    1BTD     C627075   8.379   2.003   3.495  0.1073 -0.2266  0.0842
    1BTD     C727076   8.265   2.032   3.405  0.0212 -0.2925  0.1721
    1BTD     C827077   8.224   2.169   3.386 -0.0722 -0.3160  0.2025
    1BTD    C1527078   8.293   2.272   3.452 -0.0803 -0.2760  0.1482
    1BTD    C1627079   8.403   2.244   3.539  0.0030 -0.2125  0.0637
    1BTD    C4327080   8.434   2.450   3.681 -0.8647  0.1629  0.4429
    1BTD    C4427081   8.519   2.565   3.750  0.7372  0.3535  0.0471
    1BTD    C4527082   8.591   2.671   3.660 -0.1593 -0.1169 -0.4914
    1BTD    C4627083   8.679   2.619   3.547 -0.0972  0.5736 -0.5050
    1BTD    C4727084   8.455   2.612   3.877  0.2696  0.3405  0.6405
    1BTD    C4827085   8.533   2.676   3.982  0.4689 -1.2060  0.2803
    1BTD    C4927086   8.446   2.749   4.092  0.1834  0.0419  0.4026
    1BTD    C5027087   8.512   2.799   4.212 -0.6042 -0.6127 -0.1905
    1BTD    C7527088   8.292   2.524   3.401 -0.0866 -0.2526 -0.4187
    1BTD    C7627089   8.348   2.573   3.264  0.0288 -0.0265 -0.8035
    1BTD    C7727090   8.457   2.483   3.201  0.5949  0.1981 -0.1845
    1BTD    C7827091   8.485   2.510   3.058 -0.3699 -0.1894  0.6195
    1BTD    C7927092   8.380   2.727   3.255  0.0036 -0.1279  0.3605
    1BTD    C8027093   8.278   2.824   3.313  1.0207  0.3851  0.2182
    1BTD    C8127094   8.308   2.968   3.263  0.3264  0.3494  0.2325
    1BTD    C8227095   8.191   3.057   3.308 -0.2272  0.1489  0.1318
    2TTP     S127096   8.686   2.004   3.721  0.3753 -0.1399  0.1900
    2TTP     S527097   8.771   2.407   3.847  0.2275 -0.0741  0.0812
    2TTP     C127098   8.893   2.295   3.923  0.1102 -0.0399  0.3185
    2TTP     C227099   8.873   2.164   3.889  0.1488 -0.0583  0.3661
    2TTP     C327100   8.762   2.147   3.801  0.2725 -0.0999  0.2168
    2TTP     C427101   8.564   2.116   3.644  0.4926 -0.1742 -0.0473
    2TTP    C1727102   8.584   2.247   3.678  0.4541 -0.1558 -0.0949
    2TTP    C1827103   8.695   2.264   3.767  0.3304 -0.1140  0.0544
    2TTP    C3227104   8.936   2.038   3.944 -0.1010 -0.0690  0.5433
    2TTP    C3327105   9.076   1.993   3.890  0.2354 -0.0196 -0.2045
    2TTP    C3427106   9.202   2.071   3.928  0.0892  0.2403  0.0575
    2TTP    C3527107   9.332   1.992   3.917  0.3634 -0.0693 -0.5248
    2TTP    C3627108   9.460   2.054   3.970  0.2410 -0.0664  0.0184
    2TTP    C3727109   9.456   2.118   4.108 -0.0921  0.3315 -0.0918
    2TTP    C3827110   9.440   2.025   4.232 -0.6412 -0.0012  0.6625
    2TTP    C3927111   9.456   2.085   4.368 -0.1741 -0.1330 -0.9114
    2TTP    C4027112   9.580   2.164   4.404 -0.8710 -0.7238  0.5054
    2TTP    C4127113   9.715   2.091   4.419  0.3064 -0.1011 -0.3724
    2TTP    C4227114   9.824   2.191   4.473 -0.5806 -0.4637  0.3412
    3TTP     S127115   7.993   2.187   3.185 -0.1084  0.0674 -0.0587
    3TTP     S527116   7.956   2.606   3.274 -0.0362  0.0743 -0.0613
    3TTP     C127117   7.825   2.561   3.157 -0.1554  0.0568  0.0776
    3TTP     C227118   7.829   2.428   3.122 -0.1850  0.0537  0.0865
    3TTP     C327119   7.935   2.359   3.187 -0.1142  0.0649 -0.0160
    3TTP     C427120   8.124   2.233   3.303  0.0110  0.0849 -0.1976
    3TTP    C1727121   8.120   2.365   3.337  0.0402  0.0881 -0.2066
    3TTP    C1827122   8.014   2.435   3.272 -0.0303  0.0768 -0.1041
    3TTP    C3227123   7.740   2.351   3.019  0.5516 -0.4474 -0.4076
    3TTP    C3327124   7.798   2.311   2.887 -1.3435  0.4311 -0.2231
    3TTP    C3427125   7.852   2.425   2.798 -0.0261  0.2214  0.8876
    3TTP    C3527126   7.885   2.382   2.652 -0.1039 -0.4598  0.4261
    3TTP    C3627127   8.002   2.288   2.615  0.1906 -0.1445  0.0570
    3TTP    C3727128   8.137   2.332   2.660 -0.0465  0.1352 -0.7020
    3TTP    C3827129   8.248   2.226   2.656 -0.0117 -0.3385 -0.5438
    3TTP    C3927130   8.383   2.289   2.711  0.4214 -0.3214 -0.2100
    3TTP    C4027131   8.491   2.179   2.728 -0.4780 -0.1369  0.1251
    3TTP    C4127132   8.627   2.225   2.775  0.0497  0.1236  0.0154
    3TTP    C4227133   8.715   2.111   2.793 -0.2343  0.1233  0.1824
    4BIM     F127134   9.315   2.983   4.052 -0.1059 -0.0165 -0.0638
    4BIM     F227135   9.412   2.874   4.281  0.1037 -0.0946 -0.1901
    4BIM     O127136   9.012   2.575   3.864 -0.3319  0.0720  0.1069
    4BIM     N527137   9.337   2.425   4.476  0.2432 -0.1439 -0.2500
    4BIM     N627138   9.081   2.129   4.284  0.0246 -0.0590 -0.0911
    4BIM    C1927139   8.998   2.326   4.016 -0.2120  0.0288  0.0471
    4BIM    C2027140   9.070   2.433   4.054 -0.1638  0.0096  0.0089
    4BIM    C2127141   9.073   2.557   3.971 -0.2306  0.0340  0.0435
    4BIM    C2227142   9.160   2.653   4.041 -0.1528  0.0037 -0.0126
    4BIM    C2327143   9.193   2.783   4.002 -0.1762  0.0117 -0.0061
    4BIM    C2427144   9.278   2.855   4.084 -0.0883 -0.0221 -0.0667
    4BIM    C2527145   9.328   2.798   4.202  0.0190 -0.0623 -0.1317
    4BIM    C2627146   9.296   2.669   4.242  0.0434 -0.0704 -0.1385
    4BIM    C2727147   9.210   2.594   4.160 -0.0443 -0.0367 -0.0777
    4BIM    C2827148   9.157   2.457   4.173 -0.0467 -0.0347 -0.0672
    4BIM    C2927149   9.183   2.368   4.275  0.0424 -0.0676 -0.1180
    4BIM    C3027150   9.268   2.400   4.385  0.1523 -0.1094 -0.1904
    4BIM    C3127151   9.127   2.237   4.279  0.0319 -0.0627 -0.1029
    5BIM     F127152   7.669   3.358   3.237 -0.2134 -0.0794 -0.1365
    5BIM     F227153   7.411   3.307   3.167 -0.2538 -0.1782  0.0841
    5BIM     O127154   7.888   2.865   3.190 -0.0939 -0.0207 -0.1963
    5BIM     N527155   7.196   2.881   3.034 -0.2267 -0.2782  0.3588
    5BIM     N627156   7.419   2.506   3.011 -0.1252 -0.2124  0.2676
    5BIM    C1927157   7.719   2.641   3.107 -0.0900 -0.0942 -0.0066
    5BIM    C2027158   7.674   2.767   3.121 -0.1184 -0.1051 -0.0002
    5BIM    C2127159   7.767   2.877   3.164 -0.1184 -0.0653 -0.1014
    5BIM    C2227160   7.686   3.000   3.170 -0.1533 -0.0896 -0.0654
    5BIM    C2327161   7.729   3.128   3.205 -0.1656 -0.0678 -0.1301
    5BIM    C2427162   7.634   3.229   3.203 -0.1996 -0.0985 -0.0776
    5BIM    C2527163   7.501   3.202   3.167 -0.2201 -0.1494  0.0361
    5BIM    C2627164   7.458   3.075   3.132 -0.2081 -0.1713  0.1011
    5BIM    C2727165   7.552   2.971   3.134 -0.1739 -0.1410  0.0494
    5BIM    C2827166   7.540   2.827   3.102 -0.1533 -0.1525  0.0941
    5BIM    C2927167   7.425   2.761   3.063 -0.1645 -0.1982  0.2020
    5BIM    C3027168   7.300   2.827   3.047 -0.1987 -0.2420  0.2878
    5BIM    C3127169   7.423   2.621   3.035 -0.1428 -0.2058  0.2375
    1BTD     S227170   0.271   8.154   7.811  0.0104 -0.2276 -0.0166
    1BTD     N127171   0.324   7.986   7.848 -0.0156 -0.2424 -0.0466
    1BTD     N227172   0.106   8.105   7.757 -0.0567 -0.1750  0.1380
    1BTD     N327173  -0.132   7.703   7.713 -0.2403 -0.0952  0.3995
    1BTD     N427174   0.137   7.557   7.826 -0.1897 -0.1783  0.1719
    1BTD     C527175   0.223   7.764   7.835 -0.1071 -0.2075  0.0702
    1BTD     C627176   0.222   7.907   7.819 -0.0701 -0.2092  0.0551
    1BTD     C727177   0.100   7.973   7.768 -0.0931 -0.1715  0.1584
    1BTD     C827178  -0.015   7.893   7.735 -0.1519 -0.1343  0.2717
    1BTD    C1527179  -0.009   7.754   7.752 -0.1868 -0.1345  0.2825
    1BTD    C1627180   0.108   7.690   7.801 -0.1644 -0.1708  0.1828
    1BTD    C4327181   0.040   7.461   7.881 -0.2167 -0.1428  0.4523
    1BTD    C4427182   0.016   7.463   8.035 -0.5116  0.6364  1.1450
    1BTD    C4527183  -0.023   7.598   8.102  0.7955  0.3159  0.0240
    1BTD    C4627184  -0.165   7.655   8.068 -0.1242  0.1331  0.6553
    1BTD    C4727185  -0.066   7.339   8.076  0.6237 -0.3447  0.0313
    1BTD    C4827186  -0.041   7.200   8.027 -0.2831  0.7969  0.1126
    1BTD    C4927187  -0.082   7.106   8.136 -0.1709  0.2585 -0.2628
    1BTD    C5027188  -0.090   6.963   8.089  0.1738  0.5583  0.0194
    1BTD    C7527189  -0.142   7.568   7.645  0.2254 -0.0402  0.7577
    1BTD    C7627190  -0.270   7.485   7.660  0.3646 -0.8209  0.8021
    1BTD    C7727191  -0.326   7.467   7.803  0.5081  0.5673 -0.2766
    1BTD    C7827192  -0.463   7.408   7.837 -0.2958 -0.2904 -0.1315
    1BTD    C7927193  -0.252   7.356   7.576 -0.1020  0.2995  0.9344
    1BTD    C8027194  -0.159   7.250   7.635 -0.6546  0.6520 -0.2330
    1BTD    C8127195  -0.032   7.241   7.560  0.1813 -0.1824  0.2560
    1BTD    C8227196   0.014   7.099   7.601  0.7732 -0.8226  0.4300
    2TTP     S127197   0.494   7.672   7.933  0.1398 -0.1320  0.3211
    2TTP     S527198   0.372   7.266   7.859 -0.1861  0.0139  0.0588
    2TTP     C127199   0.545   7.265   7.914 -0.2558 -0.1800  0.2781
    2TTP     C227200   0.593   7.390   7.940 -0.1592 -0.2366  0.3721
    2TTP     C327201   0.495   7.491   7.917 -0.0268 -0.1286  0.2742
    2TTP     C427202   0.321   7.673   7.878  0.2095  0.0621  0.1018
    2TTP    C1727203   0.273   7.547   7.852  0.1130  0.1186  0.0078
    2TTP    C1827204   0.371   7.446   7.874 -0.0195  0.0106  0.1057
    2TTP    C3227205   0.734   7.425   7.992 -0.1167  0.3468  0.1998
    2TTP    C3327206   0.819   7.523   7.928  0.1625  0.0001 -0.1407
    2TTP    C3427207   0.941   7.544   8.011  0.1571  0.5296 -0.3677
    2TTP    C3527208   1.038   7.634   7.950  0.0167 -0.2383 -0.4324
    2TTP    C3627209   1.163   7.668   8.034  0.4153 -0.4571 -0.6479
    2TTP    C3727210   1.272   7.725   7.951  0.0778 -0.1336  0.1525
    2TTP    C3827211   1.350   7.824   8.039  0.5640 -0.0620 -0.3639
    2TTP    C3927212   1.484   7.877   7.993  0.1757  0.2134  0.1042
    2TTP    C4027213   1.600   7.768   7.976  0.2224 -0.1988 -0.2432
    2TTP    C4127214   1.627   7.676   8.099 -0.6291 -0.3528  0.4033
    2TTP    C4227215   1.735   7.570   8.083 -0.2612  0.2338  0.5889
    3TTP     S127216  -0.235   8.075   7.634 -0.0479 -0.1553 -0.1334
    3TTP     S527217  -0.487   7.731   7.580 -0.1407 -0.0354 -0.4627
    3TTP     C127218  -0.581   7.879   7.531 -0.0672  0.0263 -0.4143
    3TTP     C227219  -0.508   7.994   7.545 -0.0346 -0.0070 -0.3098
    3TTP     C327220  -0.376   7.969   7.595 -0.0658 -0.0827 -0.2642
    3TTP     C427221  -0.142   7.926   7.683 -0.1211 -0.2170 -0.1818
    3TTP    C1727222  -0.214   7.811   7.669 -0.1542 -0.1837 -0.2863
    3TTP    C1827223  -0.346   7.836   7.619 -0.1225 -0.1080 -0.3320
    3TTP    C3227224  -0.562   8.139   7.519  0.0920  0.6943 -0.5181
    3TTP    C3327225  -0.569   8.227   7.640  0.3639 -0.4788 -0.0597
    3TTP    C3427226  -0.644   8.356   7.614 -0.3313  0.1183  0.3290
    3TTP    C3527227  -0.649   8.440   7.740 -0.1472  0.2556 -0.2770
    3TTP    C3627228  -0.729   8.572   7.725 -0.2671  0.8772  0.0368
    3TTP    C3727229  -0.684   8.658   7.604 -1.0715  0.5149 -0.1318
    3TTP    C3827230  -0.752   8.795   7.579 -0.2581  0.2180 -0.0129
    3TTP    C3927231  -0.697   8.875   7.463  0.5059 -0.2456  0.1384
    3TTP    C4027232  -0.777   9.005   7.433 -0.6665 -0.2403 -0.0075
    3TTP    C4127233  -0.725   9.054   7.301  0.1697  0.4223  0.0217
    3TTP    C4227234  -0.761   9.201   7.287  0.0394  0.4973 -0.3181
    4BIM     F127235   0.370   6.499   8.134  0.0216 -0.1596 -0.2573
    4BIM     F227236   0.624   6.428   8.068  0.1113  0.0308 -0.1152
    4BIM     O127237   0.382   7.031   8.033 -0.2439 -0.1055 -0.0055
    4BIM     N527238   0.999   6.706   7.903  0.0509  0.3428  0.2689
    4BIM     N627239   0.957   7.136   7.838 -0.1746  0.3469  0.4367
    4BIM    C1927240   0.630   7.152   7.935 -0.2525  0.0955  0.2195
    4BIM    C2027241   0.617   7.021   7.963 -0.1892  0.0746  0.1508
    4BIM    C2127242   0.486   6.966   8.013 -0.1892 -0.0308  0.0360
    4BIM    C2227243   0.506   6.821   8.033 -0.1120 -0.0272 -0.0162
    4BIM    C2327244   0.414   6.728   8.078 -0.0846 -0.1065 -0.1223
    4BIM    C2427245   0.456   6.596   8.089 -0.0092 -0.0847 -0.1535
    4BIM    C2527246   0.587   6.560   8.056  0.0368  0.0134 -0.0798
    4BIM    C2627247   0.680   6.653   8.010  0.0099  0.0927  0.0265
    4BIM    C2727248   0.639   6.787   7.999 -0.0663  0.0722  0.0591
    4BIM    C2827249   0.712   6.908   7.954 -0.1119  0.1388  0.1646
    4BIM    C2927250   0.843   6.914   7.913 -0.0872  0.2402  0.2573
    4BIM    C3027251   0.929   6.800   7.908 -0.0113  0.2964  0.2632
    4BIM    C3127252   0.905   7.036   7.872 -0.1355  0.2981  0.3555
    5BIM     F127253  -1.079   7.302   7.228  0.1001  0.0234 -0.2197
    5BIM     F227254  -1.269   7.493   7.192 -0.0415 -0.0662  0.0488
    5BIM     O127255  -0.675   7.597   7.436  0.0794  0.1290 -0.3304
    5BIM     N527256  -1.255   7.978   7.288 -0.2596 -0.1197  0.3557
    5BIM     N627257  -0.901   8.170   7.458 -0.2468 -0.0193  0.2151
    5BIM    C1927258  -0.714   7.884   7.475 -0.0625  0.0808 -0.1135
    5BIM    C2027259  -0.808   7.802   7.424 -0.0522  0.0579 -0.0960
    5BIM    C2127260  -0.780   7.656   7.407  0.0226  0.0851 -0.2127
    5BIM    C2227261  -0.903   7.597   7.350  0.0148  0.0495 -0.1589
    5BIM    C2327262  -0.925   7.464   7.316  0.0694  0.0577 -0.2290
    5BIM    C2427263  -1.050   7.431   7.263  0.0488  0.0181 -0.1567
    5BIM    C2527264  -1.148   7.530   7.245 -0.0241 -0.0282 -0.0182
    5BIM    C2627265  -1.126   7.663   7.278 -0.0789 -0.0367  0.0522
    5BIM    C2727266  -1.001   7.698   7.332 -0.0591  0.0031 -0.0194
    5BIM    C2827267  -0.946   7.828   7.377 -0.1032  0.0063  0.0248
    5BIM    C2927268  -1.011   7.949   7.375 -0.1769 -0.0309  0.1533
    5BIM    C3027269  -1.145   7.964   7.327 -0.2222 -0.0796  0.2640
    5BIM    C3127270  -0.950   8.070   7.420 -0.2153 -0.0241  0.1864
    1BTD     S227271   6.860   6.854   0.556 -0.1467 -0.0967 -0.2784
    1BTD     N127272   6.695   6.917   0.519 -0.1360 -0.0600 -0.2615
    1BTD     N227273   6.938   7.016   0.555 -0.1358 -0.1013 -0.1499
    1BTD     N327274   6.801   7.460   0.488 -0.0949 -0.0439  0.1425
    1BTD     N427275   6.502   7.338   0.444 -0.0950  0.0070  0.0050
    1BTD     C527276   6.598   7.139   0.481 -0.1146 -0.0255 -0.1207
    1BTD     C627277   6.707   7.049   0.509 -0.1256 -0.0533 -0.1659
    1BTD     C727278   6.843   7.104   0.529 -0.1255 -0.0763 -0.1034
    1BTD     C827279   6.863   7.246   0.519 -0.1144 -0.0707  0.0011
    1BTD    C1527280   6.754   7.330   0.491 -0.1039 -0.0433  0.0421
    1BTD    C1627281   6.623   7.277   0.472 -0.1040 -0.0208 -0.0180
    1BTD    C4327282   6.467   7.475   0.476  0.0424 -1.5188 -0.0915
    1BTD    C4427283   6.359   7.563   0.409 -1.0088 -0.0459 -0.0473
    1BTD    C4527284   6.340   7.701   0.476 -0.1820 -0.8992  0.0079
    1BTD    C4627285   6.291   7.725   0.624 -0.3148  0.0732 -0.0570
    1BTD    C4727286   6.379   7.581   0.255 -0.1470  0.2438 -0.0039
    1BTD    C4827287   6.292   7.677   0.167  0.0196 -0.4166 -0.5089
    1BTD    C4927288   6.144   7.671   0.187 -0.1719  0.1527 -0.0366
    1BTD    C5027289   6.075   7.778   0.107 -0.0589 -0.4084 -0.1911
    1BTD    C7527290   6.770   7.567   0.392  0.0345 -0.0267 -0.4872
    1BTD    C7627291   6.793   7.713   0.424 -0.8505 -0.5183  0.0084
    1BTD    C7727292   6.807   7.786   0.291 -0.3168  0.0793 -0.2477
    1BTD    C7827293   6.864   7.927   0.286 -0.0243 -0.1147 -0.9884
    1BTD    C7927294   6.710   7.777   0.542 -0.0325 -0.3055  0.7844
    1BTD    C8027295   6.724   7.730   0.692 -0.1189 -0.7304  0.6004
    1BTD    C8127296   6.661   7.823   0.798 -0.2868  0.5784  0.2725
    1BTD    C8227297   6.702   7.788   0.943  0.1050 -0.1766  0.1760
    2TTP     S127298   6.344   6.977   0.476 -0.3080  0.1612  0.1013
    2TTP     S527299   6.120   7.338   0.410 -0.2309  0.2217  0.1687
    2TTP     C127300   6.003   7.200   0.429 -0.2613  0.2473  0.1686
    2TTP     C227301   6.065   7.081   0.451 -0.2868  0.2302  0.1478
    2TTP     C327302   6.207   7.094   0.453 -0.2834  0.1961  0.1312
    2TTP     C427303   6.461   7.115   0.457 -0.2776  0.1357  0.1014
    2TTP    C1727304   6.398   7.235   0.436 -0.2520  0.1527  0.1223
    2TTP    C1827305   6.256   7.222   0.433 -0.2555  0.1868  0.1389
    2TTP    C3227306   5.997   6.945   0.471  0.4337 -0.4606 -0.3757
    2TTP    C3327307   6.034   6.823   0.380  0.2005 -0.0333 -0.9240
    2TTP    C3427308   6.010   6.819   0.229 -0.0437  0.0597 -0.4344
    2TTP    C3527309   5.865   6.835   0.201 -0.1327  0.1942  0.4990
    2TTP    C3627310   5.823   6.847   0.054  0.1957 -0.2898 -0.4703
    2TTP    C3727311   5.674   6.834   0.047  0.7394 -0.0051  0.6466
    2TTP    C3827312   5.580   6.951   0.082  0.0242 -0.4294  0.0729
    2TTP    C3927313   5.584   7.065  -0.022  0.1958  0.1958 -0.1833
    2TTP    C4027314   5.475   7.173   0.000  0.4309  0.3544 -0.9203
    2TTP    C4127315   5.482   7.284  -0.106  0.2069  0.1323 -0.0050
    2TTP    C4227316   5.384   7.401  -0.084 -0.2187  0.4585 -0.4427
    3TTP     S127317   7.146   7.298   0.588 -0.1970  0.0509 -0.1643
    3TTP     S527318   7.075   7.721   0.559 -0.2263  0.0669  0.1333
    3TTP     C127319   7.247   7.694   0.612 -0.2461  0.0430  0.1860
    3TTP     C227320   7.279   7.562   0.624 -0.2382  0.0366  0.0972
    3TTP     C327321   7.169   7.477   0.592 -0.2162  0.0504 -0.0156
    3TTP     C427322   6.974   7.324   0.535 -0.1770  0.0747 -0.2170
    3TTP    C1727323   6.942   7.456   0.523 -0.1848  0.0812 -0.1282
    3TTP    C1827324   7.052   7.542   0.555 -0.2068  0.0674 -0.0153
    3TTP    C3227325   7.409   7.496   0.651 -0.6400  0.1113  0.4230
    3TTP    C3327326   7.474   7.498   0.790  0.2681  0.2165  0.0913
    3TTP    C3427327   7.614   7.429   0.807  0.0619  0.0522  0.4016
    3TTP    C3527328   7.625   7.280   0.792 -0.8097 -0.2992 -0.3422
    3TTP    C3627329   7.608   7.217   0.932  0.4870  0.3457  0.2227
    3TTP    C3727330   7.655   7.069   0.938 -0.2842  0.0828  0.2065
    3TTP    C3827331   7.651   7.003   1.066 -0.5693 -0.8765  0.2069
    3TTP    C3927332   7.709   6.863   1.065  0.6752 -0.0640 -0.1069
    3TTP    C4027333   7.622   6.764   0.987  0.6134  0.4185 -0.6199
    3TTP    C4127334   7.646   6.623   1.036 -0.1497  0.6919  0.1541
    3TTP    C4227335   7.562   6.514   0.969 -0.3854 -0.2504 -0.2315
    4BIM     F127336   5.450   7.779   0.246 -0.0153 -0.0825  0.0680
    4BIM     F227337   5.254   7.593   0.276  0.0461 -0.1673 -0.0543
    4BIM     O127338   5.890   7.482   0.353  0.0633  0.0557  0.1293
    4BIM     N527339   5.285   7.113   0.394  0.1899 -0.1909 -0.1865
    4BIM     N627340   5.668   6.918   0.472  0.2389 -0.0659 -0.1139
    4BIM    C1927341   5.858   7.198   0.419  0.1497  0.0235  0.0342
    4BIM    C2027342   5.755   7.280   0.391  0.1276 -0.0079  0.0236
    4BIM    C2127343   5.779   7.425   0.358  0.0832  0.0114  0.0749
    4BIM    C2227344   5.647   7.485   0.333  0.0685 -0.0323  0.0476
    4BIM    C2327345   5.619   7.617   0.299  0.0296 -0.0331  0.0772
    4BIM    C2427346   5.485   7.650   0.280  0.0227 -0.0791  0.0417
    4BIM    C2527347   5.384   7.554   0.296  0.0544 -0.1226 -0.0213
    4BIM    C2627348   5.412   7.422   0.330  0.0935 -0.1222 -0.0511
    4BIM    C2727349   5.546   7.386   0.349  0.1009 -0.0759 -0.0160
    4BIM    C2827350   5.609   7.257   0.385  0.1382 -0.0628 -0.0332
    4BIM    C2927351   5.543   7.138   0.409  0.1758 -0.0951 -0.0909
    4BIM    C3027352   5.401   7.125   0.401  0.1833 -0.1476 -0.1433
    4BIM    C3127353   5.612   7.018   0.443  0.2103 -0.0789 -0.1032
    5BIM     F127354   7.151   8.474   0.839  0.0829  0.2346 -0.2558
    5BIM     F227355   7.422   8.495   0.859  0.0843  0.0288 -0.0523
    5BIM     O127356   7.099   7.957   0.689 -0.1986  0.2532 -0.2237
    5BIM     N527357   7.774   8.156   0.780 -0.1143 -0.2530  0.2631
    5BIM     N627358   7.678   7.748   0.658 -0.3344 -0.1966  0.2472
    5BIM    C1927359   7.339   7.793   0.654 -0.2971  0.0640 -0.0179
    5BIM    C2027360   7.342   7.922   0.691 -0.2264  0.0671 -0.0339
    5BIM    C2127361   7.214   8.000   0.707 -0.1793  0.1674 -0.1421
    5BIM    C2227362   7.253   8.136   0.748 -0.1059  0.1435 -0.1316
    5BIM    C2327363   7.169   8.244   0.774 -0.0439  0.2120 -0.2106
    5BIM    C2427364   7.228   8.364   0.811  0.0193  0.1710 -0.1817
    5BIM    C2527365   7.368   8.374   0.821  0.0201  0.0654 -0.0768
    5BIM    C2627366   7.452   8.267   0.795 -0.0417 -0.0033  0.0025
    5BIM    C2727367   7.394   8.145   0.757 -0.1063  0.0365 -0.0253
    5BIM    C2827368   7.454   8.014   0.723 -0.1804 -0.0148  0.0388
    5BIM    C2927369   7.588   7.984   0.721 -0.2019 -0.1183  0.1454
    5BIM    C3027370   7.690   8.079   0.753 -0.1537 -0.1919  0.2097
    5BIM    C3127371   7.637   7.854   0.686 -0.2748 -0.1608  0.2008
    1BTD     S227372   0.745   0.478   7.072  0.0246  0.0767 -0.0017
    1BTD     N127373   0.680   0.623   6.989  0.0207  0.0819  0.0105
    1BTD     N227374   0.913   0.541   7.084  0.0204  0.0851  0.0138
    1BTD     N327375   1.138   0.933   6.957  0.0046  0.1117  0.0675
    1BTD     N427376   0.851   1.034   6.839  0.0051  0.1078  0.0634
    1BTD     C527377   0.773   0.837   6.912  0.0125  0.0955  0.0381
    1BTD     C627378   0.782   0.707   6.975  0.0166  0.0893  0.0248
    1BTD     C727379   0.912   0.661   7.028  0.0164  0.0911  0.0265
    1BTD     C827380   1.027   0.747   7.016  0.0122  0.0990  0.0418
    1BTD    C1527381   1.014   0.873   6.954  0.0082  0.1048  0.0546
    1BTD    C1627382   0.888   0.917   6.903  0.0084  0.1031  0.0527
    1BTD    C4327383   0.921   1.106   6.727  0.3109  0.4763  0.4438
    1BTD    C4427384   0.918   1.251   6.689 -0.1915 -0.6078 -0.2797
    1BTD    C4527385   0.999   1.273   6.559  0.7471  0.0106  0.0092
    1BTD    C4627386   0.938   1.213   6.429 -0.5442 -0.3880 -0.4997
    1BTD    C4727387   0.964   1.331   6.813  0.1622  0.0437 -0.3991
    1BTD    C4827388   0.941   1.488   6.816  0.4854  0.1771  0.3586
    1BTD    C4927389   1.069   1.556   6.766 -0.2231  0.6354 -0.0533
    1BTD    C5027390   1.061   1.700   6.721  0.1526  0.4317 -0.4378
    1BTD    C7527391   1.166   1.080   6.942 -0.1692  0.7242 -0.5709
    1BTD    C7627392   1.310   1.135   6.911  0.0151 -0.0817  0.2876
    1BTD    C7727393   1.368   1.087   6.773  0.8104  0.0763 -0.3364
    1BTD    C7827394   1.510   1.104   6.745 -0.8135 -0.2364 -0.4638
    1BTD    C7927395   1.335   1.283   6.945 -0.2823  0.6137 -0.3792
    1BTD    C8027396   1.318   1.331   7.087 -0.2376 -0.3805 -0.1707
    1BTD    C8127397   1.351   1.484   7.106  0.5616  0.2900 -0.3293
    1BTD    C8227398   1.358   1.509   7.253 -0.0163 -0.2226 -0.2370
    2TTP     S127399   0.487   0.881   6.833  0.0427  0.2111  0.0349
    2TTP     S527400   0.586   1.281   6.709  0.1988 -0.0096 -0.5574
    2TTP     C127401   0.406   1.260   6.698  0.1784  0.0857 -0.4028
    2TTP     C227402   0.364   1.135   6.736  0.1290  0.1595 -0.2108
    2TTP     C327403   0.474   1.052   6.774  0.1055  0.1434 -0.1788
    2TTP     C427404   0.667   0.902   6.843  0.0631  0.1158 -0.1197
    2TTP    C1727405   0.709   1.027   6.806  0.1125  0.0421 -0.3117
    2TTP    C1827406   0.599   1.110   6.767  0.1360  0.0581 -0.3437
    2TTP    C3227407   0.213   1.089   6.748 -0.7716  0.2035 -0.0618
    2TTP    C3327408   0.168   1.005   6.625 -0.1726  0.1266  0.5753
    2TTP    C3427409   0.018   0.984   6.624  0.0856 -0.0663 -0.5979
    2TTP    C3527410  -0.031   0.911   6.503 -0.1811  0.3179 -0.4996
    2TTP    C3627411  -0.174   0.904   6.471  0.1419 -0.2724  0.4290
    2TTP    C3727412  -0.238   1.038   6.428 -0.4417 -0.0369 -0.1948
    2TTP    C3827413  -0.391   1.029   6.405 -0.1006  0.2672  0.3130
    2TTP    C3927414  -0.446   1.158   6.339 -0.3852  0.4607 -0.6330
    2TTP    C4027415  -0.593   1.176   6.317  0.1049 -0.1799  0.8514
    2TTP    C4127416  -0.668   1.085   6.215 -0.1244 -0.1411 -0.4698
    2TTP    C4227417  -0.734   0.964   6.271  0.5255  0.3396  0.4008
    3TTP     S127418   1.262   0.612   7.155 -0.2424 -0.0853  0.1064
    3TTP     S527419   1.509   0.955   7.077 -0.1573 -0.1086  0.2726
    3TTP     C127420   1.606   0.834   7.171 -0.1950 -0.1681  0.2350
    3TTP     C227421   1.536   0.721   7.200 -0.2235 -0.1644  0.1814
    3TTP     C327422   1.402   0.726   7.150 -0.2166 -0.1145  0.1682
    3TTP     C427423   1.164   0.733   7.061 -0.2048 -0.0258  0.1441
    3TTP    C1727424   1.235   0.847   7.031 -0.1763 -0.0295  0.1977
    3TTP    C1827425   1.368   0.842   7.082 -0.1832 -0.0795  0.2108
    3TTP    C3227426   1.581   0.594   7.282 -0.2462  0.4668  0.0511
    3TTP    C3327427   1.613   0.479   7.186  0.2577 -0.0801 -0.2986
    3TTP    C3427428   1.661   0.343   7.252  0.5712 -0.5417 -0.2818
    3TTP    C3527429   1.770   0.364   7.357  0.0188  0.5260 -0.5319
    3TTP    C3627430   1.823   0.230   7.411  0.7613 -0.2539 -0.1702
    3TTP    C3727431   1.926   0.261   7.515  0.1072 -0.0531 -0.5377
    3TTP    C3827432   2.007   0.139   7.557  0.3045 -0.5502  0.2830
    3TTP    C3927433   2.131   0.160   7.629 -0.2119 -0.3322 -0.2203
    3TTP    C4027434   2.217   0.039   7.638 -0.3130 -0.1110 -0.3767
    3TTP    C4127435   2.364   0.086   7.656  0.5917 -0.3670 -0.4081
    3TTP    C4227436   2.471  -0.021   7.665  0.4431 -0.5259  0.0535
    4BIM     F127437   0.383   2.080   6.779 -0.1118 -0.0547 -0.1924
    4BIM     F227438   0.133   2.078   6.672 -0.0594 -0.1853 -0.3127
    4BIM     O127439   0.500   1.551   6.775  0.1030 -0.0093  0.0124
    4BIM     N527440  -0.143   1.699   6.513  0.1693 -0.3408 -0.3396
    4BIM     N627441  -0.001   1.286   6.532  0.3264 -0.2789 -0.1553
    4BIM    C1927442   0.303   1.362   6.670  0.2294 -0.1180 -0.0297
    4BIM    C2027443   0.283   1.495   6.676  0.1733 -0.1243 -0.0765
    4BIM    C2127444   0.389   1.586   6.731  0.1103 -0.0661 -0.0507
    4BIM    C2227445   0.336   1.723   6.722  0.0594 -0.0900 -0.1152
    4BIM    C2327446   0.398   1.841   6.761 -0.0070 -0.0540 -0.1183
    4BIM    C2427447   0.327   1.959   6.743 -0.0458 -0.0873 -0.1854
    4BIM    C2527448   0.199   1.958   6.687 -0.0186 -0.1546 -0.2474
    4BIM    C2627449   0.136   1.840   6.648  0.0475 -0.1909 -0.2446
    4BIM    C2727450   0.206   1.720   6.666  0.0875 -0.1580 -0.1770
    4BIM    C2827451   0.168   1.580   6.635  0.1587 -0.1817 -0.1558
    4BIM    C2927452   0.050   1.537   6.580  0.2025 -0.2448 -0.2010
    4BIM    C3027453  -0.056   1.626   6.543  0.1841 -0.2973 -0.2770
    4BIM    C3127454   0.023   1.399   6.553  0.2704 -0.2632 -0.1755
    5BIM     F127455   2.192   1.373   6.957 -0.3055  0.2516  0.1643
    5BIM     F227456   2.324   1.312   7.187 -0.0103 -0.1082 -0.0981
    5BIM     O127457   1.768   1.038   6.990 -0.2578  0.1926  0.1775
    5BIM     N527458   2.212   0.985   7.541  0.4484 -0.6676 -0.4658
    5BIM     N627459   1.854   0.735   7.520  0.4262 -0.6412 -0.4025
    5BIM    C1927460   1.744   0.860   7.221  0.0413 -0.1722 -0.0683
    5BIM    C2027461   1.845   0.947   7.204  0.0178 -0.1433 -0.0614
    5BIM    C2127462   1.851   1.035   7.082 -0.1394  0.0484  0.0685
    5BIM    C2227463   1.973   1.116   7.095 -0.1244  0.0303  0.0409
    5BIM    C2327464   2.021   1.213   7.006 -0.2394  0.1706  0.1305
    5BIM    C2427465   2.139   1.277   7.040 -0.1976  0.1199  0.0810
    5BIM    C2527466   2.207   1.245   7.159 -0.0454 -0.0656 -0.0540
    5BIM    C2627467   2.160   1.150   7.247  0.0699 -0.2062 -0.1441
    5BIM    C2727468   2.040   1.083   7.215  0.0299 -0.1576 -0.0958
    5BIM    C2827469   1.965   0.978   7.287  0.1233 -0.2716 -0.1640
    5BIM    C2927470   1.998   0.920   7.407  0.2780 -0.4602 -0.2970
    5BIM    C3027471   2.116   0.956   7.480  0.3711 -0.5735 -0.3895
    5BIM    C3127472   1.919   0.819   7.469  0.3586 -0.5587 -0.3543
    1BTD     S227473   2.977   2.332   6.593  0.0585 -0.0044 -0.0893
    1BTD     N127474   2.960   2.502   6.538  0.0511 -0.0504 -0.2307
    1BTD     N227475   3.144   2.353   6.657 -0.0362  0.1184  0.1179
    1BTD     N327476   3.453   2.704   6.689 -0.2427  0.2855  0.2848
    1BTD     N427477   3.228   2.888   6.543 -0.1351  0.0777 -0.1451
    1BTD     C527478   3.103   2.701   6.542 -0.0474  0.0190 -0.1810
    1BTD     C627479   3.074   2.563   6.569 -0.0181  0.0244 -0.1220
    1BTD     C727480   3.177   2.480   6.635 -0.0669  0.1187  0.0733
    1BTD     C827481   3.303   2.539   6.672 -0.1428  0.2031  0.1998
    1BTD    C1527482   3.326   2.675   6.644 -0.1691  0.1944  0.1360
    1BTD    C1627483   3.227   2.755   6.580 -0.1219  0.1036 -0.0520
    1BTD    C4327484   3.283   3.000   6.632  0.2511 -0.1828  0.4778
    1BTD    C4427485   3.296   3.149   6.600  0.4985 -0.1730 -0.5704
    1BTD    C4527486   3.406   3.182   6.492 -0.0667 -0.0947  0.1396
    1BTD    C4627487   3.563   3.192   6.532  0.4472  0.2163  0.5290
    1BTD    C4727488   3.309   3.237   6.725 -0.2563  0.7656 -0.0676
    1BTD    C4827489   3.315   3.389   6.723  0.8021 -0.8557 -0.0593
    1BTD    C4927490   3.195   3.455   6.654 -0.8671 -0.0415  0.1756
    1BTD    C5027491   3.198   3.601   6.638 -0.0028 -0.2008 -0.0603
    1BTD    C7527492   3.547   2.804   6.624 -0.2910 -0.1173 -0.2634
    1BTD    C7627493   3.664   2.863   6.708  0.2492  0.1651  0.1789
    1BTD    C7727494   3.638   2.956   6.826 -0.1884  0.2099  0.4099
    1BTD    C7827495   3.515   2.943   6.920  0.0575  0.6094  0.7209
    1BTD    C7927496   3.778   2.916   6.623 -0.0292 -0.0510  0.3482
    1BTD    C8027497   3.839   2.822   6.507  0.5197 -0.1540 -0.1193
    1BTD    C8127498   3.964   2.867   6.430  0.5829 -0.0353  1.0226
    1BTD    C8227499   3.940   2.800   6.296  0.1811 -0.0787  1.0898
    2TTP     S127500   2.867   2.822   6.395 -0.1747 -0.0620  0.2408
    2TTP     S527501   3.091   3.187   6.352 -0.4049  0.0568  0.0507
    2TTP     C127502   2.930   3.207   6.270 -0.5017 -0.0146  0.2218
    2TTP     C227503   2.851   3.096   6.278 -0.4364 -0.0556  0.2909
    2TTP     C327504   2.915   2.990   6.350 -0.3074 -0.0319  0.2108
    2TTP     C427505   3.028   2.801   6.477 -0.0778  0.0095  0.0695
    2TTP    C1727506   3.107   2.913   6.468 -0.1432  0.0504  0.0006
    2TTP    C1827507   3.043   3.019   6.397 -0.2721  0.0267  0.0806
    2TTP    C3227508   2.714   3.077   6.210 -0.3638  0.8704  0.5339
    2TTP    C3327509   2.590   3.070   6.292 -0.1024 -0.8520  0.0584
    2TTP    C3427510   2.458   3.018   6.228  0.1834  0.6634  0.3304
    2TTP    C3527511   2.408   3.069   6.090 -0.9136  0.3205  0.0243
    2TTP    C3627512   2.311   2.974   6.033  0.2197  0.7066  0.0709
    2TTP    C3727513   2.230   3.048   5.926  0.3466  0.6791  0.5776
    2TTP    C3827514   2.112   2.965   5.863 -0.7017  0.4162  1.3869
    2TTP    C3927515   2.143   2.889   5.734 -0.7041  0.3940  0.0348
    2TTP    C4027516   2.051   2.779   5.693 -0.3701  0.2888  0.3106
    2TTP    C4127517   2.070   2.710   5.563 -0.5088  0.1665  0.8392
    2TTP    C4227518   2.201   2.635   5.555  0.0146  0.3742 -0.1880
    3TTP     S127519   3.476   2.342   6.830  0.1605 -0.1423 -0.3589
    3TTP     S527520   3.741   2.662   6.938 -0.0531 -0.1302  0.1358
    3TTP     C127521   3.791   2.513   7.028  0.1253 -0.2713 -0.1915
    3TTP     C227522   3.712   2.405   7.001  0.2018 -0.2834 -0.3635
    3TTP     C327523   3.609   2.436   6.906  0.1222 -0.1816 -0.2431
    3TTP     C427524   3.426   2.491   6.739 -0.0179 -0.0013 -0.0317
    3TTP    C1727525   3.505   2.599   6.767 -0.0943  0.0107  0.1404
    3TTP    C1827526   3.607   2.567   6.861 -0.0148 -0.0910  0.0199
    3TTP    C3227527   3.724   2.266   7.056  0.2438 -0.0223  0.5024
    3TTP    C3327528   3.800   2.164   6.958  0.2676 -0.7520  0.9534
    3TTP    C3427529   3.777   2.020   7.004 -0.3703 -0.7832 -0.0071
    3TTP    C3527530   3.819   1.900   6.909 -0.5874 -1.2008 -0.5212
    3TTP    C3627531   3.794   1.767   6.970 -1.1433  0.3380 -0.1604
    3TTP    C3727532   3.651   1.722   6.946  0.6960  0.2734 -0.0475
    3TTP    C3827533   3.623   1.566   6.953  0.1352 -0.5666 -0.0491
    3TTP    C3927534   3.659   1.474   6.837  0.1096  0.5322 -0.0976
    3TTP    C4027535   3.616   1.329   6.861 -0.5518  0.2900 -0.2447
    3TTP    C4127536   3.657   1.228   6.748  0.1373 -0.0849  0.0080
    3TTP    C4227537   3.617   1.085   6.778 -0.1032 -0.1624  0.3331
    4BIM     F127538   3.286   3.909   6.019  0.0660 -0.3554 -0.5436
    4BIM     F227539   3.038   4.009   5.968 -0.0048  0.0423  0.5120
    4BIM     O127540   3.164   3.409   6.186  0.0356 -0.4461 -0.8382
    4BIM     N527541   2.594   3.794   6.012 -0.1281  0.5497  1.8194
    4BIM     N627542   2.549   3.383   6.152 -0.1377  0.3985  1.3767
    4BIM    C1927543   2.883   3.326   6.195 -0.0428 -0.0984  0.0657
    4BIM    C2027544   2.924   3.448   6.155 -0.0324 -0.0910  0.0986
    4BIM    C2127545   3.070   3.483   6.153  0.0085 -0.2764 -0.3839
    4BIM    C2227546   3.079   3.622   6.105  0.0098 -0.2159 -0.2096
    4BIM    C2327547   3.194   3.699   6.087  0.0416 -0.3361 -0.5168
    4BIM    C2427548   3.177   3.828   6.040  0.0358 -0.2452 -0.2634
    4BIM    C2527549   3.049   3.879   6.014 -0.0007 -0.0403  0.2803
    4BIM    C2627550   2.934   3.804   6.032 -0.0325  0.0806  0.5895
    4BIM    C2727551   2.949   3.672   6.079 -0.0273 -0.0087  0.3399
    4BIM    C2827552   2.849   3.567   6.109 -0.0547  0.0762  0.5507
    4BIM    C2927553   2.712   3.578   6.096 -0.0932  0.2722  1.0668
    4BIM    C3027554   2.648   3.697   6.050 -0.1123  0.4241  1.4790
    4BIM    C3127555   2.623   3.471   6.127 -0.1174  0.3406  1.2343
    5BIM     F127556   4.360   3.038   7.301 -0.0223 -0.1479  0.0554
    5BIM     F227557   4.435   2.853   7.486  0.0288 -0.1473  0.0356
    5BIM     O127558   3.963   2.774   7.045 -0.0021 -0.2001  0.0778
    5BIM     N527559   4.259   2.397   7.568  0.1168 -0.1836  0.0229
    5BIM     N627560   3.934   2.228   7.331  0.1222 -0.2245  0.0446
    5BIM    C1927561   3.894   2.502   7.130  0.0540 -0.2180  0.0669
    5BIM    C2027562   3.990   2.576   7.187  0.0470 -0.2049  0.0621
    5BIM    C2127563   4.020   2.715   7.138  0.0176 -0.1963  0.0683
    5BIM    C2227564   4.130   2.766   7.222  0.0172 -0.1827  0.0606
    5BIM    C2327565   4.192   2.891   7.213 -0.0054 -0.1714  0.0626
    5BIM    C2427566   4.294   2.917   7.304 -0.0009 -0.1596  0.0540
    5BIM    C2527567   4.333   2.821   7.399  0.0256 -0.1592  0.0437
    5BIM    C2627568   4.271   2.697   7.407  0.0480 -0.1706  0.0417
    5BIM    C2727569   4.168   2.669   7.317  0.0439 -0.1826  0.0503
    5BIM    C2827570   4.083   2.548   7.300  0.0632 -0.1962  0.0508
    5BIM    C2927571   4.090   2.432   7.373  0.0910 -0.2001  0.0423
    5BIM    C3027572   4.183   2.413   7.480  0.1050 -0.1910  0.0317
    5BIM    C3127573   4.004   2.320   7.349  0.1080 -0.2135  0.0435
    1BTD     S227574   5.459   8.822   1.493  0.1140  0.0440 -0.0911
    1BTD     N127575   5.525   8.655   1.508  0.1127  0.0300 -0.2454
    1BTD     N227576   5.589   8.898   1.593  0.0072 -0.0756  0.1414
    1BTD     N327577   5.972   8.751   1.821 -0.2123 -0.3464  0.3364
    1BTD     N427578   5.893   8.452   1.718 -0.0824 -0.2167 -0.1402
    1BTD     C527579   5.718   8.553   1.619  0.0093 -0.1006 -0.1847
    1BTD     C627580   5.634   8.664   1.583  0.0368 -0.0591 -0.1222
    1BTD     C727581   5.670   8.800   1.630 -0.0223 -0.1183  0.0944
    1BTD     C827582   5.788   8.818   1.711 -0.1059 -0.2153  0.2374
    1BTD    C1527583   5.866   8.706   1.744 -0.1301 -0.2528  0.1692
    1BTD    C1627584   5.832   8.575   1.699 -0.0733 -0.1959 -0.0394
    1BTD    C4327585   5.958   8.415   1.847  0.5046  0.0328  0.1425
    1BTD    C4427586   6.039   8.285   1.874  0.4564 -0.0412 -0.0273
    1BTD    C4527587   6.004   8.261   2.021 -0.3305  0.4630  0.0190
    1BTD    C4627588   6.050   8.129   2.083  0.4110  0.0420 -0.0315
    1BTD    C4727589   6.184   8.293   1.824 -0.4277 -0.1858 -0.2347
    1BTD    C4827590   6.277   8.170   1.826 -0.4555 -0.3763  0.1247
    1BTD    C4927591   6.409   8.173   1.745 -0.2578 -0.2294  0.2404
    1BTD    C5027592   6.396   8.189   1.589 -0.0839  0.5531 -0.3132
    1BTD    C7527593   6.115   8.698   1.804 -0.2738 -0.2767 -0.5091
    1BTD    C7627594   6.208   8.699   1.927 -0.1773  0.4300  0.4520
    1BTD    C7727595   6.349   8.638   1.905 -0.7881  0.1248  0.1631
    1BTD    C7827596   6.421   8.633   1.769  0.8148 -0.0586  0.1794
    1BTD    C7927597   6.139   8.645   2.059  0.5313 -0.5628  0.4925
    1BTD    C8027598   6.213   8.622   2.190  0.0111  0.0591  0.4991
    1BTD    C8127599   6.279   8.735   2.266 -0.2064  0.1050  0.0466
    1BTD    C8227600   6.180   8.833   2.333  0.2042  0.1205 -0.0715
    2TTP     S127601   5.624   8.314   1.470  0.0492  0.1712 -0.0241
    2TTP     S527602   5.977   8.104   1.596 -0.0219 -0.0393 -0.1749
    2TTP     C127603   5.890   8.002   1.473 -0.0342  0.0971 -0.2805
    2TTP     C227604   5.775   8.061   1.427 -0.0129  0.1705 -0.2401
    2TTP     C327605   5.753   8.189   1.487  0.0138  0.1211 -0.1243
    2TTP     C427606   5.712   8.416   1.592  0.0613  0.0348  0.0815
    2TTP    C1727607   5.826   8.357   1.638  0.0402 -0.0383  0.0411
    2TTP    C1827608   5.848   8.229   1.579  0.0135  0.0107 -0.0746
    2TTP    C3227609   5.688   8.003   1.312 -0.7481  1.0358  0.1425
    2TTP    C3327610   5.551   7.971   1.350 -0.3600  0.2348  0.3053
    2TTP    C3427611   5.473   7.910   1.234 -0.5748  0.5751  0.0066
    2TTP    C3527612   5.328   7.899   1.291 -0.3468 -0.4902 -0.5977
    2TTP    C3627613   5.244   7.856   1.173 -0.0574 -0.5570  0.1904
    2TTP    C3727614   5.088   7.853   1.185 -0.2333 -0.0987 -0.3755
    2TTP    C3827615   5.021   7.986   1.218  0.2165 -0.6278  0.6075
    2TTP    C3927616   4.871   7.976   1.233 -0.5675 -0.8457  0.2021
    2TTP    C4027617   4.799   8.109   1.241  0.3950 -0.5846  0.2111
    2TTP    C4127618   4.795   8.192   1.368 -0.8633  0.1705  0.1408
    2TTP    C4227619   4.708   8.316   1.366 -0.0628 -0.1101  0.2870
    3TTP     S127620   5.798   9.105   1.795  0.1500 -0.0519 -0.1611
    3TTP     S527621   6.183   9.032   1.973  0.0868  0.0103  0.0018
    3TTP     C127622   6.141   9.208   1.995  0.0107 -0.0149  0.0601
    3TTP     C227623   6.020   9.241   1.941  0.0256 -0.0358  0.0132
    3TTP     C327624   5.955   9.128   1.881  0.0978 -0.0327 -0.0704
    3TTP     C427625   5.839   8.929   1.773  0.2259 -0.0267 -0.2194
    3TTP    C1727626   5.961   8.897   1.826  0.2111 -0.0058 -0.1726
    3TTP    C1827627   6.025   9.009   1.887  0.1388 -0.0093 -0.0889
    3TTP    C3227628   5.933   9.365   1.959  0.5763  0.2745 -0.5625
    3TTP    C3327629   5.904   9.449   1.836 -0.1217 -0.0649  0.3201
    3TTP    C3427630   5.830   9.576   1.880  0.2376 -0.2358 -0.4460
    3TTP    C3527631   5.831   9.684   1.780  0.7439  0.5356  0.3308
    3TTP    C3627632   5.772   9.822   1.821  0.7760  0.5675  0.2134
    3TTP    C3727633   5.794   9.875   1.964 -0.4130  0.3373  0.1186
    3TTP    C3827634   5.940   9.919   1.990  0.4136  0.5407  0.2506
    3TTP    C3927635   5.976   9.973   2.132  0.4482  0.7351  0.2808
    3TTP    C4027636   6.118  10.017   2.125 -0.0457 -0.5630 -0.2414
    3TTP    C4127637   6.151  10.101   2.246 -0.2274 -0.3997 -0.3017
    3TTP    C4227638   6.294  10.163   2.243 -0.2935  0.6033 -0.2191
    4BIM     F127639   6.539   7.502   1.541  0.0138  0.1718 -0.0504
    4BIM     F227640   6.372   7.292   1.495  0.0832  0.1150 -0.0449
    4BIM     O127641   6.197   7.918   1.493 -0.1143  0.0598 -0.1081
    4BIM     N527642   5.888   7.287   1.395  0.0919 -0.0459 -0.0779
    4BIM     N627643   5.653   7.655   1.367 -0.0222 -0.1220 -0.1241
    4BIM    C1927644   5.915   7.866   1.432 -0.0935 -0.0341 -0.1232
    4BIM    C2027645   6.008   7.769   1.446 -0.0638 -0.0037 -0.1089
    4BIM    C2127646   6.151   7.804   1.477 -0.0771  0.0440 -0.1019
    4BIM    C2227647   6.224   7.677   1.485 -0.0373  0.0678 -0.0864
    4BIM    C2327648   6.359   7.658   1.512 -0.0335  0.1127 -0.0756
    4BIM    C2427649   6.407   7.528   1.515  0.0075  0.1276 -0.0617
    4BIM    C2527650   6.320   7.420   1.491  0.0435  0.0984 -0.0589
    4BIM    C2627651   6.185   7.437   1.465  0.0396  0.0536 -0.0696
    4BIM    C2727652   6.136   7.569   1.461 -0.0017  0.0378 -0.0837
    4BIM    C2827653   5.999   7.621   1.436 -0.0165 -0.0073 -0.0975
    4BIM    C2927654   5.887   7.547   1.409  0.0089 -0.0449 -0.0992
    4BIM    C3027655   5.888   7.404   1.402  0.0545 -0.0454 -0.0875
    4BIM    C3127656   5.759   7.607   1.386 -0.0082 -0.0873 -0.1129
    5BIM     F127657   6.794   9.228   2.492 -0.2118 -0.1636  0.1640
    5BIM     F227658   6.795   9.499   2.469  0.2077 -0.1981 -0.2329
    5BIM     O127659   6.367   9.100   2.185 -0.4145  0.0460  0.3574
    5BIM     N527660   6.493   9.798   2.216  0.6660 -0.0982 -0.6654
    5BIM     N627661   6.159   9.644   1.980  0.4233  0.0722 -0.4342
    5BIM    C1927662   6.216   9.314   2.053 -0.0858  0.0875  0.0471
    5BIM    C2027663   6.324   9.335   2.131 -0.0511  0.0360  0.0139
    5BIM    C2127664   6.396   9.220   2.196 -0.2283  0.0179  0.1811
    5BIM    C2227665   6.507   9.279   2.273 -0.1367 -0.0398  0.0941
    5BIM    C2327666   6.601   9.211   2.350 -0.2397 -0.0741  0.1912
    5BIM    C2427667   6.697   9.288   2.415 -0.1199 -0.1274  0.0775
    5BIM    C2527668   6.698   9.428   2.402  0.0961 -0.1446 -0.1270
    5BIM    C2627669   6.604   9.496   2.326  0.1999 -0.1106 -0.2248
    5BIM    C2727670   6.506   9.420   2.260  0.0812 -0.0572 -0.1121
    5BIM    C2827671   6.393   9.460   2.172  0.1425 -0.0110 -0.1695
    5BIM    C2927672   6.360   9.588   2.136  0.3405 -0.0119 -0.3569
    5BIM    C3027673   6.433   9.703   2.180  0.5188 -0.0594 -0.5258
    5BIM    C3127674   6.250   9.618   2.050  0.3850  0.0343 -0.3984
    1BTD     S227675   5.534   8.834   8.195 -0.0528  0.1620  0.1651
    1BTD     N127676   5.631   8.691   8.243 -0.0246  0.1507  0.0751
    1BTD     N227677   5.662   8.954   8.237 -0.0163  0.1502  0.0861
    1BTD     N327678   6.099   8.938   8.408  0.1088  0.1061 -0.2358
    1BTD     N427679   6.061   8.615   8.416  0.0987  0.1066 -0.2489
    1BTD     C527680   5.856   8.655   8.334  0.0401  0.1278 -0.0935
    1BTD     C627681   5.748   8.737   8.286  0.0088  0.1395 -0.0045
    1BTD     C727682   5.765   8.884   8.282  0.0135  0.1392  0.0017
    1BTD     C827683   5.890   8.942   8.326  0.0490  0.1273 -0.0820
    1BTD    C1527684   5.992   8.858   8.372  0.0786  0.1161 -0.1682
    1BTD    C1627685   5.976   8.716   8.376  0.0741  0.1162 -0.1742
    1BTD    C4327686   6.208   8.623   8.419  0.1456  0.0419  0.5367
    1BTD    C4427687   6.307   8.527   8.489 -0.5492 -0.3556 -0.3702
    1BTD    C4527688   6.312   8.573   8.634 -0.0533 -0.3862  0.5811
    1BTD    C4627689   6.384   8.507   8.748 -0.1770 -0.1261 -0.2680
    1BTD    C4727690   6.441   8.510   8.412 -0.5954  0.1778  0.4111
    1BTD    C4827691   6.543   8.410   8.467  0.0007  0.0909 -0.4690
    1BTD    C4927692   6.506   8.258   8.461 -0.1750 -0.1157  0.1038
    1BTD    C5027693   6.603   8.157   8.525 -0.5972  0.8295 -0.1078
    1BTD    C7527694   6.179   8.929   8.531 -0.0454  0.3073  0.4843
    1BTD    C7627695   6.329   8.972   8.549 -0.0611  0.0581 -1.0512
    1BTD    C7727696   6.374   8.963   8.698 -0.0035  0.1804 -0.0569
    1BTD    C7827697   6.301   9.051   8.800  0.4486  0.0297 -0.1058
    1BTD    C7927698   6.417   8.909   8.441  0.0065 -0.2214 -0.6294
    1BTD    C8027699   6.566   8.944   8.442 -0.4828 -0.0823 -0.4957
    1BTD    C8127700   6.657   8.844   8.363 -0.9123  0.4572 -0.8937
    1BTD    C8227701   6.805   8.878   8.377  0.0217  0.0134 -0.1131
    2TTP     S127702   5.757   8.378   8.373 -0.1115  0.0180  0.5293
    2TTP     S527703   6.133   8.272   8.552  0.2264 -0.0548 -0.2162
    2TTP     C127704   6.018   8.132   8.571  0.2211 -0.0140  0.0548
    2TTP     C227705   5.895   8.157   8.517  0.1165  0.0105  0.3006
    2TTP     C327706   5.887   8.287   8.458  0.0366 -0.0014  0.2844
    2TTP     C427707   5.872   8.518   8.354 -0.1063 -0.0229  0.2587
    2TTP    C1727708   5.994   8.493   8.408 -0.0017 -0.0474  0.0127
    2TTP    C1827709   6.002   8.363   8.467  0.0781 -0.0353  0.0288
    2TTP    C3227710   5.775   8.067   8.528 -0.5414 -0.2602 -0.1698
    2TTP    C3327711   5.755   7.990   8.399  0.2246 -0.8620  0.9158
    2TTP    C3427712   5.607   7.931   8.396 -0.1139 -0.9786  0.0487
    2TTP    C3527713   5.574   7.848   8.274 -0.0934 -0.1826 -0.3409
    2TTP    C3627714   5.435   7.795   8.277  0.5715 -0.4096 -0.4241
    2TTP    C3727715   5.354   7.849   8.159 -0.2869  0.4288  0.5823
    2TTP    C3827716   5.224   7.769   8.137  0.4801 -0.1726 -0.4474
    2TTP    C3927717   5.132   7.809   8.023 -0.1645  0.1169 -0.0669
    2TTP    C4027718   5.089   7.958   7.996  0.3728 -0.2336  0.0991
    2TTP    C4127719   4.983   7.980   7.884  0.6232 -0.2555  0.3237
    2TTP    C4227720   4.958   8.127   7.859  0.5335  0.0084  0.6002
    3TTP     S127721   5.875   9.247   8.295 -0.0618 -0.0332  0.2163
    3TTP     S527722   6.270   9.273   8.465 -0.0169  0.1068  0.0899
    3TTP     C127723   6.210   9.442   8.430 -0.0331  0.0793 -0.0170
    3TTP     C227724   6.085   9.443   8.376 -0.0479  0.0341  0.0157
    3TTP     C327725   6.031   9.312   8.359 -0.0471  0.0200  0.1266
    3TTP     C427726   5.935   9.078   8.330 -0.0457 -0.0055  0.3233
    3TTP    C1727727   6.060   9.077   8.384 -0.0310  0.0390  0.2905
    3TTP    C1827728   6.114   9.208   8.401 -0.0317  0.0534  0.1798
    3TTP    C3227729   6.002   9.564   8.333  0.3348  0.0970 -0.2238
    3TTP    C3327730   5.951   9.577   8.185 -0.5122  0.5135 -0.2659
    3TTP    C3427731   6.047   9.642   8.085 -0.1022 -0.0172  0.6374
    3TTP    C3527732   6.090   9.782   8.088 -0.5609 -0.3404  0.0806
    3TTP    C3627733   6.163   9.828   7.955  0.1342  0.0950 -1.3354
    3TTP    C3727734   6.214   9.968   7.965 -0.0650 -0.5623 -0.3449
    3TTP    C3827735   6.304  10.008   8.077 -0.0607  0.1345 -0.8097
    3TTP    C3927736   6.451   9.960   8.090 -0.0752 -0.7245  0.6967
    3TTP    C4027737   6.544   9.989   7.976  0.0577  0.7430  0.4184
    3TTP    C4127738   6.676   9.919   8.006  0.2975 -0.1710 -0.7843
    3TTP    C4227739   6.787   9.940   7.904 -0.2323 -0.4315 -0.1795
    4BIM     F127740   6.675   7.874   8.974  0.1065 -0.0583  0.0784
    4BIM     F227741   6.592   7.618   8.935 -0.0018 -0.0206  0.0587
    4BIM     O127742   6.269   8.149   8.744  0.2141  0.1316  0.1147
    4BIM     N527743   6.184   7.445   8.715 -0.0808  0.1690  0.0560
    4BIM     N627744   5.883   7.711   8.543  0.0249  0.3096  0.0882
    4BIM    C1927745   6.046   8.001   8.625  0.1487  0.2347  0.1088
    4BIM    C2027746   6.151   7.942   8.684  0.1260  0.1857  0.1006
    4BIM    C2127747   6.262   8.025   8.743  0.1624  0.1345  0.1042
    4BIM    C2227748   6.360   7.930   8.799  0.1243  0.0887  0.0930
    4BIM    C2327749   6.479   7.959   8.864  0.1388  0.0330  0.0918
    4BIM    C2427750   6.555   7.852   8.909  0.0953 -0.0028  0.0803
    4BIM    C2527751   6.513   7.720   8.889  0.0397  0.0169  0.0701
    4BIM    C2627752   6.394   7.690   8.824  0.0249  0.0720  0.0710
    4BIM    C2727753   6.315   7.797   8.778  0.0683  0.1091  0.0827
    4BIM    C2827754   6.185   7.799   8.707  0.0670  0.1695  0.0868
    4BIM    C2927755   6.111   7.690   8.669  0.0201  0.2041  0.0796
    4BIM    C3027756   6.151   7.556   8.694 -0.0353  0.1847  0.0668
    4BIM    C3127757   5.986   7.702   8.600  0.0231  0.2620  0.0844
    5BIM     F127758   7.011   9.573   8.314  0.0107  0.0546  0.0947
    5BIM     F227759   6.967   9.840   8.347  0.1390  0.0246  0.5178
    5BIM     O127760   6.510   9.378   8.379 -0.1074  0.2060 -0.3610
    5BIM     N527761   6.547  10.084   8.441  0.2393  0.0893  0.8016
    5BIM     N627762   6.164   9.878   8.484  0.1208  0.2135  0.3605
    5BIM    C1927763   6.290   9.564   8.433 -0.0271  0.2310 -0.1182
    5BIM    C2027764   6.418   9.602   8.416 -0.0020  0.1941 -0.0200
    5BIM    C2127765   6.525   9.501   8.388 -0.0466  0.1836 -0.1562
    5BIM    C2227766   6.651   9.576   8.374 -0.0042  0.1414  0.0012
    5BIM    C2327767   6.778   9.526   8.348 -0.0232  0.1183 -0.0470
    5BIM    C2427768   6.883   9.617   8.340  0.0261  0.0791  0.1303
    5BIM    C2527769   6.860   9.754   8.357  0.0923  0.0637  0.3480
    5BIM    C2627770   6.734   9.805   8.383  0.1115  0.0866  0.3972
    5BIM    C2727771   6.627   9.715   8.392  0.0622  0.1263  0.2203
    5BIM    C2827772   6.482   9.736   8.418  0.0660  0.1581  0.2158
    5BIM    C2927773   6.420   9.857   8.440  0.1222  0.1547  0.3958
    5BIM    C3027774   6.490   9.981   8.440  0.1863  0.1188  0.6185
    5BIM    C3127775   6.280   9.868   8.464  0.1211  0.1871  0.3753
    1BTD     S227776   4.728   7.968   9.274  0.0791  0.2964 -0.2444
    1BTD     N127777   4.641   7.812   9.253  0.3195  0.2059 -0.5801
    1BTD     N227778   4.597   8.067   9.201 -0.1327  0.2704  0.0951
    1BTD     N327779   4.174   7.989   9.014 -0.1309  0.0536  0.1812
    1BTD     N427780   4.227   7.674   9.077  0.4262 -0.0259 -0.6509
    1BTD     C527781   4.424   7.744   9.160  0.3684  0.0858 -0.6070
    1BTD     C627782   4.525   7.841   9.195  0.2335  0.1631 -0.4296
    1BTD     C727783   4.500   7.984   9.166 -0.0194  0.1992 -0.0515
    1BTD     C827784   4.377   8.023   9.104 -0.1251  0.1562  0.1299
    1BTD    C1527785   4.281   7.925   9.072  0.0138  0.0808 -0.0543
    1BTD    C1627786   4.305   7.787   9.099  0.2574  0.0461 -0.4188
    1BTD    C4327787   4.127   7.655   8.966 -0.7095  0.1181  0.2672
    1BTD    C4427788   4.178   7.605   8.828 -0.3545  0.8256 -0.1014
    1BTD    C4527789   4.298   7.688   8.779  0.2399  0.0165  0.6517
    1BTD    C4627790   4.369   7.655   8.650  1.0490 -0.4068 -0.2245
    1BTD    C4727791   4.068   7.599   8.726  0.6130  0.1281  0.1016
    1BTD    C4827792   3.947   7.511   8.743  0.3045  0.5434  0.3958
    1BTD    C4927793   3.982   7.363   8.750 -0.0535 -0.4345 -0.2680
    1BTD    C5027794   3.859   7.284   8.761  0.0188  0.2134  0.5261
    1BTD    C7527795   4.033   7.945   9.035  0.4987 -0.6874  0.6762
    1BTD    C7627796   3.906   7.984   8.955 -0.5399  0.1923 -0.2601
    1BTD    C7727797   3.904   7.935   8.813  0.6838 -0.1559 -0.0117
    1BTD    C7827798   3.806   7.995   8.714  0.3539 -0.6683 -0.2727
    1BTD    C7927799   3.772   7.962   9.026 -0.5001 -0.6265  0.3005
    1BTD    C8027800   3.752   8.056   9.149  0.0257 -0.0411 -0.1192
    1BTD    C8127801   3.756   8.206   9.122 -0.2213  0.3648  0.2433
    1BTD    C8227802   3.751   8.286   9.251 -0.0663  0.6385  0.9868
    2TTP     S127803   4.515   7.461   9.235 -0.0890 -0.0007  0.4109
    2TTP     S527804   4.160   7.302   9.052  0.0535  0.2146 -0.0546
    2TTP     C127805   4.264   7.163   9.106 -0.0581  0.1510 -0.0012
    2TTP     C227806   4.380   7.204   9.165 -0.1088  0.0808  0.1459
    2TTP     C327807   4.391   7.347   9.171 -0.0612  0.0747  0.2213
    2TTP     C427808   4.411   7.600   9.181  0.0228  0.0628  0.3574
    2TTP    C1727809   4.295   7.559   9.121  0.0733  0.1330  0.2103
    2TTP    C1827810   4.284   7.417   9.116  0.0256  0.1392  0.1347
    2TTP    C3227811   4.478   7.116   9.225 -0.4673  0.5107  0.1212
    2TTP    C3327812   4.622   7.120   9.175  0.0474 -0.1004  0.2964
    2TTP    C3427813   4.708   7.025   9.256 -0.0253 -0.1590 -0.3501
    2TTP    C3527814   4.842   6.989   9.203  0.0830 -0.0635  1.0672
    2TTP    C3627815   4.942   6.930   9.299  0.5475  0.7135 -0.3017
    2TTP    C3727816   5.084   6.923   9.243  0.7042 -0.0843  0.7114
    2TTP    C3827817   5.172   6.823   9.318  0.1414 -0.2690 -0.5817
    2TTP    C3927818   5.314   6.828   9.275 -0.2249  0.0677  0.7408
    2TTP    C4027819   5.406   6.717   9.342 -0.1808 -0.5112  0.7201
    2TTP    C4127820   5.380   6.570   9.304 -0.3623 -0.2397  0.0714
    2TTP    C4227821   5.479   6.464   9.358 -0.2357 -0.2846 -0.0192
    3TTP     S127822   4.406   8.300   9.005 -0.1773  0.0940  0.1228
    3TTP     S527823   4.037   8.255   8.788 -0.0714 -0.0525 -0.0269
    3TTP     C127824   4.118   8.409   8.734 -0.1650  0.0371  0.0868
    3TTP     C227825   4.237   8.432   8.798 -0.2031  0.0877  0.1397
    3TTP     C327826   4.268   8.329   8.892 -0.1600  0.0572  0.0923
    3TTP     C427827   4.325   8.146   9.059 -0.0838  0.0045  0.0091
    3TTP    C1727828   4.206   8.124   8.995 -0.0457 -0.0461 -0.0439
    3TTP    C1827829   4.175   8.227   8.901 -0.0888 -0.0157  0.0036
    3TTP    C3227830   4.334   8.552   8.778 -0.5607 -0.6239  0.2664
    3TTP    C3327831   4.330   8.667   8.882 -0.2820  0.0502  0.4373
    3TTP    C3427832   4.404   8.789   8.832  0.0509 -0.3108 -0.1256
    3TTP    C3527833   4.399   8.916   8.920  0.1911  0.1028 -0.4340
    3TTP    C3627834   4.263   8.980   8.949  0.0881  1.0515  0.0834
    3TTP    C3727835   4.261   9.084   9.060 -0.4034 -0.3107 -0.4420
    3TTP    C3827836   4.344   9.218   9.044  0.5474  0.6981 -0.0471
    3TTP    C3927837   4.362   9.305   9.169  0.0843  0.1924 -0.2520
    3TTP    C4027838   4.418   9.247   9.296 -0.2881 -0.5264 -0.9936
    3TTP    C4127839   4.404   9.327   9.422  0.0561 -0.3390 -0.6193
    3TTP    C4227840   4.455   9.252   9.543 -0.2138 -0.0409  0.0162
    4BIM     F127841   3.599   6.757   8.848 -0.0215  0.0774 -0.2649
    4BIM     F227842   3.750   6.531   8.829 -0.2809 -0.1709  0.5069
    4BIM     O127843   3.966   7.110   9.032  0.1330  0.0188 -0.4609
    4BIM     N527844   4.229   6.459   8.931 -0.5437 -0.5692  1.4770
    4BIM     N627845   4.485   6.780   9.078 -0.3707 -0.5648  1.1685
    4BIM    C1927846   4.241   7.020   9.078 -0.0601 -0.2388  0.2072
    4BIM    C2027847   4.143   6.940   9.033 -0.0888 -0.2146  0.2260
    4BIM    C2127848   4.004   6.993   9.012  0.0159 -0.0793 -0.1299
    4BIM    C2227849   3.923   6.881   8.962 -0.0483 -0.0873 -0.0074
    4BIM    C2327850   3.788   6.882   8.928  0.0091  0.0135 -0.2365
    4BIM    C2427851   3.732   6.763   8.884 -0.0716 -0.0175 -0.0559
    4BIM    C2527852   3.810   6.647   8.873 -0.2054 -0.1455  0.3422
    4BIM    C2627853   3.945   6.645   8.907 -0.2630 -0.2464  0.5724
    4BIM    C2727854   4.003   6.764   8.952 -0.1830 -0.2168  0.3946
    4BIM    C2827855   4.141   6.796   8.995 -0.2131 -0.3002  0.5541
    4BIM    C2927856   4.248   6.709   9.000 -0.3334 -0.4317  0.9327
    4BIM    C3027857   4.237   6.572   8.962 -0.4487 -0.5068  1.2307
    4BIM    C3127858   4.378   6.748   9.043 -0.3533 -0.5041  1.0605
    5BIM     F127859   3.379   8.572   8.423  0.0544 -0.0527 -0.0143
    5BIM     F227860   3.496   8.752   8.255  0.1004  0.0699  0.1488
    5BIM     O127861   3.808   8.402   8.706 -0.0600 -0.0830  0.1411
    5BIM     N527862   3.970   8.889   8.216  0.0847  0.2246  0.4945
    5BIM     N627863   4.282   8.720   8.471 -0.0139  0.1764  0.5834
    5BIM    C1927864   4.072   8.513   8.646 -0.0568  0.0235  0.3527
    5BIM    C2027865   3.960   8.549   8.582 -0.0298  0.0265  0.3071
    5BIM    C2127866   3.828   8.488   8.618 -0.0335 -0.0303  0.1984
    5BIM    C2227867   3.727   8.548   8.529  0.0005 -0.0112  0.1729
    5BIM    C2327868   3.590   8.523   8.525  0.0097 -0.0479  0.0808
    5BIM    C2427869   3.515   8.593   8.432  0.0435 -0.0194  0.0747
    5BIM    C2527870   3.576   8.685   8.346  0.0672  0.0440  0.1586
    5BIM    C2627871   3.712   8.711   8.349  0.0580  0.0808  0.2513
    5BIM    C2727872   3.790   8.641   8.443  0.0240  0.0525  0.2584
    5BIM    C2827873   3.935   8.645   8.472  0.0063  0.0784  0.3443
    5BIM    C2927874   4.029   8.724   8.408  0.0207  0.1385  0.4401
    5BIM    C3027875   3.996   8.814   8.303  0.0557  0.1857  0.4694
    5BIM    C3127876   4.168   8.721   8.443  0.0015  0.1590  0.5186
    1BTD     S227877   7.110   1.772   8.038  0.0477  0.0587  0.0378
    1BTD     N127878   6.971   1.725   7.934  0.1653 -0.0157 -0.0865
    1BTD     N227879   7.115   1.616   8.128 -0.0443  0.1174  0.1440
    1BTD     N327880   6.872   1.214   8.125 -0.0201  0.1028  0.1354
    1BTD     N427881   6.695   1.348   7.886  0.2384 -0.0612 -0.1485
    1BTD     C527882   6.829   1.526   7.912  0.2003 -0.0375 -0.1153
    1BTD     C627883   6.937   1.602   7.970  0.1316  0.0059 -0.0447
    1BTD     C727884   7.017   1.541   8.079  0.0142  0.0805  0.0842
    1BTD     C827885   6.986   1.408   8.124 -0.0286  0.1078  0.1359
    1BTD    C1527886   6.879   1.338   8.063  0.0419  0.0633  0.0634
    1BTD    C1627887   6.802   1.396   7.959  0.1550 -0.0085 -0.0608
    1BTD    C4327888   6.687   1.217   7.820  0.2683  0.0662  0.5500
    1BTD    C4427889   6.573   1.145   7.745  0.0732 -0.0818 -0.5616
    1BTD    C4527890   6.626   1.031   7.651 -0.4706  1.0816 -0.3888
    1BTD    C4627891   6.675   0.897   7.728  0.0020 -0.4204 -0.1015
    1BTD    C4727892   6.454   1.102   7.839 -0.1021 -0.2866  0.0318
    1BTD    C4827893   6.332   1.022   7.785 -0.0667  0.2609 -0.0030
    1BTD    C4927894   6.239   0.968   7.897 -0.1273  0.0813  0.6019
    1BTD    C5027895   6.101   0.915   7.852  0.5751 -0.0074 -0.1297
    1BTD    C7527896   6.761   1.117   8.113 -0.8108  0.1343 -0.5634
    1BTD    C7627897   6.767   0.967   8.145 -0.5507 -0.3695  0.3316
    1BTD    C7727898   6.636   0.893   8.169  0.4743 -0.5866  0.6270
    1BTD    C7827899   6.545   0.941   8.286 -0.0523  0.2075  0.1600
    1BTD    C7927900   6.863   0.896   8.051 -0.3711  0.2007  0.1222
    1BTD    C8027901   6.959   0.781   8.092  0.3649 -0.0008 -0.1220
    1BTD    C8127902   7.021   0.705   7.978  0.2044 -0.4983  0.2257
    1BTD    C8227903   7.119   0.604   8.027  0.0936  0.0723  0.2529
    2TTP     S127904   6.665   1.714   7.744 -0.0260 -0.0505 -0.0022
    2TTP     S527905   6.359   1.413   7.733 -0.0197 -0.0433 -0.3824
    2TTP     C127906   6.293   1.566   7.659  0.1152 -0.0789 -0.5797
    2TTP     C227907   6.383   1.668   7.659  0.1212 -0.0833 -0.4739
    2TTP     C327908   6.509   1.629   7.716  0.0196 -0.0586 -0.2332
    2TTP     C427909   6.732   1.562   7.818 -0.1608 -0.0148  0.1950
    2TTP    C1727910   6.641   1.460   7.818 -0.1668 -0.0104  0.0893
    2TTP    C1827911   6.516   1.498   7.761 -0.0653 -0.0352 -0.1515
    2TTP    C3227912   6.362   1.805   7.584 -0.0381 -0.3713 -0.3603
    2TTP    C3327913   6.476   1.864   7.508  0.4343 -0.2556  0.8167
    2TTP    C3427914   6.453   2.004   7.443  0.2339  0.5004 -1.0482
    2TTP    C3527915   6.462   2.122   7.534  0.0663  0.5511 -0.5051
    2TTP    C3627916   6.462   2.246   7.445  0.4323 -0.0351 -0.0553
    2TTP    C3727917   6.473   2.373   7.525 -0.0168 -0.2559  0.2758
    2TTP    C3827918   6.515   2.491   7.429  0.3379 -0.1406  0.2074
    2TTP    C3927919   6.512   2.630   7.493 -0.3806  0.0181  1.0000
    2TTP    C4027920   6.638   2.673   7.573  0.1805  0.3414  0.2030
    2TTP    C4127921   6.762   2.703   7.482  0.5590  0.5439 -0.0461
    2TTP    C4227922   6.886   2.754   7.551  0.6541 -0.1111 -0.2170
    3TTP     S127923   7.167   1.340   8.351 -0.0765  0.0760  0.4514
    3TTP     S527924   6.931   0.988   8.424  0.0007 -0.1443 -0.3448
    3TTP     C127925   7.051   1.006   8.560 -0.4407 -0.0570  0.0389
    3TTP     C227926   7.131   1.116   8.545 -0.4907  0.0163  0.3076
    3TTP     C327927   7.100   1.190   8.427 -0.1820  0.0060  0.2196
    3TTP     C427928   7.047   1.321   8.216  0.3650 -0.0114  0.0677
    3TTP    C1727929   6.967   1.211   8.230  0.4148 -0.0846 -0.2009
    3TTP    C1827930   6.998   1.138   8.349  0.1062 -0.0743 -0.1132
    3TTP    C3227931   7.242   1.157   8.640 -0.2427 -0.3200 -0.1474
    3TTP    C3327932   7.372   1.136   8.568  0.1722 -0.1372 -0.9518
    3TTP    C3427933   7.488   1.177   8.657  0.7787 -0.3131 -0.4441
    3TTP    C3527934   7.629   1.199   8.595  0.1106  0.3433  0.3647
    3TTP    C3627935   7.709   1.080   8.537 -0.3521  0.1711 -0.6104
    3TTP    C3727936   7.703   0.947   8.616 -0.2501 -0.2268 -0.2411
    3TTP    C3827937   7.791   0.839   8.559  0.4013  0.2121 -0.1541
    3TTP    C3927938   7.776   0.706   8.629 -0.1937 -0.3469  0.2441
    3TTP    C4027939   7.885   0.601   8.592  0.2248 -0.1142 -0.3509
    3TTP    C4127940   8.027   0.636   8.623  0.1972  0.0564  0.0787
    3TTP    C4227941   8.126   0.520   8.594 -0.1672 -0.1833  0.0605
    4BIM     F127942   5.598   1.137   7.737  0.0817 -0.2114  0.2319
    4BIM     F227943   5.477   1.315   7.571  0.1186 -0.5243 -0.1346
    4BIM     O127944   6.097   1.345   7.764 -0.0380  0.0694  0.2840
    4BIM     N527945   5.658   1.720   7.352  0.0864 -0.7740 -0.6249
    4BIM     N627946   6.072   1.847   7.406 -0.0147 -0.4915 -0.5103
    4BIM    C1927947   6.158   1.590   7.615 -0.0452 -0.1298 -0.0478
    4BIM    C2027948   6.038   1.530   7.615 -0.0166 -0.1882 -0.0466
    4BIM    C2127949   6.014   1.405   7.694 -0.0149 -0.0782  0.1296
    4BIM    C2227950   5.873   1.367   7.671  0.0198 -0.1801  0.0821
    4BIM    C2327951   5.805   1.258   7.724  0.0333 -0.1321  0.2000
    4BIM    C2427952   5.672   1.243   7.689  0.0667 -0.2505  0.1232
    4BIM    C2527953   5.609   1.335   7.603  0.0856 -0.4116 -0.0658
    4BIM    C2627954   5.677   1.444   7.550  0.0721 -0.4604 -0.1842
    4BIM    C2727955   5.812   1.461   7.585  0.0385 -0.3422 -0.1090
    4BIM    C2827956   5.910   1.565   7.547  0.0169 -0.3536 -0.1956
    4BIM    C2927957   5.888   1.673   7.464  0.0263 -0.4912 -0.3790
    4BIM    C3027958   5.761   1.698   7.403  0.0592 -0.6462 -0.5134
    4BIM    C3127959   5.989   1.768   7.433  0.0037 -0.4906 -0.4501
    5BIM     F127960   6.777   0.249   8.709  0.6301 -0.0503  0.0052
    5BIM     F227961   6.849   0.282   8.970  0.0631  0.1576  0.1366
    5BIM     O127962   6.945   0.718   8.497  0.6207 -0.0042  0.0997
    5BIM     N527963   7.071   0.664   9.193 -0.7585  0.4893  0.3936
    5BIM     N627964   7.187   1.024   8.975 -0.6517  0.4835  0.4411
    5BIM    C1927965   7.073   0.916   8.671  0.0758  0.2108  0.2593
    5BIM    C2027966   7.028   0.797   8.714  0.1001  0.1910  0.2301
    5BIM    C2127967   6.963   0.700   8.619  0.3879  0.0783  0.1476
    5BIM    C2227968   6.926   0.582   8.698  0.3377  0.0856  0.1349
    5BIM    C2327969   6.864   0.466   8.653  0.5401  0.0019  0.0677
    5BIM    C2427970   6.839   0.366   8.747  0.4415  0.0285  0.0697
    5BIM    C2527971   6.876   0.384   8.881  0.1494  0.1356  0.1377
    5BIM    C2627972   6.938   0.499   8.926 -0.0536  0.2196  0.2055
    5BIM    C2727973   6.964   0.601   8.833  0.0420  0.1942  0.2046
    5BIM    C2827974   7.028   0.734   8.848 -0.1158  0.2633  0.2654
    5BIM    C2927975   7.078   0.788   8.964 -0.4061  0.3732  0.3402
    5BIM    C3027976   7.074   0.719   9.090 -0.5990  0.4366  0.3695
    5BIM    C3127977   7.138   0.917   8.969 -0.5395  0.4332  0.3953
    1BTD     S227978   2.349   0.111   0.951 -0.1540  0.0408  0.2644
    1BTD     N127979   2.492   0.043   1.037 -0.2887  0.0643  0.5082
    1BTD     N227980   2.398   0.283   0.976  0.0333  0.0423 -0.0927
    1BTD     N327981   2.754   0.509   1.183  0.1717  0.0878 -0.3804
    1BTD     N427982   2.870   0.214   1.257 -0.2251  0.1149  0.3602
    1BTD     C527983   2.688   0.136   1.151 -0.2507  0.0904  0.4220
    1BTD     C627984   2.564   0.146   1.078 -0.1921  0.0716  0.3206
    1BTD     C727985   2.512   0.280   1.044 -0.0119  0.0593 -0.0158
    1BTD     C827986   2.585   0.397   1.085  0.1008  0.0664 -0.2339
    1BTD    C1527987   2.705   0.382   1.156  0.0378  0.0848 -0.1240
    1BTD    C1627988   2.756   0.253   1.189 -0.1358  0.0966  0.2001
    1BTD    C4327989   2.910   0.282   1.385  0.6609  0.1871 -0.0340
    1BTD    C4427990   3.031   0.257   1.475  0.2702  0.0154 -0.3695
    1BTD    C4527991   3.164   0.293   1.409 -0.3365  0.6190 -0.1589
    1BTD    C4627992   3.192   0.442   1.384  0.5307  0.0239 -0.1077
    1BTD    C4727993   2.983   0.318   1.612 -0.3352 -0.2862 -0.6533
    1BTD    C4827994   3.089   0.342   1.721 -0.4451  0.0665  0.6723
    1BTD    C4927995   3.035   0.417   1.839 -0.2996 -0.0388  0.0673
    1BTD    C5027996   3.151   0.464   1.922 -0.5195  0.4858  0.1203
    1BTD    C7527997   2.899   0.558   1.192  0.2153 -0.0859 -0.1494
    1BTD    C7627998   2.957   0.619   1.062  0.0909 -0.1306  0.0803
    1BTD    C7727999   2.934   0.529   0.944 -0.4126  0.3413 -0.2421
    1BTD    C7828000   2.947   0.575   0.801  0.3979  0.0684  0.3001
    1BTD    C7928001   3.096   0.697   1.059  0.3086  0.0680  0.4017
    1BTD    C8028002   3.134   0.804   1.151 -0.2295 -0.2801 -0.3629
    1BTD    C8128003   3.027   0.907   1.183 -0.3980 -0.6660 -0.0803
    1BTD    C8228004   3.080   1.010   1.287  0.1661 -0.4641  0.0399
    2TTP     S128005   2.766  -0.153   1.163  0.1729  0.0986 -0.1530
    2TTP     S528006   3.110  -0.045   1.398  0.1596 -0.2849  0.0450
    2TTP     C128007   3.106  -0.226   1.381 -0.0698 -0.2859  0.0998
    2TTP     C228008   3.000  -0.270   1.307 -0.0793 -0.1674  0.0419
    2TTP     C328009   2.917  -0.163   1.262  0.0944 -0.0720 -0.0479
    2TTP     C428010   2.770   0.028   1.180  0.4024  0.0994 -0.2078
    2TTP    C1728011   2.877   0.072   1.253  0.4118 -0.0192 -0.1499
    2TTP    C1828012   2.959  -0.036   1.299  0.2382 -0.1144 -0.0601
    2TTP    C3228013   2.970  -0.415   1.275  0.2932 -0.7716  0.1422
    2TTP    C3328014   2.834  -0.464   1.326 -0.2146 -0.3270 -0.5761
    2TTP    C3428015   2.823  -0.621   1.325 -0.1925 -0.0579 -0.0037
    2TTP    C3528016   2.683  -0.672   1.364 -0.0637  0.4057 -0.4393
    2TTP    C3628017   2.667  -0.824   1.370 -0.4359  0.8243  0.2500
    2TTP    C3728018   2.514  -0.843   1.400 -0.2926 -0.2797 -0.9281
    2TTP    C3828019   2.486  -0.989   1.403  0.1849 -0.3799 -0.2076
    2TTP    C3928020   2.340  -1.011   1.432  0.4234 -0.2158  0.3893
    2TTP    C4028021   2.289  -1.152   1.483  0.4725 -1.0643  0.0129
    2TTP    C4128022   2.329  -1.183   1.628 -0.1004 -0.0755 -0.1405
    2TTP    C4228023   2.272  -1.310   1.688  0.2634  0.4433  0.5140
    3TTP     S128024   2.409   0.643   1.056  0.1544 -0.0185 -0.0438
    3TTP     S528025   2.688   0.857   1.305 -0.0106 -0.0169  0.1403
    3TTP     C128026   2.539   0.959   1.283 -0.0041 -0.0252  0.0567
    3TTP     C228027   2.444   0.899   1.205  0.0471 -0.0262 -0.0051
    3TTP     C328028   2.486   0.770   1.160  0.0833 -0.0204  0.0114
    3TTP     C428029   2.558   0.540   1.078  0.1479 -0.0102  0.0398
    3TTP    C1728030   2.653   0.600   1.156  0.0967 -0.0092  0.1016
    3TTP    C1828031   2.611   0.729   1.201  0.0606 -0.0149  0.0852
    3TTP    C3228032   2.303   0.939   1.161 -0.2797 -0.6764 -0.0055
    3TTP    C3328033   2.280   0.964   1.007  0.4049 -0.1187 -0.2267
    3TTP    C3428034   2.357   1.085   0.951  0.4704  0.0212 -0.4496
    3TTP    C3528035   2.331   1.121   0.801  0.5376 -1.0927 -0.7687
    3TTP    C3628036   2.356   1.023   0.686 -0.3710 -0.6450  0.2714
    3TTP    C3728037   2.499   0.985   0.667  0.0101 -0.4944 -0.1270
    3TTP    C3828038   2.507   0.900   0.546 -0.7371  1.0217  0.0451
    3TTP    C3928039   2.622   0.803   0.550 -0.5945 -0.8690 -0.1804
    3TTP    C4028040   2.612   0.680   0.456  0.0343  0.2598  0.3009
    3TTP    C4128041   2.744   0.601   0.440 -0.4177  0.0379  0.1038
    3TTP    C4228042   2.704   0.495   0.342 -0.4944  0.2890  0.1178
    4BIM     F128043   3.907  -0.165   1.551 -0.1785  0.1357  0.0714
    4BIM     F228044   3.905  -0.426   1.625 -0.0569  0.0703 -0.1557
    4BIM     O128045   3.391  -0.097   1.401 -0.2365  0.0565  0.2351
    4BIM     N528046   3.535  -0.754   1.626  0.0768 -0.0808 -0.3656
    4BIM     N628047   3.132  -0.649   1.494  0.0069 -0.1297 -0.1920
    4BIM    C1928048   3.206  -0.323   1.420 -0.1408 -0.0346  0.0762
    4BIM    C2028049   3.336  -0.330   1.454 -0.1310 -0.0122  0.0439
    4BIM    C2128050   3.425  -0.209   1.442 -0.1824  0.0346  0.1306
    4BIM    C2228051   3.559  -0.251   1.488 -0.1560  0.0491  0.0671
    4BIM    C2328052   3.674  -0.174   1.495 -0.1862  0.0899  0.1109
    4BIM    C2428053   3.789  -0.235   1.541 -0.1516  0.0960  0.0339
    4BIM    C2528054   3.788  -0.370   1.580 -0.0890  0.0623 -0.0831
    4BIM    C2628055   3.673  -0.448   1.573 -0.0587  0.0215 -0.1274
    4BIM    C2728056   3.556  -0.387   1.526 -0.0929  0.0143 -0.0508
    4BIM    C2828057   3.419  -0.441   1.507 -0.0749 -0.0241 -0.0697
    4BIM    C2928058   3.377  -0.569   1.533 -0.0174 -0.0644 -0.1727
    4BIM    C3028059   3.464  -0.671   1.584  0.0342 -0.0732 -0.2784
    4BIM    C3128060   3.242  -0.612   1.511 -0.0044 -0.0999 -0.1827
    5BIM     F128061   2.924   1.445   1.820  0.0837 -0.1651  0.1017
    5BIM     F228062   2.711   1.615   1.809  0.2320  0.0155  0.0168
    5BIM     O128063   2.764   1.059   1.475 -0.1073 -0.0297  0.0382
    5BIM     N528064   2.292   1.584   1.547  0.3092  0.3716 -0.1505
    5BIM     N628065   2.210   1.248   1.281  0.1301  0.4409 -0.1830
    5BIM    C1928066   2.504   1.084   1.343 -0.0335  0.1909 -0.0655
    5BIM    C2028067   2.553   1.175   1.430  0.0089  0.1497 -0.0462
    5BIM    C2128068   2.687   1.155   1.494 -0.0334  0.0356  0.0075
    5BIM    C2228069   2.709   1.271   1.582  0.0299  0.0171  0.0161
    5BIM    C2328070   2.819   1.297   1.663  0.0200 -0.0767  0.0602
    5BIM    C2428071   2.818   1.414   1.738  0.0891 -0.0750  0.0594
    5BIM    C2528072   2.708   1.501   1.732  0.1655  0.0182  0.0156
    5BIM    C2628073   2.597   1.476   1.652  0.1757  0.1121 -0.0286
    5BIM    C2728074   2.598   1.358   1.575  0.1065  0.1119 -0.0284
    5BIM    C2828075   2.497   1.302   1.481  0.0966  0.1971 -0.0684
    5BIM    C2928076   2.376   1.359   1.448  0.1572  0.3001 -0.1169
    5BIM    C3028077   2.330   1.482   1.503  0.2406  0.3390 -0.1352
    5BIM    C3128078   2.285   1.298   1.356  0.1419  0.3770 -0.1530
    1BTD     S228079   8.288   2.266   3.938 -0.1062 -0.1024  0.0411
    1BTD     N128080   8.149   2.231   3.830 -0.0629 -0.1141 -0.0104
    1BTD     N228081   8.350   2.097   3.937 -0.0684 -0.0886  0.0305
    1BTD     N328082   8.225   1.690   3.740  0.0861 -0.0812 -0.0836
    1BTD     N428083   7.977   1.854   3.608  0.0929 -0.1126 -0.1340
    1BTD     C528084   8.062   2.032   3.716  0.0181 -0.1130 -0.0744
    1BTD     C628085   8.156   2.102   3.800 -0.0246 -0.1073 -0.0316
    1BTD     C728086   8.268   2.027   3.860 -0.0274 -0.0930 -0.0087
    1BTD     C828087   8.282   1.886   3.833  0.0124 -0.0851 -0.0297
    1BTD    C1528088   8.188   1.823   3.749  0.0541 -0.0910 -0.0716
    1BTD    C1628089   8.080   1.895   3.691  0.0566 -0.1048 -0.0936
    1BTD    C4328090   7.994   1.759   3.496  0.6806 -0.2307  0.1485
    1BTD    C4428091   7.877   1.673   3.448  0.1831 -0.2876  0.1635
    1BTD    C4528092   7.898   1.571   3.335  0.3951 -0.7709  0.7675
    1BTD    C4628093   7.968   1.626   3.214 -0.3575 -1.0504 -0.3112
    1BTD    C4728094   7.793   1.618   3.568  0.2926 -0.0995 -0.3726
    1BTD    C4828095   7.657   1.534   3.548 -0.3715  0.0807  0.6064
    1BTD    C4928096   7.563   1.577   3.433  0.9469 -0.3503 -0.2437
    1BTD    C5028097   7.440   1.470   3.425  0.0834 -0.7150  0.6638
    1BTD    C7528098   8.129   1.574   3.720  0.6879 -0.0835 -0.5788
    1BTD    C7628099   8.164   1.440   3.655 -0.3870  0.5530  0.6684
    1BTD    C7728100   8.058   1.328   3.655  0.0761 -0.0569  0.3655
    1BTD    C7828101   8.032   1.267   3.791 -0.1008 -0.2913 -0.0741
    1BTD    C7928102   8.232   1.464   3.516  0.1573 -0.1509  0.0259
    1BTD    C8028103   8.276   1.340   3.436 -0.1925  0.2430 -0.0288
    1BTD    C8128104   8.346   1.389   3.308 -0.0443 -0.3936  0.5058
    1BTD    C8228105   8.375   1.264   3.225 -0.3498  0.2380 -0.1650
    2TTP     S128106   7.866   2.231   3.609 -0.1874 -0.0462  0.1755
    2TTP     S528107   7.691   1.921   3.366  0.3723  0.0948 -0.4131
    2TTP     C128108   7.606   2.078   3.330  0.0225 -0.0056 -0.0429
    2TTP     C228109   7.655   2.183   3.403 -0.1712 -0.0552  0.1607
    2TTP     C328110   7.761   2.143   3.490 -0.0498 -0.0155  0.0316
    2TTP     C428111   7.951   2.074   3.645  0.1625  0.0542 -0.1948
    2TTP    C1728112   7.902   1.969   3.572  0.3560  0.1038 -0.3983
    2TTP    C1828113   7.795   2.009   3.485  0.2350  0.0641 -0.2693
    2TTP    C3228114   7.608   2.331   3.401  0.7750 -0.3845 -0.2585
    2TTP    C3328115   7.538   2.379   3.531 -0.0243  0.3413 -0.3354
    2TTP    C3428116   7.508   2.530   3.527  0.4601  0.2518  0.1503
    2TTP    C3528117   7.385   2.569   3.448 -0.7251 -0.4370  0.2219
    2TTP    C3628118   7.351   2.719   3.445  0.5140  0.0246 -0.0022
    2TTP    C3728119   7.214   2.751   3.396  0.8070 -1.0890 -0.4468
    2TTP    C3828120   7.173   2.898   3.425  0.5391  0.1246 -0.0677
    2TTP    C3928121   7.041   2.936   3.353  0.3353  0.0658 -1.2455
    2TTP    C4028122   7.015   3.080   3.354  0.1722 -0.1738  0.4696
    2TTP    C4128123   7.087   3.172   3.250 -0.0336  0.4392 -0.3581
    2TTP    C4228124   7.063   3.319   3.280 -0.5229  0.5511 -0.2894
    3TTP     S128125   8.538   1.779   3.963  0.1186  0.0694 -0.0397
    3TTP     S528126   8.433   1.391   3.810  0.2849 -0.2054  0.5388
    3TTP     C128127   8.583   1.375   3.911  0.3284  0.0208  0.5118
    3TTP     C228128   8.625   1.494   3.964  0.2794  0.1190  0.3316
    3TTP     C328129   8.539   1.602   3.927  0.2060  0.0191  0.2083
    3TTP     C428130   8.388   1.795   3.862  0.0751 -0.1568 -0.0127
    3TTP    C1728131   8.346   1.677   3.809  0.1239 -0.2550  0.1675
    3TTP    C1828132   8.432   1.568   3.846  0.1974 -0.1552  0.2908
    3TTP    C3228133   8.744   1.514   4.061 -0.6353  0.3191  0.1607
    3TTP    C3328134   8.839   1.625   4.033 -0.3672  0.4985 -0.2972
    3TTP    C3428135   8.903   1.628   3.889  0.2348  0.0537 -0.2787
    3TTP    C3528136   9.012   1.534   3.845  0.1599 -0.0760  0.7294
    3TTP    C3628137   9.158   1.553   3.892  0.0713 -0.1986  0.2583
    3TTP    C3728138   9.210   1.535   4.032  0.2964  0.7476 -0.0876
    3TTP    C3828139   9.346   1.591   4.051  0.3368 -0.1186  0.0910
    3TTP    C3928140   9.399   1.594   4.191 -0.4752 -0.1540 -0.0058
    3TTP    C4028141   9.548   1.652   4.214  0.6473 -0.2084 -0.1180
    3TTP    C4128142   9.582   1.670   4.363 -0.5168  0.6409  0.0718
    3TTP    C4228143   9.721   1.721   4.385  0.4153 -0.2586  0.1641
    4BIM     F128144   7.378   1.650   2.679  0.2592  0.2865 -0.1991
    4BIM     F228145   7.143   1.788   2.679  0.0449 -0.0735  0.0760
    4BIM     O128146   7.635   1.886   3.093  0.2189  0.4062 -0.2422
    4BIM     N528147   6.989   2.155   2.974 -0.2917 -0.5059  0.4409
    4BIM     N628148   7.238   2.311   3.297 -0.2801 -0.3397  0.3518
    4BIM    C1928149   7.502   2.102   3.240 -0.0002  0.1048  0.0054
    4BIM    C2028150   7.447   2.037   3.136  0.0182  0.0887  0.0054
    4BIM    C2128151   7.521   1.927   3.065  0.1333  0.2500 -0.1260
    4BIM    C2228152   7.433   1.879   2.958  0.1240  0.1855 -0.0893
    4BIM    C2328153   7.458   1.778   2.866  0.2086  0.2860 -0.1770
    4BIM    C2428154   7.359   1.749   2.773  0.1795  0.1954 -0.1185
    4BIM    C2528155   7.238   1.821   2.773  0.0691  0.0099  0.0233
    4BIM    C2628156   7.212   1.922   2.865 -0.0157 -0.0913  0.1114
    4BIM    C2728157   7.311   1.952   2.959  0.0120 -0.0018  0.0540
    4BIM    C2828158   7.315   2.052   3.069 -0.0573 -0.0688  0.1180
    4BIM    C2928159   7.216   2.141   3.102 -0.1699 -0.2431  0.2551
    4BIM    C3028160   7.092   2.148   3.031 -0.2364 -0.3870  0.3569
    4BIM    C3128161   7.229   2.234   3.209 -0.2300 -0.2953  0.3075
    5BIM     F128162   8.273   0.626   3.969  0.0658  0.0622  0.0929
    5BIM     F228163   8.525   0.527   3.942  0.0310 -0.0048  0.0130
    5BIM     O128164   8.371   1.159   3.967  0.1967  0.0378 -0.0431
    5BIM     N528165   8.957   0.764   3.902  0.0739 -0.1187 -0.1988
    5BIM     N628166   8.983   1.200   3.906  0.1831 -0.1243 -0.2890
    5BIM    C1928167   8.647   1.253   3.940  0.2095 -0.0350 -0.1678
    5BIM    C2028168   8.612   1.123   3.942  0.1781 -0.0262 -0.1304
    5BIM    C2128169   8.468   1.082   3.956  0.1736  0.0118 -0.0669
    5BIM    C2228170   8.466   0.935   3.954  0.1364  0.0119 -0.0390
    5BIM    C2328171   8.355   0.851   3.964  0.1194  0.0410  0.0196
    5BIM    C2428172   8.378   0.714   3.959  0.0842  0.0346  0.0357
    5BIM    C2528173   8.508   0.664   3.945  0.0665  0.0001 -0.0055
    5BIM    C2628174   8.619   0.746   3.936  0.0832 -0.0292 -0.0640
    5BIM    C2728175   8.598   0.885   3.940  0.1187 -0.0231 -0.0811
    5BIM    C2828176   8.693   0.999   3.932  0.1435 -0.0480 -0.1390
    5BIM    C2928177   8.830   0.991   3.918  0.1364 -0.0842 -0.1907
    5BIM    C3028178   8.899   0.866   3.909  0.1023 -0.1030 -0.1950
    5BIM    C3128179   8.913   1.106   3.911  0.1621 -0.1061 -0.2444
    1BTD     S228180   9.166   5.145   5.759 -0.1147 -0.0725 -0.2952
    1BTD     N128181   8.992   5.189   5.756 -0.0949  0.0057 -0.2854
    1BTD     N228182   9.223   5.314   5.780 -0.0460 -0.1190 -0.1056
    1BTD     N328183   9.024   5.738   5.819  0.1287 -0.0727  0.2984
    1BTD     N428184   8.739   5.583   5.789  0.0684  0.0812  0.0769
    1BTD     C528185   8.863   5.396   5.774 -0.0088  0.0433 -0.0936
    1BTD     C628186   8.985   5.320   5.771 -0.0415 -0.0062 -0.1485
    1BTD     C728187   9.114   5.391   5.784 -0.0138 -0.0761 -0.0477
    1BTD     C828188   9.115   5.534   5.800  0.0446 -0.0931  0.1026
    1BTD    C1528189   8.993   5.604   5.803  0.0748 -0.0426  0.1515
    1BTD    C1628190   8.869   5.536   5.790  0.0479  0.0246  0.0546
    1BTD    C4328191   8.680   5.713   5.759 -0.5877  0.1423  0.2404
    1BTD    C4428192   8.655   5.749   5.605  0.1639  0.3284  0.0404
    1BTD    C4528193   8.594   5.890   5.583 -0.1187  0.4361  0.1424
    1BTD    C4628194   8.465   5.915   5.660  0.4816 -0.7242  0.1353
    1BTD    C4728195   8.785   5.718   5.524  0.6481 -0.6936 -0.0971
    1BTD    C4828196   8.779   5.709   5.375 -0.2588 -0.0226 -0.1221
    1BTD    C4928197   8.727   5.577   5.317 -0.0843  0.1477 -0.0366
    1BTD    C5028198   8.739   5.561   5.169  0.3178 -0.3531  0.7029
    1BTD    C7528199   8.949   5.840   5.883 -0.0430 -0.0532  0.2022
    1BTD    C7628200   8.963   5.867   6.036  1.1059 -0.2602  0.6968
    1BTD    C7728201   8.938   6.019   6.059 -0.2681  0.3789 -0.5607
    1BTD    C7828202   8.951   6.064   6.209  0.5538 -0.7897 -0.1614
    1BTD    C7928203   8.880   5.777   6.140 -0.4453  0.0966 -0.1505
    1BTD    C8028204   8.728   5.770   6.127  0.5211 -0.5814  0.1155
    1BTD    C8128205   8.678   5.685   6.241 -0.0279 -0.1322 -0.7372
    1BTD    C8228206   8.529   5.660   6.251 -0.3285 -0.0543 -0.1452
    2TTP     S128207   8.632   5.209   5.826 -0.0754  0.0574  0.0529
    2TTP     S528208   8.380   5.551   5.895 -0.0794  0.0359  0.1460
    2TTP     C128209   8.291   5.401   5.950 -0.0120  0.0377  0.2595
    2TTP     C228210   8.364   5.287   5.932 -0.0072  0.0443  0.2372
    2TTP     C328211   8.492   5.313   5.874 -0.0558  0.0484  0.1302
    2TTP     C428212   8.720   5.359   5.771 -0.1431  0.0554 -0.0604
    2TTP    C1728213   8.648   5.473   5.789 -0.1477  0.0487 -0.0382
    2TTP    C1828214   8.519   5.447   5.847 -0.0987  0.0448  0.0690
    2TTP    C3228215   8.314   5.140   5.940  0.0431 -0.0776 -0.2916
    2TTP    C3328216   8.387   5.028   6.015 -0.2274 -0.0226  0.1222
    2TTP    C3428217   8.350   4.881   5.998  0.7656  0.0504  0.3422
    2TTP    C3528218   8.197   4.853   6.011  0.1373 -0.6213  0.5287
    2TTP    C3628219   8.147   4.710   6.030  0.5903  0.0513 -0.5894
    2TTP    C3728220   7.995   4.714   5.997  0.3705  0.5771  0.1055
    2TTP    C3828221   7.898   4.792   6.092 -0.6457 -0.0390  0.0624
    2TTP    C3928222   7.753   4.787   6.059  0.3186 -0.5856  0.6654
    2TTP    C4028223   7.681   4.875   6.163 -0.0317 -0.4269  0.4716
    2TTP    C4128224   7.534   4.889   6.135  0.2547 -0.2341  0.2835
    2TTP    C4228225   7.444   4.980   6.220 -0.2906  0.4523  0.6619
    3TTP     S128226   9.402   5.646   5.781  0.1885  0.1309  0.2283
    3TTP     S528227   9.238   6.043   5.791 -0.3712 -0.0868 -0.2278
    3TTP     C128228   9.419   6.056   5.777 -0.3743  0.1527 -0.0654
    3TTP     C228229   9.480   5.934   5.773 -0.2017  0.2340  0.0852
    3TTP     C328230   9.387   5.826   5.781 -0.0608  0.1101  0.0775
    3TTP     C428231   9.221   5.633   5.795  0.1915 -0.1085  0.0658
    3TTP    C1728232   9.160   5.755   5.799  0.0189 -0.1896 -0.0848
    3TTP    C1828233   9.254   5.863   5.791 -0.1221 -0.0660 -0.0770
    3TTP    C3228234   9.634   5.909   5.756  0.4815  0.0529  0.0740
    3TTP    C3328235   9.702   5.839   5.874 -0.2311  0.2080  0.2698
    3TTP    C3428236   9.845   5.794   5.846  0.0531  0.0571  0.2674
    3TTP    C3528237   9.904   5.699   5.945  0.1473 -0.9913 -0.2132
    3TTP    C3628238   9.837   5.564   5.962  0.2861 -0.0005  0.1894
    3TTP    C3728239   9.921   5.473   6.054 -0.5474 -0.3003 -0.7256
    3TTP    C3828240  10.023   5.378   5.987 -0.0089 -0.6518  0.6438
    3TTP    C3928241   9.947   5.276   5.904  0.0858 -0.5279  0.0561
    3TTP    C4028242  10.043   5.171   5.856 -0.0188  0.2904  0.6860
    3TTP    C4128243   9.978   5.049   5.806 -0.4307 -0.2857  0.5203
    3TTP    C4228244  10.083   4.944   5.759  0.0309 -0.2826 -0.1165
    4BIM     F128245   7.756   5.965   6.208 -0.2172 -0.0076  0.0309
    4BIM     F228246   7.572   5.767   6.237 -0.0312 -0.1036  0.5717
    4BIM     O128247   8.188   5.682   6.046 -0.2916  0.1073 -0.3705
    4BIM     N528248   7.616   5.279   6.163  0.1836 -0.1595  1.0630
    4BIM     N628249   7.990   5.098   6.031  0.0881 -0.0503  0.6405
    4BIM    C1928250   8.166   5.392   6.017 -0.1400  0.0566  0.0037
    4BIM    C2028251   8.064   5.471   6.056 -0.1285  0.0314  0.0836
    4BIM    C2128252   8.083   5.619   6.069 -0.2098  0.0601 -0.1209
    4BIM    C2228253   7.954   5.674   6.114 -0.1733  0.0213  0.0334
    4BIM    C2328254   7.923   5.808   6.139 -0.2226  0.0297 -0.0683
    4BIM    C2428255   7.794   5.836   6.181 -0.1728 -0.0132  0.1175
    4BIM    C2528256   7.699   5.733   6.196 -0.0773 -0.0625  0.3959
    4BIM    C2628257   7.729   5.600   6.170 -0.0274 -0.0710  0.4989
    4BIM    C2728258   7.860   5.570   6.128 -0.0765 -0.0283  0.3139
    4BIM    C2828259   7.924   5.440   6.093 -0.0454 -0.0241  0.3558
    4BIM    C2928260   7.864   5.316   6.095  0.0440 -0.0639  0.6002
    4BIM    C3028261   7.728   5.297   6.133  0.1204 -0.1163  0.8539
    4BIM    C3128262   7.934   5.197   6.060  0.0677 -0.0561  0.6210
    5BIM     F128263   9.252   6.843   5.607 -0.1450  0.1001  0.1235
    5BIM     F228264   9.493   6.910   5.713 -0.0992  0.1750 -0.0279
    5BIM     O128265   9.263   6.304   5.661 -0.0513  0.1240  0.3465
    5BIM     N528266   9.848   6.623   5.904  0.0324  0.2997 -0.0862
    5BIM     N628267   9.809   6.189   5.924  0.0966  0.3034  0.1185
    5BIM    C1928268   9.498   6.177   5.781  0.0254  0.2042  0.2812
    5BIM    C2028269   9.486   6.310   5.763  0.0005  0.1950  0.2309
    5BIM    C2128270   9.362   6.368   5.701 -0.0386  0.1533  0.2693
    5BIM    C2228271   9.381   6.514   5.697 -0.0584  0.1539  0.1974
    5BIM    C2328272   9.293   6.610   5.647 -0.0956  0.1223  0.2011
    5BIM    C2428273   9.334   6.742   5.654 -0.1085  0.1301  0.1242
    5BIM    C2528274   9.458   6.777   5.709 -0.0850  0.1688  0.0465
    5BIM    C2628275   9.546   6.682   5.758 -0.0484  0.2006  0.0422
    5BIM    C2728276   9.507   6.547   5.752 -0.0348  0.1931  0.1193
    5BIM    C2828277   9.576   6.423   5.795  0.0024  0.2201  0.1370
    5BIM    C2928278   9.701   6.415   5.854  0.0327  0.2602  0.0772
    5BIM    C3028279   9.781   6.529   5.881  0.0327  0.2819 -0.0124
    5BIM    C3128280   9.759   6.290   5.892  0.0675  0.2837  0.1003
    1BTD     S228281   4.799   3.890   2.013 -0.1256 -0.0067 -0.0159
    1BTD     N128282   4.948   3.976   2.064 -0.0799 -0.0855 -0.0150
    1BTD     N228283   4.777   3.988   1.863 -0.0931  0.0288  0.0027
    1BTD     N328284   5.000   4.343   1.653  0.0551 -0.0410  0.0420
    1BTD     N428285   5.211   4.329   1.901  0.0714 -0.1820  0.0203
    1BTD     C528286   5.083   4.161   1.976 -0.0011 -0.1342  0.0037
    1BTD     C628287   4.972   4.069   1.973 -0.0447 -0.0814 -0.0017
    1BTD     C728288   4.876   4.075   1.860 -0.0521 -0.0174  0.0083
    1BTD     C828289   4.896   4.173   1.756 -0.0156 -0.0092  0.0229
    1BTD    C1528290   5.006   4.261   1.764  0.0268 -0.0621  0.0277
    1BTD    C1628291   5.098   4.255   1.872  0.0337 -0.1240  0.0182
    1BTD    C4328292   5.230   4.472   1.867  0.1262 -0.4616 -0.3702
    1BTD    C4428293   5.369   4.543   1.844 -0.2193  0.3288  0.3439
    1BTD    C4528294   5.357   4.700   1.841  0.9656 -0.1166 -0.4422
    1BTD    C4628295   5.346   4.757   1.981  0.2783 -0.2787 -0.7808
    1BTD    C4728296   5.457   4.483   1.725  0.2421  0.6382 -0.0086
    1BTD    C4828297   5.476   4.329   1.717  0.0409 -0.6829  0.3256
    1BTD    C4928298   5.561   4.256   1.814 -0.0610  0.0210  0.0627
    1BTD    C5028299   5.574   4.103   1.774 -0.3105  0.0283  0.3808
    1BTD    C7528300   5.120   4.392   1.581  0.5042  0.6289  0.0672
    1BTD    C7628301   5.138   4.501   1.472 -0.0600  0.1198  0.1917
    1BTD    C7728302   5.105   4.643   1.536  0.1920  0.6060 -0.2154
    1BTD    C7828303   5.067   4.750   1.439 -0.2043  0.0786  0.5220
    1BTD    C7928304   5.276   4.504   1.401 -0.1465  0.0315  0.3562
    1BTD    C8028305   5.312   4.372   1.326 -0.4924 -0.0528  0.2410
    1BTD    C8128306   5.232   4.319   1.210  0.3452  0.5761 -0.7991
    1BTD    C8228307   5.215   4.408   1.093  0.0127  0.3686  0.2216
    2TTP     S128308   5.251   4.105   2.224 -0.0319 -0.0474 -0.2509
    2TTP     S528309   5.500   4.441   2.125  0.0064 -0.0552 -0.1802
    2TTP     C128310   5.559   4.370   2.282  0.0820 -0.1770 -0.2635
    2TTP     C228311   5.485   4.262   2.322  0.0747 -0.1816 -0.2903
    2TTP     C328312   5.380   4.232   2.230  0.0089 -0.0894 -0.2459
    2TTP     C428313   5.193   4.177   2.067 -0.1076  0.0744 -0.1674
    2TTP    C1728314   5.266   4.285   2.027 -0.1001  0.0792 -0.1408
    2TTP    C1828315   5.371   4.315   2.119 -0.0346 -0.0132 -0.1851
    2TTP    C3228316   5.491   4.178   2.448 -0.3175 -0.1585  0.3499
    2TTP    C3328317   5.565   4.042   2.429  0.1171 -0.1100  0.3614
    2TTP    C3428318   5.583   3.946   2.545 -0.0999 -0.4350 -0.1404
    2TTP    C3528319   5.458   3.879   2.581 -0.5833 -0.3011  0.1569
    2TTP    C3628320   5.474   3.769   2.675 -0.2092 -0.8662  0.0183
    2TTP    C3728321   5.345   3.691   2.707  0.1577  0.3749 -0.0608
    2TTP    C3828322   5.362   3.587   2.824  0.2948 -0.4782 -0.1341
    2TTP    C3928323   5.461   3.472   2.778 -0.4629 -0.5064  0.4727
    2TTP    C4028324   5.502   3.377   2.887 -0.5848  0.6162  0.1845
    2TTP    C4128325   5.613   3.417   2.982  0.4375  0.0480 -0.1947
    2TTP    C4228326   5.749   3.443   2.918  0.1251 -0.3549  0.1991
    3TTP     S128327   4.654   4.178   1.585  0.1354  0.1053 -0.0085
    3TTP     S528328   4.818   4.515   1.373 -0.1396  0.2625  0.0287
    3TTP     C128329   4.648   4.486   1.314 -0.1453  0.1821  0.0844
    3TTP     C228330   4.588   4.380   1.376 -0.0607  0.1286  0.0762
    3TTP     C328331   4.673   4.318   1.472  0.0117  0.1495  0.0256
    3TTP     C428332   4.824   4.207   1.644  0.1411  0.1857 -0.0642
    3TTP    C1728333   4.884   4.313   1.583  0.0566  0.2391 -0.0560
    3TTP    C1828334   4.799   4.375   1.486 -0.0159  0.2183 -0.0054
    3TTP    C3228335   4.452   4.318   1.352 -0.0342 -0.9162  0.3765
    3TTP    C3328336   4.456   4.186   1.273 -0.2995  0.1510 -0.1650
    3TTP    C3428337   4.312   4.149   1.267 -0.1297 -0.1292  0.2013
    3TTP    C3528338   4.294   4.027   1.181 -0.2972  0.2994 -0.3801
    3TTP    C3628339   4.155   3.977   1.151  0.5906 -0.0461 -0.3597
    3TTP    C3728340   4.134   3.889   1.031  0.1267 -0.2217 -0.6359
    3TTP    C3828341   4.153   3.954   0.894  0.2335 -0.3359 -0.0565
    3TTP    C3928342   4.195   3.851   0.790 -0.5538  0.0789  0.6823
    3TTP    C4028343   4.217   3.897   0.642  0.0063  0.3068 -0.3022
    3TTP    C4128344   4.087   3.936   0.577  0.8819 -0.2069  0.6531
    3TTP    C4228345   4.092   4.007   0.442 -0.5949  0.0093 -0.1455
    4BIM     F128346   5.795   5.152   2.398  0.0192 -0.0373 -0.0152
    4BIM     F228347   5.992   5.061   2.562  0.1481 -0.0190 -0.1587
    4BIM     O128348   5.548   4.689   2.266 -0.1510 -0.0411  0.3154
    4BIM     N528349   6.099   4.599   2.705  0.2123  0.0045 -0.1293
    4BIM     N628350   5.866   4.255   2.569  0.0533 -0.0020  0.1579
    4BIM    C1928351   5.648   4.437   2.376 -0.0881 -0.0250  0.2958
    4BIM    C2028352   5.703   4.557   2.403 -0.0505 -0.0247  0.2182
    4BIM    C2128353   5.646   4.682   2.343 -0.0865 -0.0333  0.2342
    4BIM    C2228354   5.728   4.794   2.392 -0.0304 -0.0305  0.1351
    4BIM    C2328355   5.714   4.929   2.363 -0.0380 -0.0362  0.1122
    4BIM    C2428356   5.804   5.017   2.422  0.0229 -0.0321  0.0127
    4BIM    C2528357   5.905   4.969   2.507  0.0893 -0.0226 -0.0610
    4BIM    C2628358   5.920   4.834   2.536  0.0974 -0.0170 -0.0388
    4BIM    C2728359   5.830   4.744   2.477  0.0362 -0.0211  0.0615
    4BIM    C2828360   5.818   4.597   2.487  0.0266 -0.0172  0.1097
    4BIM    C2928361   5.899   4.513   2.561  0.0790 -0.0080  0.0625
    4BIM    C3028362   6.008   4.561   2.640  0.1521 -0.0011 -0.0428
    4BIM    C3128363   5.880   4.372   2.565  0.0645 -0.0048  0.1153
    5BIM     F128364   4.747   5.237   0.995  0.0700 -0.0638  0.2045
    5BIM     F228365   4.519   5.199   0.852  0.0720 -0.0224  0.1905
    5BIM     O128366   4.776   4.770   1.267 -0.1488  0.0196  0.3710
    5BIM     N528367   4.211   4.812   0.840 -0.0809  0.0963  0.2890
    5BIM     N628368   4.280   4.455   1.082 -0.2522  0.1532  0.4220
    5BIM    C1928369   4.568   4.568   1.227 -0.2246  0.0886  0.4168
    5BIM    C2028370   4.570   4.687   1.164 -0.1696  0.0659  0.3754
    5BIM    C2128371   4.680   4.786   1.190 -0.1334  0.0310  0.3541
    5BIM    C2228372   4.652   4.903   1.106 -0.0763  0.0131  0.3096
    5BIM    C2328373   4.726   5.021   1.096 -0.0284 -0.0200  0.2775
    5BIM    C2428374   4.679   5.119   1.009  0.0210 -0.0312  0.2377
    5BIM    C2528375   4.561   5.099   0.936  0.0219 -0.0100  0.2306
    5BIM    C2628376   4.486   4.982   0.946 -0.0257  0.0232  0.2625
    5BIM    C2728377   4.532   4.882   1.032 -0.0762  0.0352  0.3029
    5BIM    C2828378   4.478   4.748   1.065 -0.1333  0.0684  0.3431
    5BIM    C2928379   4.363   4.692   1.014 -0.1496  0.0961  0.3492
    5BIM    C3028380   4.280   4.758   0.919 -0.1118  0.0962  0.3161
    5BIM    C3128381   4.318   4.562   1.052 -0.2061  0.1272  0.3892
    1BTD     S228382   7.389   6.754   4.244  0.1936 -0.2017 -0.2955
    1BTD     N128383   7.481   6.613   4.308  0.1401 -0.0883  0.0329
    1BTD     N228384   7.228   6.674   4.258  0.1985 -0.2437 -0.4656
    1BTD     N328385   7.067   6.258   4.404  0.1113 -0.1240 -0.2196
    1BTD     N428386   7.378   6.183   4.465  0.0395  0.0675  0.3947
    1BTD     C528387   7.423   6.389   4.389  0.0883 -0.0092  0.2143
    1BTD     C628388   7.392   6.519   4.336  0.1290 -0.0875  0.0004
    1BTD     C728389   7.250   6.553   4.308  0.1618 -0.1745 -0.2785
    1BTD     C828390   7.148   6.456   4.335  0.1521 -0.1789 -0.3296
    1BTD    C1528391   7.183   6.330   4.388  0.1119 -0.1006 -0.1139
    1BTD    C1628392   7.320   6.297   4.415  0.0802 -0.0169  0.1547
    1BTD    C4328393   7.330   6.104   4.583  0.1081  0.5821 -0.0705
    1BTD    C4428394   7.355   5.955   4.598  0.3671 -0.0633 -0.0843
    1BTD    C4528395   7.298   5.875   4.484  0.2367  0.5987  0.0629
    1BTD    C4628396   7.344   5.735   4.466 -0.1063  0.2953 -0.5134
    1BTD    C4728397   7.299   5.926   4.739  0.3254 -0.0128  0.5786
    1BTD    C4828398   7.336   5.800   4.823 -0.4691  0.5279  0.1345
    1BTD    C4928399   7.483   5.762   4.811 -0.1741 -0.2768  0.3336
    1BTD    C5028400   7.540   5.651   4.896 -0.4820  0.0436 -0.5751
    1BTD    C7528401   7.068   6.108   4.394  0.4617  0.0553 -0.1939
    1BTD    C7628402   6.956   6.014   4.446  0.2058 -0.2984 -0.2119
    1BTD    C7728403   6.936   5.874   4.371  0.1386  0.4871 -0.2815
    1BTD    C7828404   6.907   5.897   4.225 -0.3278  0.5941  0.0543
    1BTD    C7928405   6.934   6.028   4.601 -0.4734  0.7069  0.5909
    1BTD    C8028406   6.831   5.943   4.675  0.7585  0.5867 -0.2567
    1BTD    C8128407   6.681   5.949   4.627  0.0836  0.1957 -0.0634
    1BTD    C8228408   6.599   5.834   4.690  0.3705 -0.4714  0.3397
    2TTP     S128409   7.721   6.370   4.429 -0.2495  0.0606 -0.0229
    2TTP     S528410   7.677   5.972   4.586 -0.0402  0.1559  0.2786
    2TTP     C128411   7.852   6.020   4.599 -0.0715  0.2704  0.2733
    2TTP     C228412   7.876   6.146   4.551 -0.1378  0.2476  0.1799
    2TTP     C328413   7.757   6.208   4.503 -0.1665  0.1390  0.1091
    2TTP     C428414   7.546   6.321   4.417 -0.2183 -0.0538 -0.0176
    2TTP    C1728415   7.522   6.195   4.464 -0.1519 -0.0310  0.0757
    2TTP    C1828416   7.641   6.133   4.513 -0.1233  0.0776  0.1466
    2TTP    C3228417   8.013   6.216   4.538 -0.2424  0.2174 -0.4816
    2TTP    C3328418   8.065   6.250   4.398  0.2451  0.1377 -0.0455
    2TTP    C3428419   8.209   6.304   4.401  0.2502 -0.0076  0.0868
    2TTP    C3528420   8.320   6.203   4.416  0.2221  0.0227 -0.4874
    2TTP    C3628421   8.460   6.254   4.434  0.3323 -0.4189  0.3457
    2TTP    C3728422   8.527   6.334   4.326 -0.4094  1.1776  0.5181
    2TTP    C3828423   8.674   6.356   4.336 -0.6970  0.1830 -0.1149
    2TTP    C3928424   8.750   6.430   4.219 -0.4031 -0.1285  0.0022
    2TTP    C4028425   8.675   6.551   4.158 -0.1452  0.0508 -0.1446
    2TTP    C4128426   8.745   6.607   4.037 -0.2666  0.1854  0.3190
    2TTP    C4228427   8.721   6.752   4.015 -0.0786  0.0009 -0.0688
    3TTP     S128428   6.876   6.577   4.279 -0.2901 -0.2220 -0.1356
    3TTP     S528429   6.686   6.203   4.375 -0.3788 -0.0819  0.2373
    3TTP     C128430   6.557   6.324   4.334 -0.3509 -0.0879  0.1333
    3TTP     C228431   6.608   6.447   4.301 -0.3220 -0.1314  0.0120
    3TTP     C328432   6.751   6.449   4.308 -0.3207 -0.1618 -0.0032
    3TTP     C428433   7.005   6.455   4.321 -0.3182 -0.2160 -0.0316
    3TTP    C1728434   6.954   6.333   4.353 -0.3472 -0.1725  0.0898
    3TTP    C1828435   6.811   6.330   4.346 -0.3484 -0.1421  0.1049
    3TTP    C3228436   6.534   6.582   4.281 -0.2353  0.5194  0.6210
    3TTP    C3328437   6.551   6.656   4.149 -0.1364 -0.2028  0.1140
    3TTP    C3428438   6.449   6.758   4.100 -0.4520 -0.5620 -0.4830
    3TTP    C3528439   6.299   6.736   4.117  0.2405  0.0520  0.3230
    3TTP    C3628440   6.232   6.842   4.027  0.6654  0.5329 -0.1594
    3TTP    C3728441   6.081   6.811   4.030 -0.0042  0.2116 -0.4600
    3TTP    C3828442   5.993   6.912   3.960  0.1266 -0.5496 -0.0458
    3TTP    C3928443   5.849   6.877   3.938  0.0636  0.4225  0.7703
    3TTP    C4028444   5.820   6.763   3.836  0.4093 -0.4416 -0.5566
    3TTP    C4128445   5.674   6.726   3.793  0.6689 -0.6563 -0.3211
    3TTP    C4228446   5.656   6.607   3.696 -0.7672 -0.1662 -0.2581
    4BIM     F128447   7.950   5.252   4.881  0.2333 -0.1478 -0.3119
    4BIM     F228448   8.195   5.324   4.974 -0.0424  0.1098  0.2248
    4BIM     O128449   7.788   5.714   4.650  0.0635 -0.1822 -0.2617
    4BIM     N528450   8.432   5.757   4.944 -0.5598  0.4553  1.0326
    4BIM     N628451   8.257   6.103   4.745 -0.6373  0.3767  0.9634
    4BIM    C1928452   7.965   5.947   4.657 -0.2604  0.0515  0.2687
    4BIM    C2028453   7.996   5.828   4.712 -0.2069  0.0502  0.2354
    4BIM    C2128454   7.900   5.713   4.704 -0.0387 -0.0738 -0.0441
    4BIM    C2228455   7.964   5.599   4.773 -0.0201 -0.0411 -0.0073
    4BIM    C2328456   7.914   5.471   4.791  0.1150 -0.1243 -0.2081
    4BIM    C2428457   7.994   5.380   4.859  0.1041 -0.0709 -0.1239
    4BIM    C2528458   8.120   5.418   4.907 -0.0380  0.0618  0.1528
    4BIM    C2628459   8.171   5.545   4.889 -0.1736  0.1453  0.3542
    4BIM    C2728460   8.092   5.639   4.820 -0.1647  0.0930  0.2730
    4BIM    C2828461   8.116   5.781   4.785 -0.2851  0.1544  0.4331
    4BIM    C2928462   8.229   5.854   4.814 -0.4396  0.2834  0.7113
    4BIM    C3028463   8.340   5.800   4.885 -0.5050  0.3774  0.8869
    4BIM    C3128464   8.243   5.991   4.776 -0.5474  0.3339  0.8483
    5BIM     F128465   6.157   5.643   4.137  0.0557 -0.1214  0.2652
    5BIM     F228466   5.927   5.758   4.228 -0.0747 -0.0205 -0.1849
    5BIM     O128467   6.510   6.047   4.212 -0.0380 -0.0618  0.3853
    5BIM     N528468   5.849   6.210   4.413 -0.3288  0.1670 -0.7468
    5BIM     N628469   6.171   6.503   4.453 -0.3759  0.1932 -0.5622
    5BIM    C1928470   6.416   6.300   4.326 -0.1959  0.0559 -0.0021
    5BIM    C2028471   6.336   6.194   4.304 -0.1673  0.0370 -0.0148
    5BIM    C2128472   6.392   6.067   4.245 -0.0856 -0.0242  0.1919
    5BIM    C2228473   6.279   5.973   4.234 -0.0732 -0.0303  0.1191
    5BIM    C2328474   6.281   5.843   4.185 -0.0062 -0.0792  0.2514
    5BIM    C2428475   6.162   5.773   4.184 -0.0084 -0.0746  0.1447
    5BIM    C2528476   6.044   5.832   4.231 -0.0756 -0.0226 -0.0874
    5BIM    C2628477   6.040   5.962   4.280 -0.1427  0.0262 -0.2204
    5BIM    C2728478   6.161   6.034   4.282 -0.1414  0.0225 -0.1153
    5BIM    C2828479   6.191   6.172   4.326 -0.2021  0.0658 -0.2068
    5BIM    C2928480   6.102   6.263   4.379 -0.2761  0.1221 -0.4272
    5BIM    C3028481   5.963   6.234   4.397 -0.3048  0.1466 -0.6021
    5BIM    C3128482   6.141   6.394   4.419 -0.3307  0.1609 -0.5002
    1BTD     S228483   8.765   0.242   2.732  0.0324 -0.0347  0.1412
    1BTD     N128484   8.928   0.256   2.807 -0.2019  0.2015  0.6114
    1BTD     N228485   8.759   0.413   2.678  0.1061 -0.1470 -0.2319
    1BTD     N328486   9.040   0.788   2.704 -0.1655  0.0509 -0.1432
    1BTD     N428487   9.248   0.595   2.863 -0.5450  0.4803  0.8960
    1BTD     C528488   9.093   0.435   2.834 -0.3765  0.3419  0.7474
    1BTD     C628489   8.967   0.381   2.789 -0.2124  0.1854  0.4732
    1BTD     C728490   8.873   0.469   2.717 -0.0398 -0.0097  0.0011
    1BTD     C828491   8.908   0.607   2.694 -0.0403 -0.0385 -0.1732
    1BTD    C1528492   9.032   0.655   2.740 -0.2044  0.1190  0.1077
    1BTD    C1628493   9.123   0.570   2.809 -0.3705  0.3069  0.5625
    1BTD    C4328494   9.356   0.668   2.787 -0.0228  0.2450  0.5555
    1BTD    C4428495   9.480   0.728   2.860  0.1556 -0.4513 -0.3703
    1BTD    C4528496   9.446   0.834   2.966  0.3027  0.1386 -0.0622
    1BTD    C4628497   9.356   0.794   3.088 -0.7947  0.0843  0.1038
    1BTD    C4728498   9.575   0.797   2.759 -0.3027  0.0968 -0.1572
    1BTD    C4828499   9.633   0.706   2.649  0.0685 -0.1063 -0.7142
    1BTD    C4928500   9.738   0.607   2.696 -0.6983 -0.3110  0.0642
    1BTD    C5028501   9.882   0.658   2.718 -0.0756 -0.0202 -0.5179
    1BTD    C7528502   9.104   0.889   2.793 -0.7826 -0.5474 -0.3952
    1BTD    C7628503   9.154   1.021   2.721 -0.4773  0.0268 -0.2885
    1BTD    C7728504   9.261   0.987   2.616 -0.8422  0.3643 -0.3941
    1BTD    C7828505   9.311   1.109   2.533 -0.2034  0.1697 -0.1217
    1BTD    C7928506   9.173   1.143   2.814 -0.4997 -0.2812 -0.4264
    1BTD    C8028507   9.053   1.178   2.904  0.0210  0.0676  0.3974
    1BTD    C8128508   9.080   1.318   2.966  0.1063 -0.5141  0.2787
    1BTD    C8228509   8.968   1.377   3.046 -0.2502 -0.3032 -0.0375
    2TTP     S128510   9.247   0.217   2.989  0.1090  0.0287 -0.1455
    2TTP     S528511   9.565   0.499   3.060 -0.1180  0.3065 -0.2294
    2TTP     C128512   9.611   0.339   3.134  0.0435  0.3455 -0.2461
    2TTP     C228513   9.516   0.243   3.116  0.1233  0.2620 -0.2211
    2TTP     C328514   9.403   0.291   3.044  0.0596  0.1642 -0.1880
    2TTP     C428515   9.201   0.376   2.915 -0.0525 -0.0103 -0.1289
    2TTP    C1728516   9.296   0.473   2.932 -0.1320  0.0732 -0.1539
    2TTP    C1828517   9.409   0.424   3.005 -0.0684  0.1710 -0.1870
    2TTP    C3228518   9.519   0.094   3.154 -0.0691  0.0820  0.0819
    2TTP    C3328519   9.458   0.037   3.283  0.0578 -0.7402 -0.5762
    2TTP    C3428520   9.506  -0.107   3.299 -0.1477 -0.8187  0.1114
    2TTP    C3528521   9.494  -0.177   3.432  0.5023 -0.4428  0.5061
    2TTP    C3628522   9.569  -0.308   3.404 -0.2388 -0.4414 -0.3738
    2TTP    C3728523   9.579  -0.415   3.508 -0.2684  0.1199  0.2533
    2TTP    C3828524   9.642  -0.387   3.646  0.5575 -0.4792  0.4689
    2TTP    C3928525   9.608  -0.482   3.763 -0.2490 -0.3734 -0.5065
    2TTP    C4028526   9.665  -0.626   3.765 -0.2987 -0.8245  0.1955
    2TTP    C4128527   9.809  -0.651   3.759 -0.4088  0.1511 -0.2308
    2TTP    C4228528   9.902  -0.577   3.846 -0.0060 -0.1026 -0.8401
    3TTP     S128529   8.687   0.738   2.532 -0.0732  0.2069 -0.2808
    3TTP     S528530   8.938   1.086   2.500  0.1292  0.1020  0.1429
    3TTP     C128531   8.788   1.112   2.399  0.0059  0.4343  0.4084
    3TTP     C228532   8.702   1.006   2.403 -0.0641  0.4862  0.2932
    3TTP     C328533   8.751   0.900   2.486 -0.0224  0.2655 -0.0089
    3TTP     C428534   8.836   0.711   2.633  0.0498 -0.1253 -0.5463
    3TTP    C1728535   8.922   0.817   2.629  0.1199 -0.1773 -0.4310
    3TTP    C1828536   8.874   0.923   2.546  0.0787  0.0434 -0.1289
    3TTP    C3228537   8.568   0.986   2.329  0.3955  0.4947 -0.4228
    3TTP    C3328538   8.439   0.996   2.406 -0.5107 -0.2383 -0.0521
    3TTP    C3428539   8.307   0.977   2.335  0.5327 -0.4646 -0.5042
    3TTP    C3528540   8.273   1.067   2.219 -0.5871  0.1396  1.0634
    3TTP    C3628541   8.136   1.049   2.157 -0.4387  0.1722  0.0348
    3TTP    C3728542   8.104   1.143   2.040  0.2113  1.1657  0.1853
    3TTP    C3828543   7.963   1.121   1.990  0.3763  0.5516  0.0908
    3TTP    C3928544   7.921   1.196   1.867 -0.3072 -0.2746 -0.0050
    3TTP    C4028545   7.776   1.170   1.835 -0.3233  0.6414  0.1337
    3TTP    C4128546   7.707   1.255   1.724  0.1311  0.5186 -0.0509
    3TTP    C4228547   7.661   1.396   1.767 -0.0267 -0.4447  0.1365
    4BIM     F128548  10.213   0.797   3.452 -0.0834  0.0222  0.1183
    4BIM     F228549  10.354   0.569   3.497  0.0414  0.0703 -0.0286
    4BIM     O128550   9.757   0.594   3.242 -0.0932 -0.1112  0.2682
    4BIM     N528551  10.233   0.096   3.413  0.2138  0.0444 -0.1328
    4BIM     N628552   9.848  -0.016   3.240  0.1811 -0.0696  0.0139
    4BIM    C1928553   9.730   0.304   3.211  0.0226 -0.1126  0.1812
    4BIM    C2028554   9.839   0.364   3.262  0.0202 -0.0809  0.1492
    4BIM    C2128555   9.845   0.513   3.275 -0.0411 -0.0824  0.1976
    4BIM    C2228556   9.977   0.545   3.334 -0.0270 -0.0433  0.1451
    4BIM    C2328557  10.028   0.671   3.364 -0.0689 -0.0307  0.1637
    4BIM    C2428558  10.156   0.676   3.419 -0.0446  0.0077  0.1040
    4BIM    C2528559  10.228   0.558   3.443  0.0197  0.0325  0.0284
    4BIM    C2628560  10.178   0.432   3.412  0.0618  0.0200  0.0095
    4BIM    C2728561  10.049   0.425   3.357  0.0380 -0.0188  0.0691
    4BIM    C2828562   9.967   0.309   3.313  0.0696 -0.0409  0.0687
    4BIM    C2928563  10.003   0.177   3.320  0.1326 -0.0269  0.0055
    4BIM    C3028564  10.130   0.133   3.371  0.1771  0.0123 -0.0703
    4BIM    C3128565   9.918   0.071   3.276  0.1589 -0.0504  0.0105
    5BIM     F128566   9.063   1.883   2.438 -0.0279 -0.1649 -0.0437
    5BIM     F228567   8.933   1.933   2.205  0.1531 -0.2047 -0.1535
    5BIM     O128568   8.924   1.367   2.525 -0.3016 -0.0722  0.0700
    5BIM     N528569   8.646   1.637   1.931  0.2174 -0.1960 -0.2305
    5BIM     N628570   8.563   1.224   2.045 -0.0331 -0.1156 -0.1196
    5BIM    C1928571   8.750   1.231   2.332 -0.2260 -0.0774  0.0054
    5BIM    C2028572   8.790   1.359   2.320 -0.1645 -0.0992 -0.0190
    5BIM    C2128573   8.880   1.422   2.423 -0.2091 -0.0948  0.0172
    5BIM    C2228574   8.904   1.560   2.379 -0.1211 -0.1226 -0.0225
    5BIM    C2328575   8.981   1.658   2.442 -0.1237 -0.1291 -0.0090
    5BIM    C2428576   8.989   1.782   2.381 -0.0305 -0.1570 -0.0539
    5BIM    C2528577   8.921   1.808   2.261  0.0625 -0.1774 -0.1105
    5BIM    C2628578   8.844   1.711   2.197  0.0660 -0.1711 -0.1243
    5BIM    C2728579   8.835   1.585   2.257 -0.0279 -0.1431 -0.0794
    5BIM    C2828580   8.762   1.462   2.216 -0.0510 -0.1294 -0.0795
    5BIM    C2928581   8.685   1.447   2.104  0.0198 -0.1425 -0.1266
    5BIM    C3028582   8.664   1.551   2.009  0.1283 -0.1719 -0.1836
    5BIM    C3128583   8.618   1.324   2.072 -0.0095 -0.1276 -0.1224
    1BTD     S228584   4.536   4.944   8.810  0.1525 -0.1085  0.1054
    1BTD     N128585   4.504   5.121   8.823 -0.2412 -0.2095  0.5732
    1BTD     N228586   4.680   4.948   8.919  0.5038  0.0161 -0.3588
    1BTD     N328587   4.914   5.275   9.161  0.5091  0.0882 -0.4606
    1BTD     N428588   4.697   5.488   9.043 -0.4085 -0.1899  0.6881
    1BTD     C528589   4.607   5.310   8.939 -0.3175 -0.1959  0.6192
    1BTD     C628590   4.597   5.171   8.903 -0.0978 -0.1482  0.3695
    1BTD     C728591   4.695   5.075   8.956  0.3192 -0.0217 -0.1523
    1BTD     C828592   4.799   5.122   9.044  0.4956  0.0504 -0.3982
    1BTD    C1528593   4.805   5.258   9.077  0.2691  0.0000 -0.1392
    1BTD    C1628594   4.710   5.351   9.025 -0.1327 -0.1219  0.3633
    1BTD    C4328595   4.741   5.566   9.163  0.0432  0.4364 -0.4123
    1BTD    C4428596   4.794   5.710   9.141  0.4374  0.8741 -0.0578
    1BTD    C4528597   4.807   5.765   9.283  0.0425 -0.1751  0.8249
    1BTD    C4628598   4.838   5.910   9.290  0.1985 -0.0993  0.1198
    1BTD    C4728599   4.914   5.728   9.046 -0.3237 -0.2219 -0.4662
    1BTD    C4828600   4.910   5.707   8.895  0.6545 -0.4385  0.0903
    1BTD    C4928601   4.817   5.810   8.813  0.6587  0.6484 -0.1321
    1BTD    C5028602   4.789   5.753   8.677  0.1069  0.0471 -0.2340
    1BTD    C7528603   5.006   5.389   9.161 -0.2885 -0.3032  0.1924
    1BTD    C7628604   5.089   5.437   9.275  0.3361  0.2660 -0.6010
    1BTD    C7728605   5.008   5.485   9.398 -0.1211  0.4843 -0.4459
    1BTD    C7828606   4.897   5.417   9.468 -0.3453  0.5613 -0.0038
    1BTD    C7928607   5.196   5.532   9.228 -0.9209  0.9754 -0.3316
    1BTD    C8028608   5.302   5.586   9.329  0.1373 -0.1374 -0.3738
    1BTD    C8128609   5.373   5.489   9.415 -0.0932  0.2654  0.2937
    1BTD    C8228610   5.514   5.544   9.453  0.2726 -0.1190  0.1637
    2TTP     S128611   4.360   5.449   8.851  0.1687 -0.0436  0.0225
    2TTP     S528612   4.477   5.798   9.073 -0.3247  0.1750 -0.0594
    2TTP     C128613   4.304   5.818   9.021 -0.3901 -0.1341  0.0362
    2TTP     C228614   4.258   5.711   8.949 -0.2415 -0.2198  0.0675
    2TTP     C328615   4.357   5.610   8.933 -0.0707 -0.0445  0.0165
    2TTP     C428616   4.534   5.430   8.903  0.2340  0.2655 -0.0732
    2TTP    C1728617   4.580   5.536   8.975  0.0856  0.3512 -0.1042
    2TTP    C1828618   4.480   5.637   8.991 -0.0854  0.1758 -0.0534
    2TTP    C3228619   4.119   5.709   8.885  0.3122  0.7587  0.4268
    2TTP    C3328620   4.034   5.579   8.876  0.2570  0.9095  0.5957
    2TTP    C3428621   3.912   5.586   8.780  0.0780  0.0009  0.5258
    2TTP    C3528622   3.849   5.453   8.765 -0.3400  0.4751  0.3853
    2TTP    C3628623   3.727   5.432   8.673 -0.1360 -0.2895 -0.5506
    2TTP    C3728624   3.597   5.512   8.705  0.3328 -0.3379  0.6815
    2TTP    C3828625   3.507   5.486   8.581  0.4551  0.4401  0.1267
    2TTP    C3928626   3.369   5.532   8.585  0.2157  0.2845 -0.2541
    2TTP    C4028627   3.278   5.460   8.484 -0.0672  0.3643 -0.2528
    2TTP    C4128628   3.305   5.502   8.335 -0.4006 -0.0163 -0.2302
    2TTP    C4228629   3.258   5.638   8.294 -0.1916 -0.1533  0.1276
    3TTP     S128630   4.966   4.889   9.133  0.1122 -0.0888  0.1596
    3TTP     S528631   5.154   5.141   9.426 -0.0752  0.1006  0.1185
    3TTP     C128632   5.212   4.970   9.450 -0.0586  0.1232  0.2391
    3TTP     C228633   5.158   4.882   9.361  0.0004  0.0659  0.2589
    3TTP     C328634   5.068   4.947   9.270  0.0343  0.0023  0.1795
    3TTP     C428635   4.908   5.060   9.108  0.0956 -0.1115  0.0393
    3TTP    C1728636   4.963   5.148   9.198  0.0366 -0.0542  0.0194
    3TTP    C1828637   5.053   5.083   9.288  0.0026  0.0095  0.0987
    3TTP    C3228638   5.175   4.733   9.362 -0.5082 -0.2634  0.5533
    3TTP    C3328639   5.062   4.641   9.401 -0.1350 -0.1025 -0.7664
    3TTP    C3428640   5.098   4.489   9.397  0.5112 -0.1170  0.1173
    3TTP    C3528641   4.980   4.400   9.440  0.0974 -0.1680  1.1319
    3TTP    C3628642   5.031   4.264   9.465  0.3174 -0.2241 -1.1817
    3TTP    C3728643   4.929   4.171   9.527  0.4086 -0.2337 -1.0386
    3TTP    C3828644   4.851   4.219   9.656 -0.0964  0.5105  0.1938
    3TTP    C3928645   4.760   4.107   9.710  0.5932 -0.4390  0.4384
    3TTP    C4028646   4.633   4.074   9.625  0.3812 -0.2692 -0.0350
    3TTP    C4128647   4.543   3.972   9.702  0.2030 -0.4946 -0.2803
    3TTP    C4228648   4.416   3.920   9.636  0.5862  0.8559  0.3298
    4BIM     F128649   4.316   6.408   9.597 -0.0064 -0.1719  0.1309
    4BIM     F228650   4.100   6.520   9.474  0.2388  0.1526 -0.0050
    4BIM     O128651   4.399   5.974   9.284 -0.3614 -0.2109  0.0899
    4BIM     N528652   3.850   6.372   9.074  0.3386  0.5914 -0.2308
    4BIM     N628653   3.958   6.011   8.854  0.0119  0.4957 -0.2351
    4BIM    C1928654   4.222   5.927   9.055 -0.2531  0.0854 -0.0548
    4BIM    C2028655   4.210   6.032   9.138 -0.1734  0.0825 -0.0391
    4BIM    C2128656   4.304   6.049   9.254 -0.2366 -0.0746  0.0367
    4BIM    C2228657   4.263   6.172   9.324 -0.1217 -0.0345  0.0346
    4BIM    C2328658   4.321   6.229   9.437 -0.1296 -0.1403  0.0923
    4BIM    C2428659   4.264   6.346   9.485 -0.0064 -0.0741  0.0771
    4BIM    C2528660   4.153   6.404   9.422  0.1198  0.0932  0.0068
    4BIM    C2628661   4.095   6.348   9.309  0.1283  0.1997 -0.0508
    4BIM    C2728662   4.151   6.229   9.258  0.0049  0.1347 -0.0367
    4BIM    C2828663   4.114   6.145   9.142 -0.0218  0.2131 -0.0849
    4BIM    C2928664   4.010   6.168   9.054  0.0753  0.3759 -0.1578
    4BIM    C3028665   3.922   6.280   9.065  0.2198  0.4939 -0.1976
    4BIM    C3128666   3.982   6.081   8.944  0.0398  0.4407 -0.1998
    5BIM     F128667   5.793   5.381   9.863  0.0490 -0.1359  0.2815
    5BIM     F228668   5.846   5.154  10.003 -0.2952 -0.2230  0.2706
    5BIM     O128669   5.397   5.211   9.535  0.1366  0.3448 -0.0768
    5BIM     N528670   5.638   4.705   9.972 -0.7272 -0.0058 -0.0006
    5BIM     N628671   5.318   4.618   9.687 -0.5894  0.3873 -0.2784
    5BIM    C1928672   5.306   4.933   9.553 -0.1608  0.4321 -0.2146
    5BIM    C2028673   5.404   4.985   9.630 -0.1695  0.3147 -0.1240
    5BIM    C2128674   5.445   5.128   9.615 -0.0108  0.2769 -0.0574
    5BIM    C2228675   5.553   5.152   9.713 -0.0656  0.1438  0.0347
    5BIM    C2328676   5.623   5.270   9.736  0.0364  0.0677  0.1183
    5BIM    C2428677   5.721   5.267   9.835 -0.0443 -0.0553  0.1965
    5BIM    C2528678   5.747   5.150   9.907 -0.2215 -0.0999  0.1907
    5BIM    C2628679   5.678   5.032   9.884 -0.3241 -0.0244  0.1075
    5BIM    C2728680   5.579   5.032   9.785 -0.2446  0.1004  0.0275
    5BIM    C2828681   5.488   4.925   9.737 -0.3155  0.2035 -0.0702
    5BIM    C2928682   5.483   4.795   9.783 -0.4843  0.1972 -0.1042
    5BIM    C3028683   5.568   4.746   9.886 -0.6174  0.0855 -0.0471
    5BIM    C3128684   5.392   4.699   9.730 -0.5412  0.3018 -0.1998
    1BTD     S228685   9.259   8.350   4.511 -0.1744  0.0260 -0.1767
    1BTD     N128686   9.219   8.219   4.626  0.0401  0.2949  0.2077
    1BTD     N228687   9.435   8.312   4.507 -0.2079 -0.0989 -0.5615
    1BTD     N328688   9.720   7.999   4.708  0.1101  0.1315 -0.6520
    1BTD     N428689   9.454   7.883   4.855  0.4158  0.6168  0.2959
    1BTD     C528690   9.345   8.045   4.744  0.2327  0.4570  0.2424
    1BTD     C628691   9.332   8.157   4.655  0.0734  0.2785  0.0381
    1BTD     C728692   9.453   8.209   4.588 -0.0651  0.0579 -0.3926
    1BTD     C828693   9.581   8.147   4.613 -0.0381  0.0272 -0.5972
    1BTD    C1528694   9.588   8.038   4.702  0.1194  0.2068 -0.3851
    1BTD    C1628695   9.471   7.987   4.766  0.2530  0.4193  0.0297
    1BTD    C4328696   9.537   7.820   4.957  0.3989 -0.3943  0.3810
    1BTD    C4428697   9.572   7.883   5.092  0.5067 -0.0832  0.5445
    1BTD    C4528698   9.651   8.014   5.081 -0.1855  0.1740 -0.3106
    1BTD    C4628699   9.653   8.105   5.203  0.3376  0.4180  0.1947
    1BTD    C4728700   9.618   7.782   5.193 -0.2526  0.5135 -0.4435
    1BTD    C4828701   9.768   7.744   5.183 -0.5011  0.1833 -0.7448
    1BTD    C4928702   9.802   7.641   5.291 -0.1848 -0.0601 -0.3607
    1BTD    C5028703   9.738   7.509   5.261 -0.2893 -0.0488 -0.1566
    1BTD    C7528704   9.773   7.869   4.748 -0.0872  0.1547 -0.1085
    1BTD    C7628705   9.807   7.766   4.640  0.4136  0.4871  0.4374
    1BTD    C7728706   9.717   7.726   4.525 -0.0696 -0.0953 -0.4361
    1BTD    C7828707   9.596   7.642   4.569  0.1296  0.4501  0.0863
    1BTD    C7928708   9.873   7.644   4.704  1.4565  0.1661  0.4996
    1BTD    C8028709   9.989   7.647   4.792 -0.1127  0.2464 -0.0855
    1BTD    C8128710  10.111   7.681   4.718 -0.2089 -0.1156 -0.0221
    1BTD    C8228711  10.231   7.691   4.805  0.5253  0.2030 -0.2157
    2TTP     S128712   9.070   7.935   4.807 -0.0222 -0.0506  0.1217
    2TTP     S528713   9.251   7.599   5.005  0.0994 -0.2521 -0.3270
    2TTP     C128714   9.071   7.574   5.002  0.0793 -0.1475 -0.0567
    2TTP     C228715   9.005   7.676   4.940  0.0405 -0.0790  0.0978
    2TTP     C328716   9.094   7.778   4.894  0.0253 -0.1069  0.0082
    2TTP     C428717   9.251   7.960   4.810 -0.0019 -0.1553 -0.1488
    2TTP    C1728718   9.317   7.857   4.871  0.0366 -0.2239 -0.3031
    2TTP    C1828719   9.228   7.756   4.918  0.0517 -0.1961 -0.2136
    2TTP    C3228720   8.858   7.701   4.924  0.6084  0.4447 -0.7647
    2TTP    C3328721   8.790   7.639   4.798 -0.2691 -0.0673 -0.6107
    2TTP    C3428722   8.637   7.656   4.792 -0.3122  0.5653 -0.5738
    2TTP    C3528723   8.573   7.548   4.699  0.5374 -0.4564 -0.2145
    2TTP    C3628724   8.422   7.555   4.691 -0.2865 -0.0262 -0.4749
    2TTP    C3728725   8.364   7.477   4.578  0.0822 -0.2607 -0.1286
    2TTP    C3828726   8.217   7.467   4.585  0.5032  0.2001 -0.2781
    2TTP    C3928727   8.142   7.408   4.466  0.0535  0.4062  0.1588
    2TTP    C4028728   8.150   7.259   4.441 -0.1866  0.3311 -0.1902
    2TTP    C4128729   8.081   7.172   4.545 -0.1455  0.8525  0.0256
    2TTP    C4228730   8.070   7.030   4.492 -0.9379  0.1293 -0.4501
    3TTP     S128731   9.804   8.299   4.470 -0.0744  0.3956  0.2546
    3TTP     S528732  10.089   8.013   4.618 -0.0849  0.0992 -0.2928
    3TTP     C128733  10.175   8.129   4.508 -0.0542  0.3902  0.0346
    3TTP     C228734  10.092   8.224   4.456 -0.0491  0.4988  0.2230
    3TTP     C328735   9.958   8.209   4.501 -0.0693  0.3562  0.1154
    3TTP     C428736   9.717   8.183   4.580 -0.1051  0.1049 -0.0728
    3TTP    C1728737   9.800   8.088   4.632 -0.1102 -0.0037 -0.2613
    3TTP    C1828738   9.935   8.103   4.587 -0.0899  0.1388 -0.1539
    3TTP    C3228739  10.130   8.324   4.352  0.0667 -0.3529  0.8161
    3TTP    C3328740  10.087   8.472   4.369  0.5659 -0.1151 -0.1380
    3TTP    C3428741  10.157   8.559   4.265 -0.2422  0.2513  0.4184
    3TTP    C3528742  10.124   8.701   4.266 -0.5944 -0.4866  0.9315
    3TTP    C3628743   9.986   8.752   4.228 -0.3776  0.2740  0.2807
    3TTP    C3728744   9.979   8.897   4.193 -0.2262 -0.0382  0.2210
    3TTP    C3828745   9.840   8.955   4.190  0.2590  0.0481  0.1385
    3TTP    C3928746   9.832   9.103   4.169  0.0099 -0.1325  0.2194
    3TTP    C4028747   9.684   9.144   4.157 -0.0709 -0.4169  0.1760
    3TTP    C4128748   9.662   9.300   4.156 -0.0637  0.8442  0.4839
    3TTP    C4228749   9.519   9.343   4.145 -0.0566  0.1486 -0.0484
    4BIM     F128750   9.227   7.102   5.657 -0.1650  0.1422  0.3567
    4BIM     F228751   8.987   6.980   5.618  0.0007 -0.1161  0.1428
    4BIM     O128752   9.222   7.467   5.257 -0.2031  0.1386  0.3542
    4BIM     N528753   8.639   7.064   5.276  0.2117 -0.4898 -0.1667
    4BIM     N628754   8.684   7.374   4.972  0.1481 -0.4406 -0.1255
    4BIM    C1928755   8.992   7.480   5.078 -0.0586 -0.1092  0.1490
    4BIM    C2028756   9.002   7.393   5.180 -0.0556 -0.0983  0.1578
    4BIM    C2128757   9.124   7.393   5.268 -0.1323  0.0327  0.2662
    4BIM    C2228758   9.103   7.286   5.368 -0.1073  0.0095  0.2472
    4BIM    C2328759   9.189   7.248   5.471 -0.1574  0.1016  0.3232
    4BIM    C2428760   9.147   7.145   5.553 -0.1190  0.0565  0.2857
    4BIM    C2528761   9.024   7.082   5.533 -0.0340 -0.0767  0.1757
    4BIM    C2628762   8.938   7.119   5.430  0.0165 -0.1689  0.0993
    4BIM    C2728763   8.978   7.224   5.346 -0.0210 -0.1252  0.1355
    4BIM    C2828764   8.911   7.287   5.230  0.0141 -0.1967  0.0763
    4BIM    C2928765   8.788   7.253   5.178  0.0956 -0.3290 -0.0333
    4BIM    C3028766   8.707   7.149   5.232  0.1593 -0.4172 -0.1062
    4BIM    C3128767   8.731   7.320   5.065  0.1242 -0.3896 -0.0833
    5BIM     F128768  10.844   7.781   4.839  0.2013  0.3171  0.0409
    5BIM     F228769  10.985   7.859   4.620  0.0351 -0.0905 -0.2123
    5BIM     O128770  10.356   7.984   4.727  0.1745  0.3099  0.1433
    5BIM     N528771  10.838   8.116   4.223 -0.2229 -0.6814 -0.5033
    5BIM     N628772  10.428   8.259   4.179 -0.2103 -0.6051 -0.3722
    5BIM    C1928773  10.316   8.131   4.477  0.0062 -0.0824 -0.0621
    5BIM    C2028774  10.433   8.077   4.514  0.0195 -0.0641 -0.0780
    5BIM    C2128775  10.446   8.003   4.644  0.1079  0.1428  0.0323
    5BIM    C2228776  10.586   7.957   4.653  0.0994  0.1068 -0.0179
    5BIM    C2328777  10.645   7.884   4.755  0.1641  0.2524  0.0488
    5BIM    C2428778  10.779   7.852   4.741  0.1406  0.1816 -0.0190
    5BIM    C2528779  10.852   7.893   4.628  0.0549 -0.0285 -0.1496
    5BIM    C2628780  10.793   7.966   4.525 -0.0099 -0.1746 -0.2166
    5BIM    C2728781  10.657   7.999   4.537  0.0127 -0.1059 -0.1496
    5BIM    C2828782  10.566   8.074   4.447 -0.0399 -0.2193 -0.1917
    5BIM    C2928783  10.599   8.130   4.326 -0.1270 -0.4282 -0.3129
    5BIM    C3028784  10.730   8.122   4.270 -0.1794 -0.5670 -0.4172
    5BIM    C3128785  10.505   8.201   4.246 -0.1723 -0.5243 -0.3448
    1BTD     S228786   7.478   3.481   8.641 -0.1928 -0.1216 -0.0811
    1BTD     N128787   7.611   3.593   8.688 -0.1076 -0.2029 -0.1297
    1BTD     N228788   7.404   3.595   8.523 -0.2440 -0.0253  0.0429
    1BTD     N328789   7.496   4.028   8.366 -0.1948  0.0241  0.2077
    1BTD     N428790   7.750   4.025   8.570 -0.0268 -0.1948 -0.0048
    1BTD     C528791   7.680   3.819   8.624 -0.0674 -0.1961 -0.0618
    1BTD     C628792   7.595   3.703   8.617 -0.1211 -0.1565 -0.0546
    1BTD     C728793   7.479   3.705   8.524 -0.1974 -0.0571  0.0415
    1BTD     C828794   7.455   3.821   8.444 -0.2164 -0.0021  0.1264
    1BTD    C1528795   7.542   3.932   8.454 -0.1620 -0.0438  0.1160
    1BTD    C1628796   7.653   3.931   8.543 -0.0884 -0.1396  0.0229
    1BTD    C4328797   7.713   4.172   8.585 -0.7424  0.1134 -0.4143
    1BTD    C4428798   7.820   4.288   8.589 -0.5649 -0.1983 -0.2772
    1BTD    C4528799   7.771   4.420   8.655 -0.4836 -0.3990 -0.3603
    1BTD    C4628800   7.742   4.425   8.804  0.6792  0.4459  0.9625
    1BTD    C4728801   7.890   4.305   8.457  0.0581  0.5547  0.0632
    1BTD    C4828802   8.008   4.396   8.441 -0.1785 -0.1429  0.1251
    1BTD    C4928803   8.079   4.410   8.299 -0.3912 -0.0849  0.0509
    1BTD    C5028804   8.124   4.282   8.235  0.3847  0.3817  0.3496
    1BTD    C7528805   7.593   4.115   8.293  0.7327  0.3203  0.0414
    1BTD    C7628806   7.557   4.244   8.221  0.0489  0.0275  0.1174
    1BTD    C7728807   7.504   4.337   8.325  0.7052 -0.2599 -0.0572
    1BTD    C7828808   7.461   4.475   8.275  0.2409  0.0643  0.5354
    1BTD    C7928809   7.679   4.290   8.136 -0.2161  0.1071 -0.1082
    1BTD    C8028810   7.713   4.233   7.997 -0.5010  0.4805  0.0078
    1BTD    C8128811   7.602   4.245   7.895  0.2696 -0.2724  0.3207
    1BTD    C8228812   7.553   4.386   7.856  0.0005 -0.2390 -0.3638
    2TTP     S128813   7.932   3.750   8.781 -0.2611  0.0791  0.5367
    2TTP     S528814   8.092   4.133   8.670  0.0470 -0.1636  0.1376
    2TTP     C128815   8.222   4.039   8.754 -0.1482 -0.0290  0.5948
    2TTP     C228816   8.180   3.915   8.794 -0.2546  0.0539  0.7453
    2TTP     C328817   8.044   3.890   8.758 -0.1864  0.0141  0.5045
    2TTP     C428818   7.802   3.845   8.696 -0.0663 -0.0554  0.0792
    2TTP    C1728819   7.843   3.969   8.657  0.0404 -0.1383 -0.0708
    2TTP    C1828820   7.980   3.994   8.692 -0.0280 -0.0985  0.1698
    2TTP    C3228821   8.264   3.798   8.838 -0.1406  0.0510 -0.1852
    2TTP    C3328822   8.257   3.767   8.989 -0.2196  0.2655  0.8699
    2TTP    C3428823   8.293   3.874   9.086 -0.0689 -0.1689  0.1744
    2TTP    C3528824   8.300   3.823   9.233 -0.2307 -0.0393  0.2778
    2TTP    C3628825   8.376   3.894   9.343 -0.7938 -0.3346  0.2558
    2TTP    C3728826   8.525   3.856   9.344 -0.0084 -0.2224  0.2038
    2TTP    C3828827   8.610   3.927   9.242 -0.1275  0.4868 -0.3750
    2TTP    C3928828   8.744   3.857   9.201 -0.0959 -0.9375 -0.3496
    2TTP    C4028829   8.845   3.951   9.130  0.1894 -0.2967  1.6638
    2TTP    C4128830   8.986   3.895   9.148 -0.1242  0.4274  0.1133
    2TTP    C4228831   9.101   3.987   9.099  0.4811  0.5163  0.4580
    3TTP     S128832   7.205   3.790   8.263 -0.0935  0.0515  0.2048
    3TTP     S528833   7.257   4.197   8.135  0.0815 -0.0472 -0.0379
    3TTP     C128834   7.106   4.130   8.057  0.0506 -0.0274  0.0049
    3TTP     C228835   7.081   4.001   8.092 -0.0055  0.0042  0.0830
    3TTP     C328836   7.180   3.949   8.182 -0.0256  0.0140  0.1106
    3TTP     C428837   7.355   3.856   8.341 -0.0625  0.0318  0.1619
    3TTP    C1728838   7.380   3.986   8.306 -0.0064  0.0002  0.0840
    3TTP    C1828839   7.281   4.037   8.216  0.0138 -0.0097  0.0556
    3TTP    C3228840   6.968   3.901   8.054 -0.2949 -0.2306 -0.7769
    3TTP    C3328841   6.958   3.878   7.899  0.0056  0.2445 -1.0938
    3TTP    C3428842   6.846   3.781   7.851  0.3910 -0.6870  0.5069
    3TTP    C3528843   6.824   3.643   7.909  0.2105 -0.1443  0.3031
    3TTP    C3628844   6.952   3.561   7.928 -0.2670 -0.0151  0.1681
    3TTP    C3728845   6.940   3.409   7.917 -0.4126 -0.1848  0.7242
    3TTP    C3828846   6.898   3.346   8.044 -0.2087 -0.1219 -0.3216
    3TTP    C3928847   6.944   3.197   8.068 -0.2374  0.1462 -0.2086
    3TTP    C4028848   6.874   3.147   8.187 -0.1196  0.3369  0.0069
    3TTP    C4128849   6.923   3.005   8.217  0.4174  0.2330  0.2438
    3TTP    C4228850   6.880   2.960   8.356  0.2397  0.1097 -0.2679
    4BIM     F128851   8.565   4.781   8.805 -0.1652  0.2681  0.1230
    4BIM     F228852   8.809   4.659   8.812 -0.1190  0.3306 -0.3080
    4BIM     O128853   8.237   4.350   8.789 -0.0644  0.1878  0.2134
    4BIM     N528854   8.925   4.178   8.811  0.0193  0.3631 -0.8636
    4BIM     N628855   8.620   3.866   8.797  0.0887  0.2878 -0.7064
    4BIM    C1928856   8.354   4.081   8.790  0.0154  0.2189 -0.1666
    4BIM    C2028857   8.427   4.194   8.794 -0.0119  0.2366 -0.1724
    4BIM    C2128858   8.360   4.329   8.793 -0.0522  0.2186  0.0298
    4BIM    C2228859   8.467   4.430   8.798 -0.0739  0.2455 -0.0339
    4BIM    C2328860   8.454   4.568   8.799 -0.1128  0.2413  0.0985
    4BIM    C2428861   8.571   4.643   8.804 -0.1271  0.2703  0.0018
    4BIM    C2528862   8.696   4.580   8.808 -0.1032  0.3026 -0.2203
    4BIM    C2628863   8.710   4.442   8.807 -0.0646  0.3070 -0.3533
    4BIM    C2728864   8.593   4.365   8.802 -0.0498  0.2778 -0.2582
    4BIM    C2828865   8.573   4.218   8.799 -0.0103  0.2736 -0.3524
    4BIM    C2928866   8.671   4.122   8.802  0.0212  0.2992 -0.5655
    4BIM    C3028867   8.811   4.153   8.807  0.0203  0.3344 -0.7288
    4BIM    C3128868   8.643   3.982   8.799  0.0582  0.2928 -0.6416
    5BIM     F128869   7.129   4.844   7.642  0.0360  0.1959  0.2538
    5BIM     F228870   6.871   4.801   7.566  0.1689  0.1034 -0.1540
    5BIM     O128871   7.224   4.402   7.940 -0.2127  0.1308  0.2370
    5BIM     N528872   6.568   4.424   7.671  0.1830 -0.0764 -0.7524
    5BIM     N628873   6.694   4.088   7.920 -0.0384 -0.1087 -0.6833
    5BIM    C1928874   7.011   4.204   7.975 -0.1740  0.0191 -0.1587
    5BIM    C2028875   6.998   4.317   7.902 -0.1167  0.0392 -0.1385
    5BIM    C2128876   7.112   4.414   7.889 -0.1414  0.0968  0.0701
    5BIM    C2228877   7.063   4.525   7.805 -0.0645  0.1053  0.0367
    5BIM    C2328878   7.133   4.638   7.765 -0.0561  0.1526  0.1844
    5BIM    C2428879   7.066   4.729   7.685  0.0232  0.1506  0.1158
    5BIM    C2528880   6.933   4.707   7.646  0.0916  0.1029 -0.0943
    5BIM    C2628881   6.863   4.594   7.685  0.0837  0.0556 -0.2424
    5BIM    C2728882   6.929   4.500   7.767  0.0041  0.0566 -0.1761
    5BIM    C2828883   6.883   4.372   7.825 -0.0255  0.0141 -0.2921
    5BIM    C2928884   6.759   4.315   7.810  0.0228 -0.0384 -0.5018
    5BIM    C3028885   6.655   4.375   7.734  0.1106 -0.0591 -0.6387
    5BIM    C3128886   6.724   4.190   7.871 -0.0110 -0.0768 -0.6003
    1BTD     S228887   5.938   5.595   1.083 -0.0260 -0.1946  0.1385
    1BTD     N128888   5.814   5.511   0.983 -0.1011 -0.1281  0.1751
    1BTD     N228889   5.972   5.452   1.187  0.0032 -0.2435  0.0614
    1BTD     N328890   5.818   5.009   1.216 -0.0726 -0.2235 -0.0297
    1BTD     N428891   5.624   5.082   0.965 -0.2012 -0.0813  0.1105
    1BTD     C528892   5.717   5.286   0.977 -0.1519 -0.1055  0.1397
    1BTD     C628893   5.805   5.387   1.029 -0.1005 -0.1451  0.1303
    1BTD     C728894   5.893   5.354   1.143 -0.0420 -0.2096  0.0666
    1BTD     C828895   5.889   5.222   1.199 -0.0379 -0.2313  0.0155
    1BTD    C1528896   5.802   5.126   1.144 -0.0894 -0.1908  0.0269
    1BTD    C1628897   5.717   5.158   1.034 -0.1454 -0.1286  0.0883
    1BTD    C4328898   5.549   4.975   1.021 -0.3564  0.4878 -0.3478
    1BTD    C4428899   5.477   4.862   0.944  0.0783  0.0709 -0.5299
    1BTD    C4528900   5.585   4.788   0.859 -0.1570 -0.0390  0.1595
    1BTD    C4628901   5.533   4.680   0.766  0.3683  0.4394 -0.4384
    1BTD    C4728902   5.376   4.773   1.020 -0.0694  0.4925 -0.3337
    1BTD    C4828903   5.249   4.831   1.081 -0.7523  0.3969 -0.7852
    1BTD    C4928904   5.140   4.875   0.993  0.0947  0.1568  0.2937
    1BTD    C5028905   5.092   4.777   0.886 -0.4131  0.0615  0.1139
    1BTD    C7528906   5.827   4.881   1.142  0.4812 -0.8453 -0.3915
    1BTD    C7628907   5.803   4.746   1.208 -0.0230 -0.3374  0.0783
    1BTD    C7728908   5.848   4.627   1.129  0.3193  0.5532  0.0847
    1BTD    C7828909   6.003   4.595   1.115  0.5281 -0.7158 -0.1688
    1BTD    C7928910   5.669   4.714   1.276 -1.0576 -0.5809  0.0592
    1BTD    C8028911   5.608   4.828   1.352 -0.3992 -0.0411 -0.1688
    1BTD    C8128912   5.468   4.791   1.398  0.6269 -0.4974  0.0407
    1BTD    C8228913   5.418   4.903   1.491 -0.1652 -0.0542 -0.7293
    2TTP     S128914   5.561   5.400   0.742  0.2639  0.0806  0.1722
    2TTP     S528915   5.378   5.015   0.684  0.6620 -0.1088  0.1645
    2TTP     C128916   5.319   5.128   0.554  0.7241 -0.2323  0.0292
    2TTP     C228917   5.372   5.253   0.564  0.6049 -0.1810  0.0236
    2TTP     C328918   5.461   5.265   0.676  0.4601 -0.0426  0.1259
    2TTP     C428919   5.620   5.288   0.873  0.2019  0.2038  0.3074
    2TTP    C1728920   5.567   5.162   0.863  0.3211  0.1528  0.3130
    2TTP    C1828921   5.478   5.150   0.751  0.4659  0.0142  0.2107
    2TTP    C3228922   5.328   5.377   0.490  0.7021  0.2234  0.0147
    2TTP    C3328923   5.421   5.493   0.453  0.1039 -0.6604 -0.2027
    2TTP    C3428924   5.368   5.564   0.334 -0.2503 -0.4393 -0.1406
    2TTP    C3528925   5.434   5.710   0.316  0.3364 -0.2870  0.5667
    2TTP    C3628926   5.352   5.836   0.288  0.1244  0.4407  1.0017
    2TTP    C3728927   5.255   5.837   0.163 -0.4862 -0.3478  0.2109
    2TTP    C3828928   5.187   5.971   0.165  0.4318 -0.5227  0.0645
    2TTP    C3928929   5.110   6.000   0.036 -1.6393 -0.4194 -0.3159
    2TTP    C4028930   5.116   6.154   0.013  0.6463  0.1338 -0.0920
    2TTP    C4128931   5.049   6.204  -0.113  0.0592 -0.3327  0.8728
    2TTP    C4228932   5.076   6.350  -0.134 -0.3275  0.5853  0.2314
    3TTP     S128933   6.084   5.199   1.437  0.1084 -0.1329  0.2487
    3TTP     S528934   5.955   4.793   1.490 -0.3725  0.0343  0.3719
    3TTP     C128935   6.078   4.832   1.618 -0.2003 -0.1254  0.2556
    3TTP     C228936   6.125   4.959   1.609 -0.0416 -0.1864  0.2107
    3TTP     C328937   6.066   5.031   1.501 -0.0503 -0.1093  0.2665
    3TTP     C428938   5.961   5.161   1.309 -0.0638  0.0268  0.3650
    3TTP    C1728939   5.914   5.033   1.318 -0.2225  0.0878  0.4099
    3TTP    C1828940   5.973   4.961   1.426 -0.2137  0.0107  0.3541
    3TTP    C3228941   6.228   5.033   1.705  0.6507 -0.9803  0.0071
    3TTP    C3328942   6.153   5.096   1.825  0.1258 -0.2283  0.1381
    3TTP    C3428943   6.105   5.008   1.944 -0.4035  0.5641  0.0183
    3TTP    C3528944   6.012   5.075   2.049 -0.1252  0.2344  0.5836
    3TTP    C3628945   5.891   5.153   1.991 -0.1922  0.5376 -0.2306
    3TTP    C3728946   5.803   5.204   2.097  0.2820 -0.6397 -0.1656
    3TTP    C3828947   5.673   5.262   2.036 -0.3621 -0.2295 -0.1210
    3TTP    C3928948   5.581   5.341   2.132 -0.1924  0.2692 -0.6407
    3TTP    C4028949   5.516   5.264   2.246  0.1794  0.1483 -0.5334
    3TTP    C4128950   5.389   5.339   2.282  0.0440  0.2460 -0.7383
    3TTP    C4228951   5.316   5.270   2.399  0.2121 -0.3010  0.4729
    4BIM     F128952   4.937   4.445   0.318  0.2167 -0.0201 -0.0414
    4BIM     F228953   4.790   4.593   0.142  0.1829  0.0013  0.0047
    4BIM     O128954   5.245   4.830   0.543  0.0114  0.0049  0.1973
    4BIM     N528955   4.799   5.079   0.050 -0.0119  0.0499  0.2412
    4BIM     N628956   5.069   5.350   0.261 -0.1655  0.0652  0.4184
    4BIM    C1928957   5.214   5.107   0.455 -0.0939  0.0342  0.3261
    4BIM    C2028958   5.142   5.005   0.405 -0.0408  0.0271  0.2643
    4BIM    C2128959   5.164   4.865   0.455  0.0112  0.0120  0.2003
    4BIM    C2228960   5.070   4.779   0.381  0.0614  0.0075  0.1426
    4BIM    C2328961   5.054   4.641   0.393  0.1190 -0.0057  0.0732
    4BIM    C2428962   4.959   4.581   0.311  0.1589 -0.0075  0.0280
    4BIM    C2528963   4.883   4.657   0.221  0.1413  0.0035  0.0519
    4BIM    C2628964   4.900   4.795   0.208  0.0842  0.0167  0.1211
    4BIM    C2728965   4.995   4.857   0.290  0.0430  0.0187  0.1676
    4BIM    C2828966   5.036   4.999   0.301 -0.0206  0.0314  0.2434
    4BIM    C2928967   4.986   5.105   0.230 -0.0540  0.0441  0.2859
    4BIM    C3028968   4.883   5.090   0.131 -0.0308  0.0474  0.2612
    4BIM    C3128969   5.032   5.239   0.248 -0.1152  0.0556  0.3585
    5BIM     F128970   5.886   4.062   1.835 -0.2776  0.1131  0.0864
    5BIM     F228971   6.113   4.054   1.984 -0.1060 -0.0488 -0.1832
    5BIM     O128972   5.908   4.567   1.642 -0.2011  0.1321  0.1446
    5BIM     N528973   6.457   4.402   2.061  0.1956 -0.2681 -0.5292
    5BIM     N628974   6.429   4.798   1.880  0.2208 -0.2205 -0.4293
    5BIM    C1928975   6.134   4.739   1.716 -0.0099 -0.0159 -0.0922
    5BIM    C2028976   6.119   4.612   1.759 -0.0359 -0.0143 -0.0963
    5BIM    C2128977   6.001   4.530   1.717 -0.1357  0.0643  0.0297
    5BIM    C2228978   6.016   4.398   1.780 -0.1395  0.0443 -0.0104
    5BIM    C2328979   5.930   4.289   1.771 -0.2172  0.0973  0.0719
    5BIM    C2428980   5.966   4.174   1.841 -0.2037  0.0643  0.0110
    5BIM    C2528981   6.083   4.170   1.917 -0.1154 -0.0191 -0.1279
    5BIM    C2628982   6.169   4.279   1.927 -0.0373 -0.0725 -0.2106
    5BIM    C2728983   6.135   4.396   1.857 -0.0495 -0.0402 -0.1507
    5BIM    C2828984   6.203   4.527   1.847  0.0176 -0.0794 -0.2091
    5BIM    C2928985   6.321   4.563   1.908  0.1116 -0.1607 -0.3422
    5BIM    C3028986   6.395   4.474   1.992  0.1574 -0.2193 -0.4445
    5BIM    C3128987   6.379   4.692   1.892  0.1709 -0.1932 -0.3894
    1BTD     S228988   0.229   6.858   2.331 -0.0775 -0.2440 -0.1138
    1BTD     N128989   0.083   6.789   2.252 -0.1041 -0.0961 -0.1934
    1BTD     N228990   0.156   7.020   2.359  0.0462 -0.1928 -0.0874
    1BTD     N328991  -0.256   7.227   2.273  0.2501  0.1787 -0.1769
    1BTD     N428992  -0.347   6.943   2.141  0.0648  0.2980 -0.3076
    1BTD     C528993  -0.140   6.873   2.196 -0.0136  0.1082 -0.2514
    1BTD     C628994  -0.008   6.886   2.251 -0.0236 -0.0199 -0.1959
    1BTD     C728995   0.033   7.015   2.311  0.0605 -0.0743 -0.1366
    1BTD     C828996  -0.060   7.124   2.313  0.1504  0.0025 -0.1357
    1BTD    C1528997  -0.189   7.107   2.258  0.1567  0.1277 -0.1912
    1BTD    C1628998  -0.228   6.983   2.200  0.0757  0.1798 -0.2482
    1BTD    C4328999  -0.441   7.032   2.068 -0.0437  1.1059 -0.3258
    1BTD    C4429000  -0.594   7.003   2.051  0.2602 -0.7758  0.7413
    1BTD    C4529001  -0.674   6.974   2.176  0.3476 -0.4745 -0.4978
    1BTD    C4629002  -0.828   6.950   2.172  0.3583 -0.5344  0.4713
    1BTD    C4729003  -0.651   7.104   1.944 -0.2989 -0.0614 -0.6386
    1BTD    C4829004  -0.600   7.114   1.804 -0.5020  0.0531 -0.1255
    1BTD    C4929005  -0.684   7.210   1.707 -0.5103 -0.1248  0.1856
    1BTD    C5029006  -0.703   7.354   1.753  0.2270 -0.0542  0.0521
    1BTD    C7529007  -0.389   7.232   2.335 -0.0360  0.2534  0.2483
    1BTD    C7629008  -0.478   7.358   2.308  0.1354 -0.5017 -0.2512
    1BTD    C7729009  -0.592   7.373   2.409 -0.1468  0.1532  0.8444
    1BTD    C7829010  -0.690   7.255   2.423 -0.5697 -0.6069  0.1602
    1BTD    C7929011  -0.518   7.381   2.162  0.1170  0.1052 -0.1128
    1BTD    C8029012  -0.579   7.514   2.108  0.1785 -0.2619 -0.0665
    1BTD    C8129013  -0.726   7.563   2.136 -0.1405  0.3775 -0.3394
    1BTD    C8229014  -0.838   7.471   2.095  0.1964  0.1421  0.4152
    2TTP     S129015  -0.186   6.586   2.109  0.0190  0.3092  0.0473
    2TTP     S529016  -0.582   6.688   1.974  0.0272  0.0473 -0.1759
    2TTP     C129017  -0.554   6.511   1.942  0.1570  0.0627 -0.1473
    2TTP     C229018  -0.430   6.469   1.982  0.1621  0.1445 -0.0767
    2TTP     C329019  -0.353   6.576   2.039  0.0634  0.1981 -0.0426
    2TTP     C429020  -0.214   6.763   2.140 -0.1106  0.2940  0.0187
    2TTP    C1729021  -0.338   6.805   2.100 -0.1162  0.2122 -0.0519
    2TTP    C1829022  -0.415   6.699   2.044 -0.0176  0.1585 -0.0859
    2TTP    C3229023  -0.377   6.324   1.971 -0.2062 -0.1590 -1.1754
    2TTP    C3329024  -0.352   6.268   2.115 -0.0259  0.1361  0.4579
    2TTP    C3429025  -0.292   6.127   2.125 -0.3909  0.1278  0.1095
    2TTP    C3529026  -0.149   6.124   2.072 -0.0820 -0.8082 -0.1684
    2TTP    C3629027  -0.074   5.998   2.062  0.3516  0.2110 -0.3720
    2TTP    C3729028   0.072   6.016   2.040  0.3574 -0.1663  0.1779
    2TTP    C3829029   0.162   5.909   2.093  0.5553 -0.3712 -0.5898
    2TTP    C3929030   0.299   5.958   2.136  0.2944 -0.7628  0.2989
    2TTP    C4029031   0.388   5.855   2.197 -0.9073 -0.4297  0.5363
    2TTP    C4129032   0.533   5.902   2.210  0.0078  0.4062  0.5698
    2TTP    C4229033   0.636   5.793   2.250  0.1893 -0.1701 -0.1437
    3TTP     S129034   0.091   7.375   2.377  0.1955  0.2613  0.5077
    3TTP     S529035  -0.257   7.605   2.273  0.1235 -0.0601  0.0287
    3TTP     C129036  -0.119   7.719   2.303 -0.0794  0.0820  0.4495
    3TTP     C229037  -0.003   7.655   2.336 -0.0694  0.1894  0.6222
    3TTP     C329038  -0.020   7.513   2.340  0.0992  0.1637  0.4284
    3TTP     C429039  -0.047   7.260   2.347  0.3984  0.1193  0.0869
    3TTP    C1729040  -0.163   7.325   2.314  0.3880  0.0118 -0.0858
    3TTP    C1829041  -0.147   7.467   2.310  0.2196  0.0376  0.1079
    3TTP    C3229042   0.135   7.705   2.378  0.3483  0.2128  0.3336
    3TTP    C3329043   0.180   7.684   2.525  0.1216 -0.6620 -0.2574
    3TTP    C3429044   0.316   7.718   2.568 -1.0031  0.1011 -0.0462
    3TTP    C3529045   0.359   7.859   2.553 -0.4666  0.1100 -0.0280
    3TTP    C3629046   0.499   7.862   2.599 -0.3742  0.5848 -1.1403
    3TTP    C3729047   0.565   7.998   2.625  0.8097 -0.6373  0.2192
    3TTP    C3829048   0.568   8.093   2.506 -0.2532  0.6533 -0.2516
    3TTP    C3929049   0.663   8.197   2.533 -1.0669 -0.6263  0.0026
    3TTP    C4029050   0.723   8.267   2.413  1.0352 -0.9995  0.3120
    3TTP    C4129051   0.816   8.374   2.470 -0.2519  0.1736  0.0525
    3TTP    C4229052   0.916   8.417   2.362 -0.0576  0.6754 -0.3322
    4BIM     F129053  -1.218   6.619   1.476  0.1099 -0.0397 -0.1803
    4BIM     F229054  -1.272   6.354   1.503  0.0648 -0.0187 -0.0659
    4BIM     O129055  -0.754   6.657   1.752  0.1369 -0.0072 -0.2303
    4BIM     N529056  -1.019   6.000   1.739  0.0196  0.0347  0.0630
    4BIM     N629057  -0.645   6.083   1.949  0.0498  0.0558  0.0008
    4BIM    C1929058  -0.641   6.418   1.876  0.1038  0.0244 -0.1388
    4BIM    C2029059  -0.755   6.418   1.806  0.0987  0.0154 -0.1307
    4BIM    C2129060  -0.807   6.546   1.745  0.1168 -0.0008 -0.1799
    4BIM    C2229061  -0.933   6.511   1.676  0.1051 -0.0074 -0.1563
    4BIM    C2329062  -1.017   6.596   1.605  0.1152 -0.0221 -0.1855
    4BIM    C2429063  -1.130   6.541   1.548  0.1011 -0.0255 -0.1540
    4BIM    C2529064  -1.158   6.404   1.562  0.0779 -0.0146 -0.0951
    4BIM    C2629065  -1.075   6.318   1.633  0.0682  0.0000 -0.0657
    4BIM    C2729066  -0.959   6.373   1.691  0.0820  0.0037 -0.0968
    4BIM    C2829067  -0.851   6.310   1.771  0.0772  0.0182 -0.0788
    4BIM    C2929068  -0.842   6.178   1.807  0.0563  0.0315 -0.0242
    4BIM    C3029069  -0.939   6.080   1.769  0.0362  0.0331  0.0236
    4BIM    C3129070  -0.734   6.126   1.885  0.0532  0.0447 -0.0107
    5BIM     F129071  -0.628   8.252   1.945 -0.0443 -0.1559  0.0911
    5BIM     F229072  -0.483   8.455   2.053  0.0057 -0.1400 -0.0049
    5BIM     O129073  -0.351   7.822   2.123  0.0746 -0.1280 -0.0260
    5BIM     N529074  -0.077   8.442   2.335  0.1628 -0.0966 -0.2266
    5BIM     N629075   0.110   8.065   2.453  0.2460 -0.0777 -0.2987
    5BIM    C1929076  -0.114   7.864   2.290  0.1650 -0.1025 -0.1595
    5BIM    C2029077  -0.189   7.964   2.241  0.1330 -0.1100 -0.1262
    5BIM    C2129078  -0.310   7.935   2.156  0.0875 -0.1233 -0.0578
    5BIM    C2229079  -0.368   8.065   2.120  0.0610 -0.1290 -0.0363
    5BIM    C2329080  -0.481   8.089   2.042  0.0167 -0.1409  0.0237
    5BIM    C2429081  -0.518   8.221   2.021 -0.0007 -0.1444  0.0329
    5BIM    C2529082  -0.443   8.326   2.077  0.0247 -0.1363 -0.0167
    5BIM    C2629083  -0.330   8.303   2.154  0.0694 -0.1242 -0.0767
    5BIM    C2729084  -0.292   8.170   2.177  0.0877 -0.1206 -0.0868
    5BIM    C2829085  -0.179   8.112   2.253  0.1330 -0.1087 -0.1441
    5BIM    C2929086  -0.083   8.182   2.323  0.1683 -0.0980 -0.2026
    5BIM    C3029087  -0.080   8.324   2.329  0.1652 -0.0973 -0.2155
    5BIM    C3129088   0.023   8.117   2.394  0.2108 -0.0868 -0.2550
    1BTD     S229089   4.583   4.616   4.120 -0.2395  0.1772  0.1797
    1BTD     N129090   4.695   4.741   4.055 -0.1762  0.0937  0.1274
    1BTD     N229091   4.713   4.521   4.202 -0.2798  0.1143  0.1715
    1BTD     N329092   5.179   4.555   4.250 -0.2476 -0.1646  0.0602
    1BTD     N429093   5.156   4.825   4.069 -0.1198 -0.1899  0.0061
    1BTD     C529094   4.936   4.782   4.065 -0.1483 -0.0541  0.0646
    1BTD     C629095   4.817   4.707   4.095 -0.1878  0.0267  0.1075
    1BTD     C729096   4.827   4.585   4.177 -0.2457  0.0383  0.1322
    1BTD     C829097   4.956   4.542   4.225 -0.2615 -0.0315  0.1128
    1BTD    C1529098   5.070   4.618   4.192 -0.2214 -0.1095  0.0707
    1BTD    C1629099   5.060   4.736   4.113 -0.1655 -0.1209  0.0469
    1BTD    C4329100   5.282   4.869   4.139  0.3013 -0.3035  0.3199
    1BTD    C4429101   5.411   4.921   4.075  0.3129  0.9931 -0.0128
    1BTD    C4529102   5.510   4.993   4.164 -0.2602  0.2546  0.2272
    1BTD    C4629103   5.473   5.124   4.236  0.0047  0.5804  0.2291
    1BTD    C4729104   5.472   4.813   3.984  0.1802  0.3606  0.0006
    1BTD    C4829105   5.612   4.836   3.915  0.1973  0.0316 -0.6005
    1BTD    C4929106   5.599   4.950   3.813 -0.0143  0.5526  0.0090
    1BTD    C5029107   5.741   5.013   3.789  0.0418  0.2466  0.8459
    1BTD    C7529108   5.315   4.547   4.191 -0.3559  0.0904  0.5398
    1BTD    C7629109   5.451   4.523   4.266 -0.1180 -0.3862  0.3922
    1BTD    C7729110   5.559   4.496   4.168  0.0077 -0.6432  0.3443
    1BTD    C7829111   5.553   4.371   4.087  0.5391  0.0055  0.9064
    1BTD    C7929112   5.480   4.646   4.354 -0.3213  0.5960 -0.1362
    1BTD    C8029113   5.593   4.661   4.447 -0.5126  0.5674 -0.0213
    1BTD    C8129114   5.622   4.542   4.543  0.7930  0.2333 -0.6383
    1BTD    C8229115   5.717   4.563   4.660 -0.7087  0.1811  0.2902
    2TTP     S129116   4.862   5.010   3.882  0.1110  0.1120  0.1027
    2TTP     S529117   5.279   5.099   3.824  0.2117 -0.6844 -0.4289
    2TTP     C129118   5.180   5.211   3.720  0.2956 -0.5462 -0.3598
    2TTP     C229119   5.046   5.190   3.732  0.2695 -0.2921 -0.1916
    2TTP     C329120   5.016   5.085   3.823  0.1822 -0.1974 -0.1112
    2TTP     C429121   4.960   4.898   3.986  0.0271 -0.0262  0.0336
    2TTP    C1729122   5.094   4.919   3.974  0.0531 -0.2802 -0.1347
    2TTP    C1829123   5.125   5.024   3.883  0.1405 -0.3749 -0.2151
    2TTP    C3229124   4.937   5.262   3.646 -0.5378 -0.2003 -0.2399
    2TTP    C3329125   4.906   5.409   3.683 -0.1930  0.3792 -0.0455
    2TTP    C3429126   4.805   5.484   3.591  0.1224  0.4947 -0.4232
    2TTP    C3529127   4.663   5.425   3.601  0.4003  0.5491  0.1576
    2TTP    C3629128   4.593   5.458   3.731  0.2925 -0.0984  0.6103
    2TTP    C3729129   4.442   5.435   3.708 -0.3080 -0.1958  0.2391
    2TTP    C3829130   4.357   5.492   3.815  0.4775 -0.7745  0.3536
    2TTP    C3929131   4.206   5.510   3.785 -0.0062  0.3863  0.9638
    2TTP    C4029132   4.133   5.554   3.906  0.2660 -0.2470 -0.2801
    2TTP    C4129133   4.030   5.649   3.853  0.2456  0.4525 -0.1641
    2TTP    C4229134   3.964   5.735   3.963  0.1663  0.0633  0.0759
    3TTP     S129135   4.926   4.277   4.364 -0.0667  0.2223  0.2674
    3TTP     S529136   5.348   4.275   4.447  0.0906 -0.0893 -0.5270
    3TTP     C129137   5.275   4.121   4.513  0.0723  0.0362 -0.2513
    3TTP     C229138   5.141   4.113   4.491  0.0228  0.1398  0.0105
    3TTP     C329139   5.090   4.228   4.422 -0.0026  0.1237  0.0024
    3TTP     C429140   4.999   4.430   4.299 -0.0484  0.0968 -0.0083
    3TTP    C1729141   5.134   4.439   4.320  0.0011 -0.0071 -0.2701
    3TTP    C1829142   5.184   4.324   4.390  0.0266  0.0091 -0.2620
    3TTP    C3229143   5.056   4.004   4.549  0.1732  0.6188 -0.2470
    3TTP    C3329144   4.972   3.920   4.457  0.5219 -0.0951  0.7832
    3TTP    C3429145   4.884   3.824   4.538  0.3699  0.2932 -0.4788
    3TTP    C3529146   4.768   3.763   4.462  0.0024  0.0972  0.5592
    3TTP    C3629147   4.683   3.680   4.553 -0.0928 -0.4254  0.2547
    3TTP    C3729148   4.549   3.654   4.495  0.0666 -0.2934 -0.3346
    3TTP    C3829149   4.433   3.753   4.505 -0.4567  0.2640 -0.6079
    3TTP    C3929150   4.302   3.709   4.436  0.3314  0.1685 -0.2160
    3TTP    C4029151   4.232   3.581   4.476  0.3094 -0.0365 -0.4303
    3TTP    C4129152   4.125   3.523   4.380 -0.7250  0.5254  0.0516
    3TTP    C4229153   4.034   3.406   4.434 -0.0511 -0.9260  1.0749
    4BIM     F129154   5.904   5.585   3.638  0.2651 -0.4829 -0.4107
    4BIM     F229155   5.813   5.693   3.405  0.0018  0.2798  0.0368
    4BIM     O129156   5.466   5.314   3.803  0.2795 -0.5833 -0.5365
    4BIM     N529157   5.370   5.654   3.188 -0.3663  1.3047  0.5905
    4BIM     N629158   5.046   5.420   3.364 -0.3022  1.0726  0.4019
    4BIM    C1929159   5.224   5.320   3.639  0.0329  0.1099 -0.1537
    4BIM    C2029160   5.337   5.384   3.607  0.0398  0.1051 -0.1395
    4BIM    C2129161   5.458   5.376   3.696  0.1700 -0.2626 -0.3438
    4BIM    C2229162   5.563   5.456   3.632  0.1419 -0.1659 -0.2697
    4BIM    C2329163   5.693   5.479   3.677  0.2317 -0.4129 -0.3997
    4BIM    C2429164   5.775   5.559   3.599  0.1818 -0.2551 -0.2921
    4BIM    C2529165   5.728   5.614   3.479  0.0462  0.1379 -0.0616
    4BIM    C2629166   5.599   5.592   3.433 -0.0441  0.3862  0.0692
    4BIM    C2729167   5.514   5.511   3.511  0.0046  0.2317 -0.0367
    4BIM    C2829168   5.373   5.469   3.491 -0.0637  0.4138  0.0524
    4BIM    C2929169   5.292   5.502   3.385 -0.1969  0.7955  0.2711
    4BIM    C3029170   5.336   5.585   3.277 -0.2897  1.0742  0.4459
    4BIM    C3129171   5.157   5.457   3.374 -0.2540  0.9458  0.3418
    5BIM     F129172   6.028   4.069   4.841  0.0585  0.1529  0.0249
    5BIM     F229173   6.005   3.798   4.835  0.2412  0.1424 -0.2704
    5BIM     O129174   5.545   4.217   4.646 -0.0616  0.0408  0.2372
    5BIM     N529175   5.627   3.514   4.689  0.4182  0.0473 -0.5437
    5BIM     N629176   5.254   3.684   4.538  0.2877 -0.0381 -0.3184
    5BIM    C1929177   5.351   4.011   4.572  0.0703 -0.0091  0.0305
    5BIM    C2029178   5.473   3.984   4.621  0.0933  0.0196 -0.0116
    5BIM    C2129179   5.567   4.096   4.657  0.0217  0.0441  0.1014
    5BIM    C2229180   5.691   4.032   4.707  0.0697  0.0721  0.0188
    5BIM    C2329181   5.806   4.095   4.752  0.0319  0.1009  0.0759
    5BIM    C2429182   5.910   4.014   4.795  0.0913  0.1241 -0.0241
    5BIM    C2529183   5.898   3.874   4.792  0.1854  0.1186 -0.1761
    5BIM    C2629184   5.783   3.811   4.747  0.2235  0.0900 -0.2337
    5BIM    C2729185   5.677   3.891   4.704  0.1646  0.0662 -0.1343
    5BIM    C2829186   5.543   3.856   4.651  0.1829  0.0336 -0.1590
    5BIM    C2929187   5.493   3.729   4.633  0.2667  0.0194 -0.2931
    5BIM    C3029188   5.567   3.611   4.664  0.3496  0.0347 -0.4305
    5BIM    C3129189   5.362   3.705   4.581  0.2778 -0.0122 -0.3062
    1BTD     S229190   1.495   2.877   7.777  0.0976  0.1972  0.1990
    1BTD     N129191   1.372   2.975   7.692 -0.2703  0.1275  0.6412
    1BTD     N229192   1.594   3.018   7.828  0.3185  0.2382 -0.3355
    1BTD     N329193   1.572   3.485   7.776  0.1042  0.1961 -0.6267
    1BTD     N429194   1.298   3.431   7.608 -0.6213  0.0596  0.5770
    1BTD     C529195   1.336   3.214   7.650 -0.4448  0.0937  0.5933
    1BTD     C629196   1.408   3.102   7.704 -0.2126  0.1379  0.3810
    1BTD     C729197   1.533   3.126   7.781  0.1170  0.1999 -0.1656
    1BTD     C829198   1.579   3.261   7.799  0.1979  0.2146 -0.4729
    1BTD    C1529199   1.506   3.368   7.743 -0.0373  0.1699 -0.2489
    1BTD    C1629200   1.386   3.344   7.670 -0.3549  0.1102  0.2779
    1BTD    C4329201   1.338   3.558   7.535 -0.2925  0.2453 -0.0020
    1BTD    C4429202   1.258   3.680   7.493 -0.0366  0.0960  0.2228
    1BTD    C4529203   1.332   3.779   7.397 -0.7972 -0.4231 -0.1017
    1BTD    C4629204   1.351   3.716   7.257  0.5131  0.6906  0.0448
    1BTD    C4729205   1.187   3.746   7.612 -0.0898  0.1049  0.2509
    1BTD    C4829206   1.076   3.851   7.586  0.0163  0.5140  0.2449
    1BTD    C4929207   1.008   3.881   7.717 -0.4909 -0.1074  0.3694
    1BTD    C5029208   0.907   3.990   7.696  0.3070 -0.8518 -0.3299
    1BTD    C7529209   1.498   3.608   7.825  0.2906 -0.4463 -0.2996
    1BTD    C7629210   1.552   3.749   7.805 -0.0217 -0.5513  0.1254
    1BTD    C7729211   1.453   3.859   7.851 -0.1829 -0.2460  0.2236
    1BTD    C7829212   1.398   3.861   7.994 -0.0645  0.7399  0.5363
    1BTD    C7929213   1.618   3.768   7.669 -0.6879 -0.1782  0.4376
    1BTD    C8029214   1.682   3.901   7.628  0.3090  0.0995  0.1146
    1BTD    C8129215   1.752   3.884   7.487  0.2015 -0.4977  0.5594
    1BTD    C8229216   1.736   4.007   7.402  0.4591 -0.3205  1.1176
    2TTP     S129217   1.071   3.116   7.544 -0.0524 -0.0709 -0.2160
    2TTP     S529218   0.951   3.525   7.487 -0.0928 -0.0135  0.2745
    2TTP     C129219   0.809   3.418   7.451 -0.0528  0.0097  0.0449
    2TTP     C229220   0.837   3.285   7.466 -0.0379 -0.0067 -0.1200
    2TTP     C329221   0.973   3.264   7.507 -0.0576 -0.0381 -0.0710
    2TTP     C429222   1.213   3.224   7.580 -0.0924 -0.0940  0.0137
    2TTP    C1729223   1.184   3.357   7.564 -0.1072 -0.0777  0.1786
    2TTP    C1829224   1.049   3.378   7.524 -0.0875 -0.0463  0.1296
    2TTP    C3229225   0.747   3.160   7.462 -0.9665 -0.1258  0.2384
    2TTP    C3329226   0.770   3.065   7.342 -0.1483  0.1607  0.1511
    2TTP    C3429227   0.736   3.097   7.189  0.0852  0.4983  0.3788
    2TTP    C3529228   0.610   3.182   7.166  0.3973 -0.2766  0.1869
    2TTP    C3629229   0.601   3.218   7.016  0.0952 -0.1585 -0.3519
    2TTP    C3729230   0.475   3.291   6.970  0.0207 -0.1818  0.1225
    2TTP    C3829231   0.348   3.208   6.995 -0.4775 -0.6490  0.8149
    2TTP    C3929232   0.217   3.283   6.955  0.3581 -0.2813  1.2239
    2TTP    C4029233   0.096   3.193   6.955 -0.2883  0.6061 -0.0299
    2TTP    C4129234   0.045   3.149   7.086  0.4509  0.3931 -0.5324
    2TTP    C4229235   0.008   3.249   7.195 -0.2430 -0.0492 -0.1157
    3TTP     S129236   1.822   3.255   7.975 -0.1350 -0.1467 -0.0459
    3TTP     S529237   1.814   3.685   7.980 -0.1539 -0.1497  0.2450
    3TTP     C129238   1.948   3.628   8.089 -0.1513 -0.2177  0.2067
    3TTP     C229239   1.958   3.492   8.094 -0.1453 -0.2207  0.1147
    3TTP     C329240   1.861   3.427   8.012 -0.1426 -0.1696  0.0710
    3TTP     C429241   1.688   3.311   7.866 -0.1376 -0.0787 -0.0077
    3TTP    C1729242   1.677   3.447   7.861 -0.1436 -0.0756  0.0843
    3TTP    C1829243   1.775   3.512   7.943 -0.1464 -0.1269  0.1279
    3TTP    C3229244   2.069   3.401   8.158  0.1071  0.5196 -0.7102
    3TTP    C3329245   2.190   3.340   8.085 -0.4386 -0.3798 -0.2982
    3TTP    C3429246   2.292   3.442   8.020  0.3447  0.4418  0.1702
    3TTP    C3529247   2.374   3.527   8.107 -0.6540 -0.0703 -0.0640
    3TTP    C3629248   2.473   3.608   8.032 -0.9500 -0.3025  0.2266
    3TTP    C3729249   2.564   3.696   8.122 -0.0862  0.0531  0.4526
    3TTP    C3829250   2.685   3.765   8.055 -0.1660 -0.1516 -0.1312
    3TTP    C3929251   2.787   3.672   7.985  0.8915 -0.3770  0.4525
    3TTP    C4029252   2.846   3.730   7.865 -0.1541  0.2378  0.3420
    3TTP    C4129253   2.950   3.629   7.815  0.8399  0.5707  0.3827
    3TTP    C4229254   3.000   3.646   7.671 -0.4026  0.4755  0.3685
    4BIM     F129255   0.421   4.141   7.379 -0.0878  0.0366  0.0489
    4BIM     F229256   0.185   4.006   7.378 -0.0684  0.0023 -0.4144
    4BIM     O129257   0.773   3.731   7.415 -0.0786  0.0542  0.1606
    4BIM     N529258   0.095   3.520   7.402 -0.0340 -0.0346 -1.0010
    4BIM     N629259   0.417   3.227   7.430 -0.0307 -0.0140 -0.8204
    4BIM    C1929260   0.672   3.456   7.426 -0.0568  0.0276 -0.2423
    4BIM    C2029261   0.592   3.565   7.418 -0.0599  0.0246 -0.2524
    4BIM    C2129262   0.652   3.703   7.412 -0.0712  0.0389 -0.0377
    4BIM    C2229263   0.539   3.797   7.403 -0.0718  0.0311 -0.1094
    4BIM    C2329264   0.544   3.936   7.395 -0.0807  0.0394  0.0293
    4BIM    C2429265   0.423   4.004   7.387 -0.0794  0.0292 -0.0779
    4BIM    C2529266   0.301   3.934   7.386 -0.0693  0.0116 -0.3167
    4BIM    C2629267   0.295   3.795   7.394 -0.0604  0.0034 -0.4563
    4BIM    C2729268   0.417   3.725   7.402 -0.0617  0.0133 -0.3508
    4BIM    C2829269   0.445   3.580   7.411 -0.0539  0.0086 -0.4481
    4BIM    C2929270   0.352   3.478   7.414 -0.0433 -0.0076 -0.6760
    4BIM    C3029271   0.211   3.502   7.407 -0.0382 -0.0225 -0.8540
    4BIM    C3129272   0.389   3.341   7.423 -0.0364 -0.0110 -0.7540
    5BIM     F129273   2.127   4.431   8.118  0.3425 -0.0792 -0.0386
    5BIM     F229274   2.258   4.386   8.352 -0.0206 -0.0646  0.1693
    5BIM     O129275   1.970   3.928   7.991  0.5245 -0.0848 -0.2425
    5BIM     N529276   2.336   3.964   8.598 -0.4126 -0.0477  0.3228
    5BIM     N629277   2.186   3.580   8.452 -0.1972 -0.0551  0.1214
    5BIM    C1929278   2.040   3.707   8.170  0.2424 -0.0730 -0.1167
    5BIM    C2029279   2.074   3.835   8.193  0.2108 -0.0722 -0.0732
    5BIM    C2129280   2.034   3.943   8.096  0.3629 -0.0785 -0.1435
    5BIM    C2229281   2.087   4.070   8.151  0.2820 -0.0758 -0.0713
    5BIM    C2329282   2.076   4.197   8.096  0.3697 -0.0796 -0.0992
    5BIM    C2429283   2.134   4.302   8.166  0.2645 -0.0758 -0.0167
    5BIM    C2529284   2.202   4.279   8.287  0.0775 -0.0682  0.0905
    5BIM    C2629285   2.214   4.152   8.342 -0.0109 -0.0643  0.1187
    5BIM    C2729286   2.155   4.045   8.272  0.0933 -0.0681  0.0362
    5BIM    C2829287   2.150   3.900   8.303  0.0421 -0.0656  0.0393
    5BIM    C2929288   2.205   3.837   8.413 -0.1289 -0.0587  0.1295
    5BIM    C3029289   2.276   3.907   8.514 -0.2843 -0.0527  0.2356
    5BIM    C3129290   2.194   3.696   8.434 -0.1655 -0.0567  0.1245
    1BTD     S229291   7.733   3.412   7.899  0.1315 -0.2819  0.0633
    1BTD     N129292   7.870   3.390   8.012  0.2522 -0.2536 -0.0775
    1BTD     N229293   7.773   3.582   7.859 -0.1507 -0.1593  0.2912
    1BTD     N329294   8.105   3.891   7.982 -0.5071  0.1419  0.5023
    1BTD     N429295   8.225   3.655   8.171 -0.0110  0.0258  0.0479
    1BTD     C529296   8.054   3.531   8.093  0.1090 -0.1063 -0.0067
    1BTD     C629297   7.936   3.506   8.014  0.0849 -0.1590  0.0465
    1BTD     C729298   7.882   3.613   7.928 -0.1407 -0.1062  0.2530
    1BTD     C829299   7.948   3.741   7.925 -0.3307 -0.0034  0.3960
    1BTD    C1529300   8.063   3.761   8.004 -0.2996  0.0453  0.3374
    1BTD    C1629301   8.115   3.658   8.087 -0.0819 -0.0057  0.1383
    1BTD    C4329302   8.271   3.773   8.247  0.1604  0.6514 -0.2661
    1BTD    C4429303   8.412   3.788   8.308 -0.8226 -0.9764 -0.1079
    1BTD    C4529304   8.432   3.907   8.404 -0.2100  0.3369  0.0039
    1BTD    C4629305   8.398   4.049   8.360 -0.6541  0.0589 -0.1600
    1BTD    C4729306   8.530   3.758   8.212 -0.5446 -0.2439  0.1293
    1BTD    C4829307   8.685   3.762   8.249  1.0668  0.5749  0.0698
    1BTD    C4929308   8.732   3.721   8.391 -0.1350  0.1187 -0.3610
    1BTD    C5029309   8.884   3.736   8.398 -0.3412 -0.0347 -0.3318
    1BTD    C7529310   8.231   3.961   8.006  0.1964 -0.2975 -0.2294
    1BTD    C7629311   8.343   3.938   7.898  0.0040 -0.4126  0.0764
    1BTD    C7729312   8.387   3.786   7.881 -0.4392 -0.5060  0.3076
    1BTD    C7829313   8.467   3.744   7.759  0.4127  0.8291  0.9584
    1BTD    C7929314   8.472   4.027   7.908  0.6690 -0.1032  0.5718
    1BTD    C8029315   8.433   4.179   7.897  0.0794 -0.6179  0.2788
    1BTD    C8129316   8.568   4.243   7.898  0.2893  0.3730 -0.3429
    1BTD    C8229317   8.561   4.386   7.868  0.2051 -0.6390  0.3354
    2TTP     S129318   8.117   3.287   8.247 -0.0386  0.1952 -0.0709
    2TTP     S529319   8.446   3.489   8.437  0.1116 -0.0194 -0.1035
    2TTP     C129320   8.431   3.322   8.509  0.0208 -0.0155 -0.1135
    2TTP     C229321   8.328   3.250   8.454 -0.0310  0.0510 -0.1044
    2TTP     C329322   8.258   3.324   8.354 -0.0005  0.1013 -0.0885
    2TTP     C429323   8.132   3.454   8.175  0.0520  0.1914 -0.0606
    2TTP    C1729324   8.235   3.526   8.230  0.1039  0.1249 -0.0699
    2TTP    C1829325   8.305   3.452   8.330  0.0737  0.0745 -0.0856
    2TTP    C3229326   8.275   3.108   8.488 -0.6798  0.0166  0.3682
    2TTP    C3329327   8.317   3.007   8.383 -0.0630 -0.3410 -0.5492
    2TTP    C3429328   8.265   2.873   8.427  0.7324 -0.1146  0.0602
    2TTP    C3529329   8.355   2.765   8.382  0.2637 -0.2925  0.8399
    2TTP    C3629330   8.287   2.632   8.392 -0.3836  0.6656  0.4043
    2TTP    C3729331   8.346   2.520   8.305 -0.4485  0.0549  0.0766
    2TTP    C3829332   8.275   2.384   8.299 -0.5379  0.8168  0.5233
    2TTP    C3929333   8.281   2.293   8.423 -0.5471 -0.2883  0.0113
    2TTP    C4029334   8.201   2.169   8.404  0.1805 -0.5752 -0.0877
    2TTP    C4129335   8.171   2.096   8.536 -0.3016  0.3505  0.1315
    2TTP    C4229336   8.166   1.947   8.520 -0.0826 -0.3169  0.2612
    3TTP     S129337   7.813   3.918   7.722 -0.2210  0.0107  0.2432
    3TTP     S529338   8.092   4.230   7.820 -0.1049  0.0947 -0.3445
    3TTP     C129339   7.984   4.289   7.686 -0.0286 -0.1466 -0.5138
    3TTP     C229340   7.891   4.196   7.648 -0.0598 -0.1867 -0.3424
    3TTP     C329341   7.902   4.075   7.723 -0.1453 -0.0285 -0.0709
    3TTP     C429342   7.921   3.859   7.855 -0.2974  0.2519  0.4126
    3TTP    C1729343   8.014   3.952   7.894 -0.2660  0.2920  0.2411
    3TTP    C1829344   8.002   4.073   7.819 -0.1805  0.1338 -0.0303
    3TTP    C3229345   7.790   4.212   7.527  0.2042  0.7021 -0.0780
    3TTP    C3329346   7.802   4.113   7.402  0.0489  0.5667 -0.2831
    3TTP    C3429347   7.924   4.141   7.311 -0.3132  0.3688  0.3771
    3TTP    C3529348   7.973   4.010   7.249 -0.0879  0.3450  0.7208
    3TTP    C3629349   8.100   4.017   7.160 -0.2358  0.3795 -0.5196
    3TTP    C3729350   8.233   4.069   7.219 -0.8097  0.0322 -0.4716
    3TTP    C3829351   8.277   4.008   7.354 -0.5732  0.3763 -0.2560
    3TTP    C3929352   8.403   4.081   7.403  0.5838 -0.7891 -0.2132
    3TTP    C4029353   8.506   3.997   7.464  0.5484  0.6846  0.1676
    3TTP    C4129354   8.638   4.064   7.487 -0.5089  0.1438 -0.5436
    3TTP    C4229355   8.738   3.986   7.577  0.7836  0.2358 -0.0842
    4BIM     F129356   8.963   3.608   9.065  0.0088 -0.2115  0.3290
    4BIM     F229357   8.979   3.358   9.170 -0.1380 -0.2812  0.1867
    4BIM     O129358   8.608   3.528   8.664  0.0436  0.2019  0.2139
    4BIM     N529359   8.749   2.941   9.036 -0.3238 -0.0869 -0.1001
    4BIM     N629360   8.468   2.929   8.702 -0.2668  0.2502 -0.1612
    4BIM    C1929361   8.497   3.261   8.623 -0.0839  0.2821  0.0370
    4BIM    C2029362   8.586   3.290   8.719 -0.0870  0.1808  0.0715
    4BIM    C2129363   8.638   3.430   8.734 -0.0188  0.1456  0.1631
    4BIM    C2229364   8.732   3.428   8.848 -0.0417  0.0318  0.1795
    4BIM    C2329365   8.805   3.534   8.900  0.0021 -0.0355  0.2556
    4BIM    C2429366   8.888   3.508   9.008 -0.0314 -0.1405  0.2563
    4BIM    C2529367   8.896   3.379   9.063 -0.1074 -0.1762  0.1825
    4BIM    C2629368   8.823   3.272   9.011 -0.1514 -0.1095  0.1066
    4BIM    C2729369   8.739   3.297   8.902 -0.1180 -0.0030  0.1047
    4BIM    C2829370   8.649   3.207   8.824 -0.1490  0.0871  0.0355
    4BIM    C2929371   8.629   3.073   8.847 -0.2213  0.0843 -0.0463
    4BIM    C3029372   8.695   3.001   8.951 -0.2775 -0.0098 -0.0756
    4BIM    C3129373   8.541   2.995   8.767 -0.2460  0.1755 -0.1092
    5BIM     F129374   8.567   4.838   7.531  0.1123 -0.0733  0.4238
    5BIM     F229375   8.373   5.028   7.508  0.1793 -0.0702 -0.1359
    5BIM     O129376   8.267   4.396   7.614 -0.0987  0.0695  0.4237
    5BIM     N529377   7.881   4.986   7.534  0.1258  0.0361 -0.9410
    5BIM     N629378   7.685   4.602   7.604 -0.0528  0.1471 -0.8283
    5BIM    C1929379   7.975   4.420   7.622 -0.1096  0.1233 -0.1114
    5BIM    C2029380   8.058   4.524   7.602 -0.0591  0.0873 -0.0893
    5BIM    C2129381   8.207   4.503   7.599 -0.0570  0.0614  0.1931
    5BIM    C2229382   8.267   4.636   7.575  0.0043  0.0246  0.1411
    5BIM    C2329383   8.402   4.667   7.565  0.0272 -0.0083  0.3390
    5BIM    C2429384   8.435   4.800   7.542  0.0864 -0.0398  0.2396
    5BIM    C2529385   8.335   4.898   7.530  0.1207 -0.0381 -0.0487
    5BIM    C2629386   8.200   4.867   7.541  0.0980 -0.0055 -0.2472
    5BIM    C2729387   8.165   4.733   7.564  0.0384  0.0266 -0.1507
    5BIM    C2829388   8.032   4.668   7.579  0.0007  0.0652 -0.3040
    5BIM    C2929389   7.910   4.730   7.574  0.0185  0.0782 -0.5900
    5BIM    C3029390   7.894   4.871   7.552  0.0774  0.0551 -0.7819
    5BIM    C3129391   7.787   4.659   7.590 -0.0207  0.1161 -0.7194
    1BTD     S229392   3.356   1.416   4.090 -0.2185  0.1866 -0.1832
    1BTD     N129393   3.515   1.379   4.166 -0.1872 -0.0241 -0.3500
    1BTD     N229394   3.398   1.586   4.050 -0.1798  0.2522  0.1334
    1BTD     N329395   3.771   1.866   4.106 -0.0447  0.0058  0.4772
    1BTD     N429396   3.915   1.611   4.248 -0.0537 -0.3347 -0.1185
    1BTD     C529397   3.722   1.503   4.207 -0.1174 -0.1821 -0.2220
    1BTD     C629398   3.587   1.489   4.158 -0.1514 -0.0341 -0.1705
    1BTD     C729399   3.522   1.605   4.093 -0.1473  0.1206  0.1000
    1BTD     C829400   3.594   1.729   4.081 -0.1093  0.1194  0.3055
    1BTD    C1529401   3.726   1.738   4.130 -0.0769 -0.0284  0.2461
    1BTD    C1629402   3.789   1.626   4.193 -0.0809 -0.1774 -0.0146
    1BTD    C4329403   3.985   1.722   4.314 -0.2644 -0.5922 -0.4690
    1BTD    C4429404   4.135   1.723   4.347  0.2370  0.3097  0.7065
    1BTD    C4529405   4.169   1.826   4.455  0.5608  0.1204 -0.1195
    1BTD    C4629406   4.154   1.975   4.429 -0.0326  1.1075 -0.2089
    1BTD    C4729407   4.214   1.721   4.215  0.0692  0.3828 -0.2774
    1BTD    C4829408   4.365   1.704   4.243 -0.1661  0.3840  0.5004
    1BTD    C4929409   4.444   1.679   4.106  0.4671 -0.8464 -0.4357
    1BTD    C5029410   4.434   1.789   3.995 -0.0646 -0.6376 -0.2855
    1BTD    C7529411   3.905   1.925   4.100 -0.5780 -0.5154 -0.1112
    1BTD    C7629412   3.984   1.942   3.968  0.5410 -0.0338 -0.3377
    1BTD    C7729413   4.114   2.030   3.989 -0.2354 -0.1382  0.3173
    1BTD    C7829414   4.091   2.170   4.039  0.7599  0.1548  0.1327
    1BTD    C7929415   3.999   1.807   3.897  0.4098  0.1435  0.1126
    1BTD    C8029416   4.101   1.785   3.786 -0.1954 -0.2639  0.1043
    1BTD    C8129417   4.121   1.643   3.737  0.1426  0.3106  0.2594
    1BTD    C8229418   4.205   1.640   3.616 -0.7270 -0.2182 -0.0113
    2TTP     S129419   3.830   1.225   4.282  0.0231 -0.1013  0.1023
    2TTP     S529420   4.219   1.396   4.343 -0.1398  0.1869  0.3351
    2TTP     C129421   4.232   1.216   4.363  0.0346  0.1702  0.0770
    2TTP     C229422   4.112   1.152   4.345  0.0952  0.0802 -0.0101
    2TTP     C329423   4.006   1.244   4.315  0.0061  0.0212  0.1237
    2TTP     C429424   3.817   1.405   4.262 -0.1513 -0.0847  0.3603
    2TTP    C1729425   3.937   1.469   4.280 -0.2119  0.0053  0.4474
    2TTP    C1829426   4.042   1.377   4.310 -0.1228  0.0643  0.3135
    2TTP    C3229427   4.082   0.998   4.319 -0.1080 -0.0097 -0.5333
    2TTP    C3329428   4.037   0.901   4.431 -0.2475  0.1803 -0.2744
    2TTP    C3429429   4.127   0.874   4.551  0.0225 -0.1543 -0.5430
    2TTP    C3529430   4.073   0.766   4.647  0.4282 -0.7162  0.3474
    2TTP    C3629431   3.939   0.784   4.721  0.5423  0.0759  0.2989
    2TTP    C3729432   3.930   0.890   4.822 -0.5027 -0.6150 -0.5557
    2TTP    C3829433   4.042   0.886   4.927 -0.7807 -0.0517  0.5857
    2TTP    C3929434   4.059   0.755   4.997  0.0173  0.1801  0.5271
    2TTP    C4029435   3.939   0.704   5.079 -0.0113  0.5206 -0.9032
    2TTP    C4129436   3.961   0.572   5.147 -0.2644 -0.0029  0.6640
    2TTP    C4229437   3.838   0.529   5.228 -0.4900 -0.3410 -0.0861
    3TTP     S129438   3.414   1.947   3.979  0.0140 -0.2306 -0.1775
    3TTP     S529439   3.727   2.234   4.043  0.0358 -0.2737 -0.0905
    3TTP     C129440   3.579   2.322   3.983  0.0516 -0.2482 -0.0921
    3TTP     C229441   3.474   2.238   3.960  0.0458 -0.2334 -0.1190
    3TTP     C329442   3.506   2.102   3.988  0.0286 -0.2416 -0.1394
    3TTP     C429443   3.561   1.859   4.038 -0.0019 -0.2561 -0.1760
    3TTP    C1729444   3.667   1.943   4.061  0.0040 -0.2709 -0.1491
    3TTP    C1829445   3.635   2.079   4.033  0.0211 -0.2627 -0.1286
    3TTP    C3229446   3.338   2.287   3.905  0.2058 -0.1842 -0.2862
    3TTP    C3329447   3.210   2.263   3.980  0.5569 -0.3488 -0.3414
    3TTP    C3429448   3.079   2.221   3.911 -0.2798  0.3637  0.8075
    3TTP    C3529449   3.061   2.076   3.848 -0.5150 -0.2531  0.1676
    3TTP    C3629450   3.078   1.961   3.933 -0.1811  0.3736 -0.1706
    3TTP    C3729451   3.024   1.834   3.862  0.4180 -0.5031 -0.4210
    3TTP    C3829452   3.059   1.707   3.931  0.3289 -0.1219 -0.9908
    3TTP    C3929453   2.978   1.589   3.880 -0.4393  0.1733 -0.3893
    3TTP    C4029454   3.026   1.460   3.942  0.3530 -0.0923  0.5097
    3TTP    C4129455   2.938   1.343   3.913 -0.9512 -0.2286 -0.0753
    3TTP    C4229456   2.899   1.278   4.037  0.7662 -0.5221  0.0240
    4BIM     F129457   4.824   1.419   4.883  0.2825 -0.0553 -0.2182
    4BIM     F229458   4.943   1.179   4.837  0.0812 -0.2236  0.1298
    4BIM     O129459   4.386   1.380   4.568  0.4977  0.0543 -0.5324
    4BIM     N529460   4.800   0.805   4.545 -0.0547 -0.3875  0.4060
    4BIM     N629461   4.434   0.823   4.308  0.1541 -0.2680  0.0902
    4BIM    C1929462   4.343   1.137   4.412  0.3819 -0.0676 -0.3118
    4BIM    C2029463   4.449   1.156   4.493  0.3357 -0.0886 -0.2462
    4BIM    C2129464   4.464   1.284   4.570  0.4004 -0.0224 -0.3684
    4BIM    C2229465   4.589   1.272   4.647  0.3258 -0.0664 -0.2544
    4BIM    C2329466   4.644   1.365   4.734  0.3490 -0.0313 -0.3073
    4BIM    C2429467   4.764   1.331   4.796  0.2653 -0.0858 -0.1750
    4BIM    C2529468   4.824   1.207   4.772  0.1615 -0.1725  0.0040
    4BIM    C2629469   4.769   1.114   4.686  0.1378 -0.2078  0.0578
    4BIM    C2729470   4.649   1.146   4.622  0.2218 -0.1538 -0.0741
    4BIM    C2829471   4.565   1.070   4.526  0.2238 -0.1709 -0.0620
    4BIM    C2929472   4.591   0.944   4.477  0.1380 -0.2482  0.0910
    4BIM    C3029473   4.706   0.868   4.514  0.0323 -0.3245  0.2636
    4BIM    C3129474   4.504   0.878   4.384  0.1473 -0.2586  0.0896
    5BIM     F129475   4.108   2.954   4.066  0.0883 -0.0150 -0.0757
    5BIM     F229476   3.918   3.118   3.959  0.0501  0.0101  0.0299
    5BIM     O129477   3.846   2.480   4.067  0.0457  0.0086  0.0187
    5BIM     N529478   3.459   3.015   3.805 -0.0352  0.0632  0.2489
    5BIM     N629479   3.292   2.612   3.828 -0.0607  0.0765  0.3015
    5BIM    C1929480   3.572   2.468   3.965 -0.0059  0.0410  0.1532
    5BIM    C2029481   3.645   2.581   3.969  0.0064  0.0342  0.1253
    5BIM    C2129482   3.785   2.579   4.023  0.0329  0.0173  0.0560
    5BIM    C2229483   3.836   2.717   4.012  0.0404  0.0135  0.0412
    5BIM    C2329484   3.961   2.765   4.050  0.0634 -0.0005 -0.0169
    5BIM    C2429485   3.986   2.900   4.031  0.0662 -0.0014 -0.0195
    5BIM    C2529486   3.888   2.984   3.976  0.0464  0.0115  0.0351
    5BIM    C2629487   3.763   2.937   3.938  0.0235  0.0257  0.0933
    5BIM    C2729488   3.736   2.801   3.957  0.0203  0.0268  0.0967
    5BIM    C2829489   3.615   2.720   3.927 -0.0013  0.0399  0.1505
    5BIM    C2929490   3.497   2.766   3.873 -0.0243  0.0547  0.2119
    5BIM    C3029491   3.477   2.903   3.836 -0.0303  0.0592  0.2320
    5BIM    C3129492   3.385   2.681   3.848 -0.0442  0.0666  0.2608
    1BTD     S229493   2.973   2.575   7.350  0.2260  0.1631 -0.0568
    1BTD     N129494   2.819   2.600   7.260  0.3135 -0.0262 -0.2619
    1BTD     N229495   3.030   2.744   7.328 -0.0129  0.2692  0.1342
    1BTD     N329496   2.869   3.134   7.123 -0.3421  0.1433  0.1527
    1BTD     N429497   2.609   2.956   7.039  0.0602 -0.2206 -0.3353
    1BTD     C529498   2.712   2.788   7.145  0.1764 -0.1233 -0.2946
    1BTD     C629499   2.818   2.726   7.221  0.1677 -0.0019 -0.1818
    1BTD     C729500   2.936   2.807   7.259 -0.0151  0.1634  0.0399
    1BTD     C829501   2.943   2.945   7.220 -0.1800  0.1991  0.1379
    1BTD    C1529502   2.837   3.001   7.146 -0.1647  0.0764  0.0215
    1BTD    C1629503   2.723   2.924   7.109  0.0115 -0.0829 -0.1919
    1BTD    C4329504   2.565   3.079   6.974 -0.0168 -0.3247  0.2135
    1BTD    C4429505   2.623   3.125   6.837  0.2056  0.6635 -0.1458
    1BTD    C4529506   2.623   3.017   6.728  0.0885 -1.0325  0.0818
    1BTD    C4629507   2.489   2.981   6.659 -0.1948 -0.1506  0.2975
    1BTD    C4729508   2.581   3.268   6.803 -0.7200  0.1327  0.0310
    1BTD    C4829509   2.634   3.334   6.678 -0.1945  0.1671  0.4500
    1BTD    C4929510   2.772   3.403   6.691 -0.0028  0.4388 -0.3600
    1BTD    C5029511   2.827   3.453   6.555  0.1730  0.3979 -0.2781
    1BTD    C7529512   2.780   3.252   7.116 -0.0465 -0.1265 -0.6131
    1BTD    C7629513   2.763   3.337   7.243  0.3237 -0.5838  0.1006
    1BTD    C7729514   2.677   3.463   7.228  0.9786 -0.0935 -0.8623
    1BTD    C7829515   2.701   3.549   7.109 -0.2665 -0.7299  0.1760
    1BTD    C7929516   2.748   3.259   7.372  0.0061 -0.1043  0.4168
    1BTD    C8029517   2.762   3.342   7.501  0.7436 -0.3625 -0.1621
    1BTD    C8129518   2.682   3.285   7.621  1.2912 -0.1917 -0.6958
    1BTD    C8229519   2.704   3.347   7.755 -0.1182 -0.2471 -0.1931
    2TTP     S129520   2.491   2.584   7.098 -0.0060  0.1944  0.1482
    2TTP     S529521   2.265   2.900   6.915  0.3102  0.2730 -0.1091
    2TTP     C129522   2.161   2.751   6.922  0.1196  0.4157  0.1221
    2TTP     C229523   2.224   2.645   6.979  0.0107  0.3999  0.2152
    2TTP     C329524   2.358   2.677   7.019  0.0739  0.2744  0.1072
    2TTP     C429525   2.595   2.733   7.091  0.1845  0.0517 -0.0830
    2TTP    C1729526   2.531   2.839   7.034  0.2933  0.0675 -0.1761
    2TTP    C1829527   2.398   2.807   6.994  0.2303  0.1929 -0.0682
    2TTP    C3229528   2.160   2.512   7.018  0.1839 -0.5525  0.8515
    2TTP    C3329529   2.227   2.386   6.962  0.4479 -0.0451  0.2435
    2TTP    C3429530   2.141   2.266   7.001 -0.3658  0.1694 -0.3379
    2TTP    C3529531   2.188   2.123   6.972  0.4254  0.2825 -0.0027
    2TTP    C3629532   2.090   2.030   7.040  0.2134  0.2186 -0.0888
    2TTP    C3729533   2.097   1.883   6.999  0.3534 -0.1927 -0.6997
    2TTP    C3829534   1.998   1.795   7.070  0.7817 -0.0581 -0.3052
    2TTP    C3929535   1.853   1.788   7.014 -0.3405  0.5095 -0.2936
    2TTP    C4029536   1.762   1.670   7.061  0.3774 -0.5376  0.1772
    2TTP    C4129537   1.792   1.534   7.004  0.3476  0.1391 -0.2765
    2TTP    C4229538   1.712   1.422   7.068  0.0609 -0.0622 -0.0007
    3TTP     S129539   3.219   3.052   7.274  0.0278  0.0604  0.2259
    3TTP     S529540   3.117   3.409   7.057 -0.0026 -0.0879 -0.0045
    3TTP     C129541   3.294   3.416   7.100 -0.0236 -0.0036  0.0699
    3TTP     C229542   3.336   3.306   7.169 -0.0156  0.0471  0.1453
    3TTP     C329543   3.230   3.213   7.191  0.0077  0.0212  0.1473
    3TTP     C429544   3.042   3.046   7.231  0.0489 -0.0239  0.1516
    3TTP    C1729545   3.001   3.155   7.161  0.0408 -0.0747  0.0761
    3TTP    C1829546   3.107   3.249   7.139  0.0176 -0.0488  0.0743
    3TTP    C3229547   3.477   3.260   7.214 -0.1504  0.2808  0.0519
    3TTP    C3329548   3.504   3.237   7.370  0.5691 -0.0720 -0.4638
    3TTP    C3429549   3.622   3.158   7.424  0.5715 -0.8213 -0.1367
    3TTP    C3529550   3.757   3.193   7.366  0.1903 -1.1053 -1.0978
    3TTP    C3629551   3.877   3.107   7.401 -0.0421 -0.3207 -0.6707
    3TTP    C3729552   3.907   3.112   7.553  0.3381  0.6655 -0.1468
    3TTP    C3829553   4.008   2.995   7.584  0.0427  0.6656  0.5075
    3TTP    C3929554   4.053   2.995   7.730 -0.5597 -0.0860 -0.3917
    3TTP    C4029555   4.157   2.898   7.784 -0.7543 -0.0173  0.6217
    3TTP    C4129556   4.132   2.755   7.766 -0.2495  0.7778  0.8306
    3TTP    C4229557   4.242   2.662   7.821 -0.1075 -0.2541  0.2630
    4BIM     F129558   1.607   3.293   6.644 -0.2910 -0.1237  0.4345
    4BIM     F229559   1.453   3.083   6.562 -0.1039 -0.1556  0.1649
    4BIM     O129560   2.023   3.032   6.871 -0.1664 -0.0438  0.2983
    4BIM     N529561   1.530   2.597   6.606  0.2538 -0.1445 -0.3203
    4BIM     N629562   1.887   2.435   6.800  0.3136 -0.0757 -0.3723
    4BIM    C1929563   2.025   2.740   6.874  0.0566 -0.0459 -0.0079
    4BIM    C2029564   1.926   2.813   6.820  0.0179 -0.0648  0.0370
    4BIM    C2129565   1.932   2.964   6.822 -0.0977 -0.0623  0.1963
    4BIM    C2229566   1.810   3.012   6.756 -0.1127 -0.0861  0.2068
    4BIM    C2329567   1.771   3.144   6.734 -0.2065 -0.0924  0.3324
    4BIM    C2429568   1.651   3.165   6.668 -0.2012 -0.1160  0.3149
    4BIM    C2529569   1.572   3.057   6.626 -0.1047 -0.1325  0.1759
    4BIM    C2629570   1.610   2.925   6.647 -0.0108 -0.1261  0.0499
    4BIM    C2729571   1.732   2.901   6.714 -0.0146 -0.1023  0.0653
    4BIM    C2829572   1.800   2.775   6.751  0.0695 -0.0899 -0.0443
    4BIM    C2929573   1.755   2.648   6.727  0.1750 -0.0999 -0.1931
    4BIM    C3029574   1.631   2.620   6.661  0.2179 -0.1244 -0.2624
    4BIM    C3129575   1.828   2.531   6.768  0.2506 -0.0865 -0.2909
    5BIM     F129576   3.243   4.201   6.852  0.1599 -0.1681 -0.4264
    5BIM     F229577   3.508   4.229   6.909 -0.0703  0.1041  0.5466
    5BIM     O129578   3.165   3.681   6.983  0.2397 -0.2818 -0.8295
    5BIM     N529579   3.832   3.899   7.084 -0.3445  0.4143  1.6583
    5BIM     N629580   3.718   3.487   7.175 -0.2356  0.2705  1.1473
    5BIM    C1929581   3.390   3.524   7.083  0.0481 -0.0622 -0.0430
    5BIM    C2029582   3.399   3.653   7.048  0.0370 -0.0443  0.0203
    5BIM    C2129583   3.279   3.728   6.997  0.1396 -0.1622 -0.4021
    5BIM    C2229584   3.324   3.865   6.969  0.0975 -0.1073 -0.2069
    5BIM    C2329585   3.248   3.971   6.920  0.1611 -0.1783 -0.4611
    5BIM    C2429586   3.312   4.092   6.901  0.1023 -0.1045 -0.1982
    5BIM    C2529587   3.449   4.106   6.930 -0.0162  0.0358  0.3031
    5BIM    C2629588   3.525   4.001   6.979 -0.0802  0.1070  0.5590
    5BIM    C2729589   3.462   3.878   6.999 -0.0223  0.0342  0.2989
    5BIM    C2829590   3.513   3.748   7.049 -0.0642  0.0785  0.4587
    5BIM    C2929591   3.642   3.721   7.089 -0.1755  0.2085  0.9238
    5BIM    C3029592   3.746   3.819   7.086 -0.2680  0.3212  1.3260
    5BIM    C3129593   3.683   3.593   7.136 -0.2079  0.2419  1.0440
    1BTD     S229594   2.089   2.545   1.332  0.1075  0.0256 -0.0565
    1BTD     N129595   2.086   2.695   1.233  0.4193 -0.1224 -0.2949
    1BTD     N229596   1.949   2.469   1.248 -0.1348  0.2351  0.1524
    1BTD     N329597   1.659   2.585   0.898 -0.0658  0.3946  0.1478
    1BTD     N429598   1.827   2.864   0.880  0.6170 -0.0458 -0.4033
    1BTD     C529599   1.948   2.780   1.049  0.5143 -0.0771 -0.3448
    1BTD     C629600   1.986   2.682   1.147  0.3312 -0.0136 -0.2108
    1BTD     C729601   1.910   2.555   1.155  0.0211  0.1864  0.0396
    1BTD     C829602   1.800   2.533   1.065 -0.0905  0.3131  0.1433
    1BTD    C1529603   1.767   2.632   0.970  0.0968  0.2448  0.0054
    1BTD    C1629604   1.840   2.754   0.962  0.3956  0.0519 -0.2359
    1BTD    C4329605   1.698   2.915   0.818 -0.2786 -0.2977 -0.2411
    1BTD    C4429606   1.683   2.987   0.681 -0.6875 -0.0037 -0.1432
    1BTD    C4529607   1.553   3.059   0.657 -0.3870  0.1082  0.1704
    1BTD    C4629608   1.522   3.175   0.762 -0.1111  0.2721  1.0170
    1BTD    C4729609   1.732   2.898   0.565  0.1032 -0.9832 -0.2417
    1BTD    C4829610   1.728   2.948   0.427 -0.7062 -0.5215  0.5945
    1BTD    C4929611   1.845   3.048   0.391  0.1920 -0.0091 -0.4016
    1BTD    C5029612   1.989   3.004   0.409 -0.5251  1.0652 -0.2890
    1BTD    C7529613   1.643   2.612   0.749  0.6239  0.0395  0.9346
    1BTD    C7629614   1.514   2.589   0.660  0.4649 -0.0288 -0.0482
    1BTD    C7729615   1.539   2.549   0.516 -0.6213 -0.2015 -0.5080
    1BTD    C7829616   1.603   2.405   0.505  0.8045 -0.0486  0.4976
    1BTD    C7929617   1.410   2.700   0.690 -0.0212 -0.0924 -0.0905
    1BTD    C8029618   1.267   2.706   0.623  0.5373 -0.0490 -0.2128
    1BTD    C8129619   1.209   2.845   0.625 -0.1715 -0.1783 -0.5715
    1BTD    C8229620   1.060   2.842   0.585 -0.1107 -0.1560 -0.0671
    2TTP     S129621   2.132   3.012   1.074  0.1203  0.0589  0.2326
    2TTP     S529622   1.867   3.240   0.822  0.2051 -0.0424  0.0509
    2TTP     C129623   1.993   3.352   0.890  0.1880 -0.0170  0.0405
    2TTP     C229624   2.082   3.288   0.972  0.1608  0.0159  0.0961
    2TTP     C329625   2.054   3.149   0.984  0.1525  0.0220  0.1488
    2TTP     C429626   2.006   2.900   1.006  0.1374  0.0334  0.2430
    2TTP    C1729627   1.916   2.964   0.924  0.1647  0.0005  0.1875
    2TTP    C1829628   1.944   3.103   0.912  0.1730 -0.0056  0.1348
    2TTP    C3229629   2.205   3.347   1.053  0.6943 -0.3569  0.3920
    2TTP    C3329630   2.336   3.280   1.011  0.2375  0.6885 -0.6724
    2TTP    C3429631   2.448   3.340   1.100 -0.3241  0.2923 -0.5834
    2TTP    C3529632   2.570   3.259   1.065  0.9810  0.2949 -0.0312
    2TTP    C3629633   2.685   3.278   1.152  0.0559 -0.4068  0.0368
    2TTP    C3729634   2.807   3.241   1.074  0.6729  0.4852 -0.0314
    2TTP    C3829635   2.928   3.196   1.161  0.4607 -0.1366 -0.1722
    2TTP    C3929636   2.976   3.297   1.269 -0.8690 -0.3206 -0.7780
    2TTP    C4029637   3.047   3.240   1.390  0.3657 -1.3128  0.2078
    2TTP    C4129638   2.995   3.129   1.477 -0.0526  0.4526  0.1417
    2TTP    C4229639   2.878   3.165   1.562  0.5472  0.2558  0.7284
    3TTP     S129640   1.667   2.272   1.132  0.2399 -0.1544  0.0012
    3TTP     S529641   1.377   2.343   0.823  0.0970 -0.0654  0.1555
    3TTP     C129642   1.333   2.188   0.909  0.1409 -0.0940  0.1266
    3TTP     C229643   1.420   2.157   1.010  0.1876 -0.1232  0.0772
    3TTP     C329644   1.525   2.254   1.023  0.1904 -0.1240  0.0605
    3TTP     C429645   1.711   2.426   1.046  0.1960 -0.1258  0.0301
    3TTP    C1729646   1.623   2.457   0.946  0.1493 -0.0966  0.0795
    3TTP    C1829647   1.519   2.360   0.933  0.1465 -0.0958  0.0963
    3TTP    C3229648   1.425   2.025   1.094 -0.2167  0.1040 -0.0904
    3TTP    C3329649   1.474   2.031   1.243 -0.8126 -0.2314  0.4464
    3TTP    C3429650   1.455   1.899   1.319  0.2975 -0.1161  0.3010
    3TTP    C3529651   1.462   1.924   1.475 -0.0312  0.0504  0.2139
    3TTP    C3629652   1.432   1.805   1.570 -0.3080 -0.2231 -0.3535
    3TTP    C3729653   1.527   1.688   1.537  0.4031 -0.5225 -0.5602
    3TTP    C3829654   1.513   1.558   1.608  0.6102 -0.2551 -0.3891
    3TTP    C3929655   1.569   1.548   1.750  0.0149 -0.0783 -0.1277
    3TTP    C4029656   1.607   1.402   1.792 -0.6100 -0.2201  0.2789
    3TTP    C4129657   1.702   1.408   1.905 -0.7926 -0.2855 -0.4960
    3TTP    C4229658   1.747   1.274   1.962 -0.4905 -0.0904 -0.1073
    4BIM     F129659   1.547   3.948   0.540 -0.1797  0.0697  0.4122
    4BIM     F229660   1.741   4.125   0.609  0.2181 -0.1167 -0.2161
    4BIM     O129661   1.752   3.488   0.738 -0.4040  0.0226  0.5360
    4BIM     N529662   2.168   4.052   0.849  0.6300 -0.4182 -1.0311
    4BIM     N629663   2.289   3.657   0.990  0.3745 -0.4175 -0.8077
    4BIM    C1929664   2.011   3.494   0.875 -0.1038 -0.1722 -0.0203
    4BIM    C2029665   1.952   3.603   0.822 -0.0629 -0.1531 -0.0269
    4BIM    C2129666   1.818   3.592   0.753 -0.2253 -0.0510  0.2691
    4BIM    C2229667   1.783   3.727   0.708 -0.1302 -0.0560  0.1786
    4BIM    C2329668   1.669   3.767   0.640 -0.2207  0.0202  0.3730
    4BIM    C2429669   1.657   3.902   0.608 -0.0999 -0.0022  0.2337
    4BIM    C2529670   1.758   3.993   0.643  0.1050 -0.0984 -0.0900
    4BIM    C2629671   1.872   3.954   0.712  0.1963 -0.1749 -0.2853
    4BIM    C2729672   1.886   3.818   0.745  0.0764 -0.1535 -0.1486
    4BIM    C2829673   1.993   3.745   0.816  0.1259 -0.2169 -0.2878
    4BIM    C2929674   2.109   3.799   0.867  0.3113 -0.3159 -0.5989
    4BIM    C3029675   2.141   3.938   0.857  0.4858 -0.3718 -0.8355
    4BIM    C3129676   2.207   3.720   0.935  0.3450 -0.3712 -0.7120
    5BIM     F129677   0.636   2.237   0.474  0.1255  0.0108 -0.2761
    5BIM     F229678   0.568   1.991   0.569  0.0662  0.0840 -0.1279
    5BIM     O129679   1.119   2.308   0.708  0.0861  0.0889 -0.2182
    5BIM     N529680   0.815   1.688   0.872 -0.0472  0.2450  0.1264
    5BIM     N629681   1.206   1.793   1.035 -0.0660  0.2913  0.1419
    5BIM    C1929682   1.226   2.098   0.881  0.0155  0.1867 -0.0560
    5BIM    C2029683   1.107   2.090   0.819  0.0277  0.1642 -0.0764
    5BIM    C2129684   1.059   2.202   0.731  0.0643  0.1138 -0.1610
    5BIM    C2229685   0.927   2.161   0.679  0.0691  0.1003 -0.1623
    5BIM    C2329686   0.844   2.232   0.594  0.0988  0.0571 -0.2276
    5BIM    C2429687   0.723   2.173   0.558  0.0971  0.0526 -0.2142
    5BIM    C2529688   0.689   2.046   0.607  0.0665  0.0903 -0.1379
    5BIM    C2629689   0.772   1.974   0.693  0.0368  0.1336 -0.0725
    5BIM    C2729690   0.894   2.033   0.730  0.0380  0.1388 -0.0848
    5BIM    C2829691   1.003   1.984   0.817  0.0114  0.1796 -0.0289
    5BIM    C2929692   1.007   1.864   0.885 -0.0221  0.2232  0.0514
    5BIM    C3029693   0.901   1.768   0.877 -0.0357  0.2350  0.0924
    5BIM    C3129694   1.116   1.825   0.967 -0.0459  0.2604  0.1007
    1BTD     S229695   0.603   3.799   7.727 -0.0322  0.0123 -0.0642
    1BTD     N129696   0.481   3.929   7.747  0.1675  0.1144  0.5418
    1BTD     N229697   0.492   3.667   7.781 -0.1884 -0.0511 -0.5310
    1BTD     N329698   0.047   3.636   7.926 -0.1460  0.0039 -0.3884
    1BTD     N429699   0.033   3.959   7.884  0.2925  0.2081  0.9333
    1BTD     C529700   0.247   3.941   7.819  0.2275  0.1608  0.7302
    1BTD     C629701   0.370   3.872   7.790  0.1105  0.0969  0.3734
    1BTD     C729702   0.376   3.725   7.810 -0.0887  0.0042 -0.2270
    1BTD     C829703   0.259   3.655   7.856 -0.1609 -0.0200 -0.4406
    1BTD    C1529704   0.141   3.727   7.883 -0.0412  0.0449 -0.0759
    1BTD    C1629705   0.135   3.868   7.865  0.1508  0.1342  0.5028
    1BTD    C4329706  -0.087   3.954   7.975  0.3654 -0.2316  0.9774
    1BTD    C4429707  -0.088   4.028   8.107  0.1381  0.0540 -0.6012
    1BTD    C4529708   0.035   3.997   8.199 -0.1044 -0.2228  0.6655
    1BTD    C4629709   0.052   3.859   8.260  0.1035  0.2388 -0.2319
    1BTD    C4729710  -0.223   4.031   8.179  0.4370  0.2370 -0.1713
    1BTD    C4829711  -0.247   4.140   8.276 -0.2134  0.0431 -0.2636
    1BTD    C4929712  -0.382   4.130   8.340 -0.4837  0.7630 -0.4136
    1BTD    C5029713  -0.447   4.246   8.411 -0.6402 -0.6296  0.5025
    1BTD    C7529714  -0.101   3.650   7.919 -0.1334  0.0546  0.3620
    1BTD    C7629715  -0.168   3.623   7.781  0.0478 -0.4164  0.1310
    1BTD    C7729716  -0.112   3.720   7.675 -0.4740  0.5403 -0.0277
    1BTD    C7829717  -0.151   3.705   7.523  0.2044  0.6776 -1.1200
    1BTD    C7929718  -0.327   3.610   7.793  0.2677 -0.3121 -0.6728
    1BTD    C8029719  -0.396   3.748   7.822 -1.0784  0.1163  0.0420
    1BTD    C8129720  -0.531   3.743   7.889 -0.7766  0.3607  0.0079
    1BTD    C8229721  -0.548   3.666   8.021  0.5255  0.8064 -0.0862
    2TTP     S129722   0.250   4.210   7.686  0.0586 -0.1438 -0.0544
    2TTP     S529723  -0.172   4.247   7.763  0.1428  0.3831  0.1647
    2TTP     C129724  -0.122   4.378   7.647  0.1798  0.1068 -0.1354
    2TTP     C229725   0.011   4.374   7.617  0.1559 -0.0721 -0.2209
    2TTP     C329726   0.078   4.268   7.684  0.1077  0.0025 -0.0522
    2TTP     C429727   0.200   4.079   7.802  0.0219  0.1324  0.2458
    2TTP    C1729728   0.067   4.082   7.833  0.0458  0.3116  0.3314
    2TTP    C1829729  -0.001   4.189   7.766  0.0939  0.2370  0.1627
    2TTP    C3229730   0.087   4.465   7.513 -0.1296  0.5343  0.0484
    2TTP    C3329731   0.212   4.542   7.550  0.9483  0.0065 -0.3573
    2TTP    C3429732   0.197   4.611   7.688 -0.0259  0.8711 -0.0403
    2TTP    C3529733   0.323   4.690   7.734 -0.4518  0.6088 -0.0246
    2TTP    C3629734   0.281   4.762   7.859  0.3920  0.4441 -0.3651
    2TTP    C3729735   0.386   4.868   7.899 -0.0690  0.1872 -0.4841
    2TTP    C3829736   0.510   4.803   7.961 -0.0871 -0.6763  0.0728
    2TTP    C3929737   0.622   4.898   8.014 -0.0857  0.1443  0.2836
    2TTP    C4029738   0.745   4.813   8.060  0.6406 -0.2474  0.3212
    2TTP    C4129739   0.862   4.897   8.117  0.0588 -0.1292  0.4084
    2TTP    C4229740   0.988   4.811   8.152 -0.3384  0.0359  0.0942
    3TTP     S129741   0.316   3.361   7.861  0.1500  0.0386  0.0356
    3TTP     S529742  -0.094   3.297   7.974  0.2337  0.1955  0.4308
    3TTP     C129743  -0.015   3.135   7.947  0.0879  0.1702  0.1420
    3TTP     C229744   0.116   3.145   7.911  0.0538  0.1202  0.0030
    3TTP     C329745   0.160   3.281   7.903  0.1411  0.1002  0.1196
    3TTP     C429746   0.238   3.522   7.887  0.2954  0.0640  0.3245
    3TTP    C1729747   0.106   3.512   7.923  0.3297  0.1139  0.4636
    3TTP    C1829748   0.063   3.376   7.932  0.2425  0.1341  0.3470
    3TTP    C3229749   0.216   3.034   7.873 -0.2324 -0.4723  0.1565
    3TTP    C3329750   0.263   3.016   7.730 -0.6415  0.6408  0.2213
    3TTP    C3429751   0.160   3.009   7.627  0.1238  0.9541  0.2010
    3TTP    C3529752   0.085   2.872   7.639 -0.0167 -0.2733  0.2779
    3TTP    C3629753  -0.047   2.857   7.564 -0.1466  0.1086  0.5725
    3TTP    C3729754  -0.054   2.819   7.416 -0.6389  0.2110  0.2017
    3TTP    C3829755   0.006   2.678   7.385 -0.8725 -0.0684 -0.1793
    3TTP    C3929756  -0.057   2.627   7.253 -0.4547  0.8678 -0.1947
    3TTP    C4029757  -0.020   2.483   7.204  0.0042  0.3425 -0.8910
    3TTP    C4129758  -0.079   2.449   7.068  0.5277 -0.2040 -0.1358
    3TTP    C4229759  -0.071   2.304   7.024  0.2804  0.6401 -0.4821
    4BIM     F129760  -0.921   4.393   7.476  0.1948 -0.2376 -0.0592
    4BIM     F229761  -0.879   4.617   7.327  0.0436 -0.2283 -0.0875
    4BIM     O129762  -0.419   4.292   7.652  0.2582  0.1414 -0.0209
    4BIM     N529763  -0.461   4.867   7.239 -0.1290  0.0554 -0.1013
    4BIM     N629764  -0.077   4.743   7.407 -0.0489  0.3496 -0.0657
    4BIM    C1929765  -0.201   4.470   7.573  0.1362  0.2851 -0.0345
    4BIM    C2029766  -0.328   4.487   7.534  0.1259  0.1893 -0.0430
    4BIM    C2129767  -0.435   4.391   7.579  0.1915  0.1199 -0.0353
    4BIM    C2229768  -0.562   4.438   7.520  0.1612  0.0225 -0.0478
    4BIM    C2329769  -0.688   4.381   7.533  0.2005 -0.0653 -0.0463
    4BIM    C2429770  -0.793   4.444   7.467  0.1594 -0.1485 -0.0599
    4BIM    C2529771  -0.771   4.559   7.391  0.0815 -0.1434 -0.0745
    4BIM    C2629772  -0.645   4.616   7.377  0.0417 -0.0563 -0.0761
    4BIM    C2729773  -0.538   4.554   7.443  0.0825  0.0287 -0.0625
    4BIM    C2829774  -0.394   4.589   7.449  0.0579  0.1315 -0.0602
    4BIM    C2929775  -0.332   4.695   7.387 -0.0145  0.1664 -0.0716
    4BIM    C3029776  -0.403   4.790   7.306 -0.0770  0.1051 -0.0880
    4BIM    C3129777  -0.192   4.721   7.399 -0.0329  0.2670 -0.0683
    5BIM     F129778  -0.777   2.911   7.753  0.1812 -0.0390 -0.3316
    5BIM     F229779  -0.722   2.661   7.844  0.0622  0.0286 -0.0718
    5BIM     O129780  -0.303   3.158   7.841  0.1812 -0.0732 -0.2356
    5BIM     N529781  -0.306   2.476   8.037 -0.1085  0.1016  0.3698
    5BIM     N629782   0.054   2.719   8.087 -0.0849  0.0613  0.3924
    5BIM    C1929783  -0.082   3.006   7.959  0.0675 -0.0207  0.0465
    5BIM    C2029784  -0.204   2.954   7.933  0.0722 -0.0147  0.0124
    5BIM    C2129785  -0.312   3.038   7.872  0.1321 -0.0431 -0.1349
    5BIM    C2229786  -0.430   2.951   7.858  0.1211 -0.0280 -0.1359
    5BIM    C2329787  -0.555   2.984   7.806  0.1631 -0.0442 -0.2490
    5BIM    C2429788  -0.651   2.885   7.803  0.1423 -0.0246 -0.2244
    5BIM    C2529789  -0.623   2.756   7.850  0.0807  0.0103 -0.0905
    5BIM    C2629790  -0.499   2.721   7.901  0.0386  0.0268  0.0228
    5BIM    C2729791  -0.400   2.821   7.906  0.0591  0.0072  0.0000
    5BIM    C2829792  -0.259   2.818   7.954  0.0265  0.0167  0.0964
    5BIM    C2929793  -0.194   2.709   8.007 -0.0341  0.0486  0.2365
    5BIM    C3029794  -0.256   2.581   8.023 -0.0749  0.0776  0.3095
    5BIM    C3129795  -0.058   2.715   8.051 -0.0615  0.0554  0.3214
    1BTD     S229796   5.960   5.221   7.442  0.0343  0.0973 -0.2963
    1BTD     N129797   5.813   5.308   7.387  0.0080  0.1891 -0.0814
    1BTD     N229798   6.050   5.370   7.486  0.1578  0.0372 -0.3428
    1BTD     N329799   5.967   5.832   7.477  0.3617  0.0802 -0.0498
    1BTD     N429800   5.674   5.755   7.355  0.1770  0.2673  0.2723
    1BTD     C529801   5.744   5.542   7.372  0.0985  0.2277  0.0993
    1BTD     C629802   5.837   5.437   7.404  0.0885  0.1709 -0.0569
    1BTD     C729803   5.970   5.472   7.459  0.1723  0.0861 -0.2030
    1BTD     C829804   6.003   5.610   7.480  0.2620  0.0619 -0.1860
    1BTD    C1529805   5.909   5.710   7.447  0.2686  0.1194 -0.0307
    1BTD    C1629806   5.781   5.676   7.394  0.1877  0.2014  0.1103
    1BTD    C4329807   5.645   5.886   7.405  0.3225  0.7609 -0.0356
    1BTD    C4429808   5.598   6.001   7.320  0.3987 -0.3597  0.5511
    1BTD    C4529809   5.669   6.025   7.182  0.2841  0.1974 -0.2933
    1BTD    C4629810   5.672   5.919   7.071  0.5710 -0.2098  0.4885
    1BTD    C4729811   5.584   6.129   7.409 -0.2414 -0.2139 -0.0977
    1BTD    C4829812   5.520   6.254   7.347 -0.4393  0.0857 -0.7520
    1BTD    C4929813   5.500   6.354   7.462  0.2082 -0.0520  1.0220
    1BTD    C5029814   5.384   6.447   7.418 -0.1853 -0.2994 -0.3584
    1BTD    C7529815   5.943   5.967   7.426 -0.0566  0.1352 -0.1537
    1BTD    C7629816   6.036   6.032   7.318 -0.2938 -0.2085 -0.9223
    1BTD    C7729817   5.994   6.181   7.297  0.5696  0.2581 -0.3583
    1BTD    C7829818   6.015   6.284   7.413 -0.0954 -0.0232 -0.1466
    1BTD    C7929819   6.042   5.940   7.194 -0.2211 -0.2255 -0.1639
    1BTD    C8029820   6.137   5.983   7.082 -0.2295 -0.3701 -0.6308
    1BTD    C8129821   6.121   5.899   6.960 -0.5001  0.6274  0.6573
    1BTD    C8229822   6.222   5.937   6.860 -0.5310 -0.1199  1.1013
    2TTP     S129823   5.474   5.429   7.275 -0.2387  0.0047  0.0487
    2TTP     S529824   5.318   5.829   7.252 -0.0179  0.0652 -0.4247
    2TTP     C129825   5.185   5.712   7.207 -0.0230  0.0978 -0.4957
    2TTP     C229826   5.226   5.582   7.212 -0.0914  0.0809 -0.3537
    2TTP     C329827   5.363   5.569   7.250 -0.1425  0.0418 -0.1836
    2TTP     C429828   5.607   5.545   7.319 -0.2335 -0.0280  0.1197
    2TTP    C1729829   5.566   5.676   7.315 -0.1651 -0.0110 -0.0222
    2TTP    C1829830   5.429   5.688   7.276 -0.1141  0.0281 -0.1924
    2TTP    C3229831   5.147   5.461   7.172  0.7808 -0.1577  0.4422
    2TTP    C3329832   5.139   5.357   7.280  0.6316 -0.3573 -0.3344
    2TTP    C3429833   5.045   5.240   7.271 -0.1489 -0.2793  0.3205
    2TTP    C3529834   4.890   5.265   7.281 -0.2831  0.2871 -0.2438
    2TTP    C3629835   4.812   5.139   7.269 -0.3906  0.0154  0.5167
    2TTP    C3729836   4.663   5.167   7.259 -0.1080 -0.1908 -0.0059
    2TTP    C3829837   4.577   5.045   7.277 -0.1811  0.1254  0.0814
    2TTP    C3929838   4.433   5.053   7.237  0.5936  0.3573 -0.3173
    2TTP    C4029839   4.331   5.139   7.304  0.7272 -0.1069 -0.6282
    2TTP    C4129840   4.196   5.108   7.226 -0.2677  0.0224 -0.0195
    2TTP    C4229841   4.080   5.190   7.275  0.3597 -0.3942  0.0828
    3TTP     S129842   6.277   5.623   7.599  0.0838 -0.1292 -0.0234
    3TTP     S529843   6.228   6.048   7.638 -0.3557 -0.1477 -0.3595
    3TTP     C129844   6.388   6.002   7.710 -0.3326  0.0668 -0.2706
    3TTP     C229845   6.413   5.868   7.702 -0.1954  0.0851 -0.1616
    3TTP     C329846   6.306   5.797   7.639 -0.1037 -0.0695 -0.1444
    3TTP     C429847   6.117   5.669   7.527  0.0608 -0.3437 -0.1124
    3TTP    C1729848   6.092   5.803   7.535 -0.0764 -0.3621 -0.2212
    3TTP    C1829849   6.199   5.874   7.598 -0.1681 -0.2074 -0.2387
    3TTP    C3229850   6.536   5.793   7.751 -0.7573 -0.2202  0.1825
    3TTP    C3329851   6.615   5.715   7.647 -1.0977  0.0301  0.2304
    3TTP    C3429852   6.631   5.777   7.509 -0.7260 -0.3364  0.0205
    3TTP    C3529853   6.682   5.682   7.397 -0.2192  0.2598 -0.0660
    3TTP    C3629854   6.725   5.741   7.264 -0.8073 -0.4432  0.1885
    3TTP    C3729855   6.835   5.849   7.264  0.0598  0.1517  0.0812
    3TTP    C3829856   6.969   5.803   7.322  0.3635  0.3681  0.4997
    3TTP    C3929857   7.065   5.914   7.312  0.2411 -0.4650 -0.0037
    3TTP    C4029858   7.208   5.875   7.322 -0.2751 -0.0755  0.0943
    3TTP    C4129859   7.313   5.982   7.359 -0.1122 -0.5852 -0.4709
    3TTP    C4229860   7.339   6.095   7.261  0.0631 -0.4590  0.0591
    4BIM     F129861   4.880   6.363   6.811  0.0341  0.0213 -0.0069
    4BIM     F229862   4.630   6.268   6.862  0.0113  0.1327  0.0914
    4BIM     O129863   5.186   5.975   7.031 -0.0521 -0.0789 -0.0635
    4BIM     N529864   4.490   5.854   7.093 -0.0830  0.2209  0.1926
    4BIM     N629865   4.779   5.569   7.255 -0.1458  0.1200  0.1284
    4BIM    C1929866   5.056   5.745   7.159 -0.1046 -0.0083  0.0103
    4BIM    C2029867   4.989   5.847   7.101 -0.0820  0.0125  0.0207
    4BIM    C2129868   5.063   5.961   7.038 -0.0558 -0.0263 -0.0192
    4BIM    C2229869   4.960   6.053   6.985 -0.0354  0.0099  0.0045
    4BIM    C2329870   4.980   6.174   6.918 -0.0081 -0.0070 -0.0175
    4BIM    C2429871   4.867   6.244   6.878  0.0070  0.0351  0.0125
    4BIM    C2529872   4.739   6.194   6.905 -0.0048  0.0924  0.0633
    4BIM    C2629873   4.718   6.074   6.972 -0.0318  0.1097  0.0855
    4BIM    C2729874   4.831   6.002   7.013 -0.0476  0.0675  0.0557
    4BIM    C2829875   4.844   5.873   7.085 -0.0768  0.0714  0.0677
    4BIM    C2929876   4.740   5.794   7.129 -0.0954  0.1203  0.1134
    4BIM    C3029877   4.603   5.827   7.109 -0.0885  0.1754  0.1566
    4BIM    C3129878   4.762   5.671   7.198 -0.1230  0.1198  0.1214
    5BIM     F129879   6.460   6.815   7.745 -0.2941  0.0203  0.0187
    5BIM     F229880   6.724   6.782   7.801 -0.2812  0.1739  0.0474
    5BIM     O129881   6.299   6.299   7.710  0.0451 -0.0738 -0.1674
    5BIM     N529882   6.989   6.368   7.858 -0.0210  0.3273 -0.0436
    5BIM     N629883   6.810   5.972   7.820  0.2414  0.2228 -0.1947
    5BIM    C1929884   6.494   6.085   7.752  0.1779  0.0394 -0.2058
    5BIM    C2029885   6.524   6.216   7.759  0.0921  0.0570 -0.1601
    5BIM    C2129886   6.419   6.320   7.736  0.0278 -0.0044 -0.1429
    5BIM    C2229887   6.485   6.451   7.750 -0.0591  0.0345 -0.0920
    5BIM    C2329888   6.427   6.577   7.738 -0.1392  0.0012 -0.0607
    5BIM    C2429889   6.510   6.687   7.755 -0.2128  0.0494 -0.0140
    5BIM    C2529890   6.647   6.670   7.785 -0.2060  0.1284  0.0006
    5BIM    C2629891   6.705   6.544   7.797 -0.1264  0.1621 -0.0302
    5BIM    C2729892   6.622   6.432   7.779 -0.0511  0.1141 -0.0776
    5BIM    C2829893   6.652   6.287   7.786  0.0421  0.1312 -0.1190
    5BIM    C2929894   6.774   6.229   7.812  0.0756  0.2021 -0.1190
    5BIM    C3029895   6.892   6.306   7.837  0.0224  0.2706 -0.0776
    5BIM    C3129896   6.793   6.088   7.816  0.1665  0.2130 -0.1607
    1BTD     S229897   5.097   0.555   8.460 -0.2176  0.0546 -0.0871
    1BTD     N129898   4.936   0.487   8.420 -0.3814  0.2454  0.2432
    1BTD     N229899   5.119   0.455   8.608  0.0558 -0.1114 -0.2367
    1BTD     N329900   4.870   0.130   8.838  0.3171 -0.1051  0.0553
    1BTD     N429901   4.645   0.169   8.606 -0.2215  0.3346  0.6464
    1BTD     C529902   4.786   0.320   8.520 -0.2913  0.2867  0.4466
    1BTD     C629903   4.907   0.398   8.514 -0.2315  0.1790  0.2260
    1BTD     C729904   5.010   0.380   8.619  0.0130 -0.0207 -0.0424
    1BTD     C829905   4.986   0.286   8.725  0.1855 -0.1028 -0.0768
    1BTD    C1529906   4.867   0.212   8.727  0.1190  0.0080  0.1448
    1BTD    C1629907   4.768   0.229   8.625 -0.1166  0.2004  0.4034
    1BTD    C4329908   4.591   0.032   8.638  0.0031  0.1086 -0.7035
    1BTD    C4429909   4.611  -0.088   8.547  0.0515  0.2579  0.3558
    1BTD    C4529910   4.761  -0.119   8.511  0.2678 -0.3693  0.1718
    1BTD    C4629911   4.848  -0.182   8.622  0.2548  0.0123  0.3661
    1BTD    C4729912   4.520  -0.208   8.577 -0.1679 -0.4236 -0.1081
    1BTD    C4829913   4.502  -0.303   8.457  0.0209  0.1165 -0.5415
    1BTD    C4929914   4.398  -0.257   8.351  0.7654 -0.1686 -0.2999
    1BTD    C5029915   4.254  -0.234   8.403 -0.1316 -0.0353 -0.3901
    1BTD    C7529916   4.758   0.104   8.933 -0.1781  0.4851  0.2698
    1BTD    C7629917   4.752  -0.020   9.032  0.2265  0.4351  0.3207
    1BTD    C7729918   4.642  -0.017   9.134 -0.4588  0.0483  0.4210
    1BTD    C7829919   4.671   0.096   9.234 -0.3666 -0.1159  0.2432
    1BTD    C7929920   4.733  -0.155   8.957  0.4054 -0.0340 -0.1935
    1BTD    C8029921   4.748  -0.284   9.032  0.0789 -0.6477  0.0144
    1BTD    C8129922   4.746  -0.401   8.936  0.4779  0.1424 -0.2815
    1BTD    C8229923   4.784  -0.535   9.005  0.7704 -0.2568 -0.0356
    2TTP     S129924   4.599   0.422   8.305 -0.0723  0.0243 -0.2650
    2TTP     S529925   4.296   0.153   8.449  0.0495  0.2573  0.4308
    2TTP     C129926   4.225   0.252   8.314 -0.0635  0.0329  0.3244
    2TTP     C229927   4.315   0.341   8.261 -0.1078 -0.0522  0.1030
    2TTP     C329928   4.442   0.334   8.326 -0.0540  0.0566  0.0100
    2TTP     C429929   4.669   0.323   8.440  0.0408  0.2487 -0.1583
    2TTP    C1729930   4.580   0.234   8.493  0.0851  0.3339  0.0630
    2TTP    C1829931   4.452   0.241   8.428  0.0315  0.2250  0.1559
    2TTP    C3229932   4.314   0.436   8.144  0.3526  0.0326  0.5671
    2TTP    C3329933   4.360   0.384   8.009 -0.0099 -0.2283  0.2817
    2TTP    C3429934   4.365   0.235   7.972 -0.1380  0.2237  0.2678
    2TTP    C3529935   4.473   0.194   7.874 -0.3603  0.3476 -0.0234
    2TTP    C3629936   4.618   0.245   7.902  0.3833 -0.4635 -0.2106
    2TTP    C3729937   4.712   0.137   7.858 -0.6561  0.2631 -0.2518
    2TTP    C3829938   4.858   0.121   7.913  0.3659  0.2358  0.1756
    2TTP    C3929939   4.870   0.102   8.058 -0.1379  0.2572  0.0055
    2TTP    C4029940   5.018   0.082   8.107  0.6009  0.1993 -0.3404
    2TTP    C4129941   5.027   0.062   8.264  0.1173  0.1138  0.1325
    2TTP    C4229942   5.165   0.073   8.328 -0.8612 -0.0205 -0.3922
    3TTP     S129943   5.240   0.254   8.892 -0.3844  0.0660 -0.0169
    3TTP     S529944   5.065  -0.100   9.063  0.0222  0.0069  0.2780
    3TTP     C129945   5.242  -0.096   9.106  0.0317  0.2132  0.2216
    3TTP     C229946   5.306   0.014   9.056 -0.0933  0.2439  0.1268
    3TTP     C329947   5.218   0.098   8.981 -0.2011  0.1052  0.0958
    3TTP     C429948   5.063   0.249   8.849 -0.3940 -0.1406  0.0393
    3TTP    C1729949   4.999   0.140   8.899 -0.2689 -0.1710  0.1342
    3TTP    C1829950   5.087   0.055   8.973 -0.1612 -0.0322  0.1650
    3TTP    C3229951   5.452   0.062   9.085  0.4700  0.3103  0.1436
    3TTP    C3329952   5.464   0.183   9.177 -0.0040  0.0381  0.0427
    3TTP    C3429953   5.603   0.245   9.185  0.1248  0.5058  0.3871
    3TTP    C3529954   5.637   0.344   9.075 -0.4419 -0.0650  0.5509
    3TTP    C3629955   5.554   0.472   9.071  0.5872  0.7298  0.2753
    3TTP    C3729956   5.562   0.563   8.947 -0.0724  0.0778  0.3118
    3TTP    C3829957   5.537   0.498   8.810  0.0033 -0.3882 -0.2710
    3TTP    C3929958   5.534   0.605   8.698 -0.1997  0.6143  0.3249
    3TTP    C4029959   5.532   0.545   8.551  0.5369 -0.6312  0.1447
    3TTP    C4129960   5.457   0.649   8.463  0.1057  0.1179 -0.4765
    3TTP    C4229961   5.467   0.601   8.318 -0.3745  0.0436  0.3646
    4BIM     F129962   3.519  -0.047   8.603  0.0795 -0.4334 -0.0846
    4BIM     F229963   3.410  -0.007   8.356 -0.1356 -0.0641  0.0684
    4BIM     O129964   4.019   0.145   8.527  0.0104 -0.3103 -0.2310
    4BIM     N529965   3.611   0.188   7.948 -0.4938  0.5539  0.1845
    4BIM     N629966   4.024   0.330   7.939 -0.5046  0.5756  0.0396
    4BIM    C1929967   4.093   0.252   8.265 -0.2197  0.0859 -0.1364
    4BIM    C2029968   3.972   0.202   8.294 -0.1938  0.0405 -0.1056
    4BIM    C2129969   3.941   0.149   8.431 -0.0736 -0.1666 -0.1581
    4BIM    C2229970   3.801   0.103   8.428 -0.0755 -0.1643 -0.1061
    4BIM    C2329971   3.728   0.046   8.532  0.0157 -0.3220 -0.1276
    4BIM    C2429972   3.597   0.010   8.505 -0.0069 -0.2841 -0.0678
    4BIM    C2529973   3.541   0.031   8.378 -0.1178 -0.0938  0.0113
    4BIM    C2629974   3.613   0.087   8.274 -0.2092  0.0642  0.0331
    4BIM    C2729975   3.746   0.125   8.299 -0.1879  0.0286 -0.0267
    4BIM    C2829976   3.849   0.186   8.211 -0.2650  0.1621 -0.0231
    4BIM    C2929977   3.834   0.222   8.080 -0.3803  0.3604  0.0434
    4BIM    C3029978   3.711   0.203   8.008 -0.4424  0.4661  0.1209
    4BIM    C3129979   3.938   0.281   8.003 -0.4479  0.4776  0.0410
    5BIM     F129980   5.097  -0.898   9.194  0.0147  0.0079  0.0014
    5BIM     F229981   5.327  -0.918   9.338  0.1386 -0.1085 -0.2124
    5BIM     O129982   5.097  -0.370   9.075 -0.0447  0.0892  0.3557
    5BIM     N529983   5.659  -0.571   9.459  0.2742 -0.2186 -0.2668
    5BIM     N629984   5.612  -0.154   9.337  0.2029 -0.1316  0.0532
    5BIM    C1929985   5.317  -0.201   9.170  0.0523  0.0065  0.2774
    5BIM    C2029986   5.308  -0.333   9.194  0.0626 -0.0095  0.1967
    5BIM    C2129987   5.192  -0.413   9.142  0.0101  0.0355  0.2441
    5BIM    C2229988   5.213  -0.552   9.186  0.0372  0.0038  0.1321
    5BIM    C2329989   5.132  -0.662   9.162  0.0067  0.0269  0.1287
    5BIM    C2429990   5.173  -0.784   9.215  0.0420 -0.0118  0.0116
    5BIM    C2529991   5.291  -0.795   9.288  0.1058 -0.0719 -0.0987
    5BIM    C2629992   5.373  -0.685   9.313  0.1364 -0.0954 -0.0958
    5BIM    C2729993   5.333  -0.561   9.261  0.1016 -0.0567  0.0222
    5BIM    C2829994   5.397  -0.427   9.268  0.1197 -0.0670  0.0575
    5BIM    C2929995   5.514  -0.395   9.332  0.1781 -0.1206 -0.0236
    5BIM    C3029996   5.593  -0.492   9.402  0.2308 -0.1743 -0.1574
    5BIM    C3129997   5.568  -0.263   9.334  0.1915 -0.1264  0.0191
    1BTD     S229998   8.197   6.249   8.284 -0.2229  0.3725  0.2508
    1BTD     N129999   8.074   6.367   8.225 -0.2294  0.3548  0.2294
    1BTD     N230000   8.081   6.112   8.294 -0.1819  0.3299  0.1299
    1BTD     N330001   7.625   6.044   8.206 -0.1097  0.2106 -0.1557
    1BTD     N430002   7.617   6.358   8.122 -0.1682  0.2415 -0.0329
    1BTD     C530003   7.835   6.359   8.172 -0.1969  0.2952  0.0911
    1BTD     C630004   7.960   6.301   8.216 -0.2018  0.3198  0.1380
    1BTD     C730005   7.964   6.158   8.254 -0.1752  0.3057  0.0823
    1BTD     C830006   7.843   6.080   8.247 -0.1447  0.2680 -0.0176
    1BTD    C1530007   7.724   6.141   8.203 -0.1408  0.2449 -0.0605
    1BTD    C1630008   7.720   6.278   8.167 -0.1666  0.2586 -0.0068
    1BTD    C4330009   7.512   6.310   8.032  0.3465 -0.6243  0.4511
    1BTD    C4430010   7.372   6.373   7.988  0.4195 -0.1213 -0.0777
    1BTD    C4530011   7.299   6.310   7.869  0.4135  0.4626  0.6401
    1BTD    C4630012   7.375   6.295   7.736  0.3419  0.2824 -0.4723
    1BTD    C4730013   7.292   6.403   8.116  0.0110 -0.4548  0.5667
    1BTD    C4830014   7.167   6.490   8.104  0.3885 -0.5640  0.2282
    1BTD    C4930015   7.076   6.519   8.221  0.1531 -0.5198  0.2109
    1BTD    C5030016   7.018   6.399   8.294  0.4911 -0.5496 -0.2565
    1BTD    C7530017   7.478   6.045   8.215  0.0838 -0.0871  0.6875
    1BTD    C7630018   7.397   6.038   8.342  0.3475 -0.1212  0.3182
    1BTD    C7730019   7.255   6.092   8.310 -0.0775  0.1445  0.1888
    1BTD    C7830020   7.147   6.015   8.226 -0.1491 -0.0588 -0.0890
    1BTD    C7930021   7.407   5.910   8.423  0.1072  0.4714  0.0874
    1BTD    C8030022   7.350   5.932   8.566 -0.2587  0.4881 -0.6094
    1BTD    C8130023   7.372   5.802   8.650 -0.3224  0.0046  0.9783
    1BTD    C8230024   7.307   5.795   8.786 -0.1276 -0.3959 -0.2447
    2TTP     S130025   7.883   6.645   8.096  0.0460  0.0085  0.0105
    2TTP     S530026   7.461   6.700   8.035  0.0978  0.1746 -0.2012
    2TTP     C130027   7.544   6.860   8.009  0.1784  0.1322 -0.2037
    2TTP     C230028   7.680   6.852   8.027  0.1671  0.0782 -0.1388
    2TTP     C330029   7.722   6.720   8.061  0.0944  0.0688 -0.0842
    2TTP     C430030   7.800   6.485   8.121 -0.0348  0.0510  0.0131
    2TTP    C1730031   7.664   6.493   8.104 -0.0235  0.1050 -0.0521
    2TTP    C1830032   7.622   6.625   8.070  0.0492  0.1144 -0.1063
    2TTP    C3230033   7.782   6.961   7.984 -0.4870  0.5421 -0.0645
    2TTP    C3330034   7.875   7.013   8.093  0.2883 -0.3842  0.5317
    2TTP    C3430035   7.966   7.112   8.023 -0.6867 -0.6070 -0.6993
    2TTP    C3530036   8.064   7.165   8.127  0.2733  0.1056  0.1747
    2TTP    C3630037   8.144   7.291   8.087 -0.0394  0.3292 -0.2219
    2TTP    C3730038   8.252   7.330   8.186 -0.5055  0.2200  0.8251
    2TTP    C3830039   8.390   7.271   8.157 -0.1849 -0.3177  0.3530
    2TTP    C3930040   8.484   7.300   8.274 -0.0105  0.6054 -0.8243
    2TTP    C4030041   8.622   7.219   8.289  0.6230 -0.5122  0.9254
    2TTP    C4130042   8.718   7.264   8.400  0.1340 -0.4923  0.0966
    2TTP    C4230043   8.666   7.247   8.542  0.2833  0.3243 -0.3638
    3TTP     S130044   7.903   5.784   8.289 -0.0973  0.3426  0.3340
    3TTP     S530045   7.503   5.694   8.160  0.0831  0.1360 -0.0846
    3TTP     C130046   7.593   5.538   8.182  0.0663  0.1722  0.2512
    3TTP     C230047   7.722   5.556   8.223  0.0095  0.2381  0.3998
    3TTP     C330048   7.754   5.695   8.239 -0.0226  0.2624  0.2544
    3TTP     C430049   7.813   5.940   8.267 -0.0805  0.3066 -0.0019
    3TTP    C1730050   7.684   5.922   8.226 -0.0238  0.2407 -0.1507
    3TTP    C1830051   7.652   5.783   8.210  0.0085  0.2162 -0.0052
    3TTP    C3230052   7.818   5.441   8.254  0.4400 -0.0729  0.1542
    3TTP    C3330053   7.966   5.469   8.218  1.1183 -0.3769  0.7664
    3TTP    C3430054   8.069   5.360   8.245 -0.1690  0.0402 -0.2707
    3TTP    C3530055   8.027   5.216   8.206 -0.1309 -0.1512 -0.4161
    3TTP    C3630056   8.127   5.109   8.240 -0.3175  0.2513  0.2118
    3TTP    C3730057   8.166   5.095   8.386 -0.2962  0.0607 -0.3046
    3TTP    C3830058   8.288   5.009   8.421  0.0499  0.0417 -0.2569
    3TTP    C3930059   8.287   4.867   8.371  0.2637 -0.7933 -0.0119
    3TTP    C4030060   8.410   4.791   8.417  0.5396 -0.0760 -0.5799
    3TTP    C4130061   8.432   4.642   8.387 -0.3954  0.4607 -0.2941
    3TTP    C4230062   8.564   4.594   8.451  0.0103 -0.2451 -0.2199
    4BIM     F130063   6.785   7.098   7.781 -0.0938 -0.0633  0.1694
    4BIM     F230064   6.881   7.349   7.742 -0.1709  0.0252  0.5380
    4BIM     O130065   7.232   6.839   7.941  0.0303 -0.2128 -0.4125
    4BIM     N530066   7.340   7.526   7.800 -0.1932  0.0459  0.6530
    4BIM     N630067   7.670   7.274   7.933 -0.0808 -0.0885  0.1242
    4BIM    C1930068   7.484   6.988   7.961  0.0006 -0.1812 -0.2671
    4BIM    C2030069   7.368   7.043   7.922 -0.0275 -0.1471 -0.1351
    4BIM    C2130070   7.242   6.960   7.914 -0.0098 -0.1663 -0.2220
    4BIM    C2230071   7.135   7.051   7.869 -0.0491 -0.1193 -0.0367
    4BIM    C2330072   7.001   7.019   7.847 -0.0496 -0.1173 -0.0373
    4BIM    C2430073   6.918   7.122   7.804 -0.0911 -0.0682  0.1585
    4BIM    C2530074   6.968   7.251   7.784 -0.1305 -0.0226  0.3480
    4BIM    C2630075   7.102   7.283   7.806 -0.1305 -0.0243  0.3499
    4BIM    C2730076   7.187   7.181   7.849 -0.0889 -0.0737  0.1534
    4BIM    C2830077   7.332   7.181   7.881 -0.0772 -0.0889  0.1003
    4BIM    C2930078   7.417   7.289   7.874 -0.1066 -0.0557  0.2426
    4BIM    C3030079   7.374   7.419   7.833 -0.1545  0.0001  0.4675
    4BIM    C3130080   7.556   7.280   7.906 -0.0923 -0.0740  0.1765
    5BIM     F130081   6.972   5.265   7.717 -0.0682 -0.1103  0.1068
    5BIM     F230082   7.010   5.017   7.823  0.1359 -0.1010  0.0567
    5BIM     O130083   7.368   5.541   7.963 -0.1607  0.1166  0.0004
    5BIM     N530084   7.346   4.857   8.149  0.3633  0.0740 -0.0906
    5BIM     N630085   7.648   5.123   8.319  0.2500  0.2495 -0.1638
    5BIM    C1930086   7.544   5.403   8.150  0.0013  0.2060 -0.0849
    5BIM    C2030087   7.443   5.343   8.085  0.0168  0.1488 -0.0563
    5BIM    C2130088   7.357   5.421   7.990 -0.0705  0.1054 -0.0130
    5BIM    C2230089   7.258   5.326   7.936 -0.0274  0.0473  0.0099
    5BIM    C2330090   7.156   5.352   7.844 -0.0792 -0.0064  0.0513
    5BIM    C2430091   7.074   5.246   7.808 -0.0219 -0.0557  0.0661
    5BIM    C2530092   7.094   5.118   7.862  0.0832 -0.0508  0.0403
    5BIM    C2630093   7.195   5.091   7.954  0.1349  0.0027 -0.0010
    5BIM    C2730094   7.279   5.198   7.992  0.0784  0.0530 -0.0165
    5BIM    C2830095   7.394   5.203   8.085  0.1099  0.1154 -0.0582
    5BIM    C2930096   7.444   5.098   8.159  0.2069  0.1382 -0.0923
    5BIM    C3030097   7.390   4.966   8.153  0.2925  0.1030 -0.0911
    5BIM    C3130098   7.556   5.113   8.247  0.2301  0.1993 -0.1314
    1BTD     S230099   4.756   0.049   3.269  0.2003  0.1506  0.2251
    1BTD     N130100   4.620   0.149   3.207  0.1949  0.0788  0.1214
    1BTD     N230101   4.673  -0.108   3.240  0.3352  0.1042  0.0913
    1BTD     N330102   4.259  -0.247   3.067  0.6007 -0.1197 -0.3685
    1BTD     N430103   4.194   0.069   3.027  0.4277 -0.1512 -0.3314
    1BTD     C530104   4.398   0.104   3.113  0.3184 -0.0409 -0.1155
    1BTD     C630105   4.525   0.065   3.169  0.2891  0.0267 -0.0012
    1BTD     C730106   4.555  -0.079   3.188  0.3675  0.0410 -0.0181
    1BTD     C830107   4.456  -0.177   3.149  0.4717 -0.0131 -0.1483
    1BTD    C1530108   4.334  -0.134   3.095  0.4970 -0.0788 -0.2572
    1BTD    C1630109   4.305   0.005   3.077  0.4213 -0.0922 -0.2411
    1BTD    C4330110   4.111   0.026   2.914 -0.5263  0.0593 -0.0250
    1BTD    C4430111   3.976   0.076   2.876  0.3511 -0.3063 -0.3525
    1BTD    C4530112   3.937   0.064   2.730 -0.5157  0.2371 -0.2206
    1BTD    C4630113   4.036   0.078   2.614  0.3700 -0.2374 -0.2720
    1BTD    C4730114   3.860   0.047   2.977 -0.0188 -0.4213  0.2456
    1BTD    C4830115   3.723   0.117   2.940 -0.2679  0.3863  0.0929
    1BTD    C4930116   3.629   0.110   3.062  0.3313 -0.1208  0.5014
    1BTD    C5030117   3.491   0.167   3.023  0.4519 -0.1123 -0.0035
    1BTD    C7530118   4.109  -0.250   3.059  0.1822 -0.1236 -0.5154
    1BTD    C7630119   4.024  -0.356   2.989  0.0192 -0.1368 -0.4320
    1BTD    C7730120   3.872  -0.351   3.032  0.2288 -0.0918 -0.1736
    1BTD    C7830121   3.837  -0.348   3.180  0.3176  0.2809 -0.6022
    1BTD    C7930122   4.039  -0.350   2.836 -0.9383  0.0010  0.1662
    1BTD    C8030123   3.965  -0.434   2.734 -0.2117  0.5777 -0.4230
    1BTD    C8130124   4.059  -0.555   2.700  0.5341 -0.3547  0.2139
    1BTD    C8230125   4.003  -0.634   2.584 -0.0539  0.0133  0.0371
    2TTP     S130126   4.391   0.400   3.123  0.0438  0.1043 -0.2845
    2TTP     S530127   3.973   0.389   3.022 -0.1106  0.0071  0.3582
    2TTP     C130128   4.017   0.559   3.069 -0.0578  0.0359  0.2035
    2TTP     C230129   4.149   0.572   3.103 -0.0068  0.0675 -0.0040
    2TTP     C330130   4.220   0.449   3.093 -0.0079  0.0703 -0.0485
    2TTP     C430131   4.347   0.229   3.077 -0.0091  0.0756 -0.1298
    2TTP    C1730132   4.216   0.216   3.043 -0.0599  0.0439  0.0776
    2TTP    C1830133   4.145   0.340   3.053 -0.0589  0.0411  0.1221
    2TTP    C3230134   4.216   0.697   3.166  0.1659  0.4227  0.3992
    2TTP    C3330135   4.345   0.762   3.111 -0.4983 -0.1664  0.8638
    2TTP    C3430136   4.379   0.884   3.193  0.2206 -0.0106 -0.4657
    2TTP    C3530137   4.517   0.944   3.160 -0.1400 -0.3707 -0.5139
    2TTP    C3630138   4.643   0.849   3.184  0.4419  0.0120  0.7338
    2TTP    C3730139   4.766   0.942   3.167  0.4498  0.6023  0.3703
    2TTP    C3830140   4.894   0.866   3.166 -0.3907 -0.2080 -0.1182
    2TTP    C3930141   5.007   0.972   3.143  0.8633  0.4804 -0.1778
    2TTP    C4030142   5.149   0.927   3.151  0.2996 -0.0812  0.4662
    2TTP    C4130143   5.256   1.035   3.160  0.3466 -0.8503 -0.2611
    2TTP    C4230144   5.392   0.975   3.148 -0.2482 -0.0481  0.2006
    3TTP     S130145   4.562  -0.462   3.198 -0.0037  0.0829  0.1340
    3TTP     S530146   4.188  -0.620   3.055  0.0666  0.0050  0.0362
    3TTP     C130147   4.295  -0.759   3.104  0.1622  0.0182 -0.1342
    3TTP     C230148   4.417  -0.718   3.151  0.1463  0.0436 -0.1141
    3TTP     C330149   4.430  -0.576   3.150  0.0578  0.0527  0.0367
    3TTP     C430150   4.455  -0.323   3.149 -0.0993  0.0694  0.3044
    3TTP    C1730151   4.333  -0.364   3.102 -0.0831  0.0445  0.2842
    3TTP    C1830152   4.320  -0.506   3.103  0.0052  0.0350  0.1335
    3TTP    C3230153   4.535  -0.806   3.199 -0.4940  0.0485 -0.1340
    3TTP    C3330154   4.621  -0.767   3.325  0.7271 -0.2057 -0.0215
    3TTP    C3430155   4.723  -0.868   3.372  0.4405 -0.1384  0.2832
    3TTP    C3530156   4.821  -0.804   3.470  0.4334 -0.1307  0.2090
    3TTP    C3630157   4.906  -0.904   3.558 -0.0351 -0.0226  0.1768
    3TTP    C3730158   4.995  -1.008   3.504  0.2213  0.6134  0.0151
    3TTP    C3830159   5.048  -1.091   3.627  0.1316  0.5855 -0.5226
    3TTP    C3930160   5.100  -1.229   3.592  0.1061  0.3637 -0.3411
    3TTP    C4030161   5.227  -1.240   3.500  0.7023 -0.4567 -0.0927
    3TTP    C4130162   5.301  -1.370   3.494 -0.0633 -0.2154 -0.0384
    3TTP    C4230163   5.443  -1.338   3.440  0.2211  0.1864  0.3105
    4BIM     F130164   3.268   0.697   2.751  0.0769  0.1066 -0.1359
    4BIM     F230165   3.289   0.957   2.830  0.1477  0.0461  0.0445
    4BIM     O130166   3.741   0.498   2.922  0.0385 -0.1331 -0.3067
    4BIM     N530167   3.657   1.188   3.066  0.2221 -0.2117  0.1823
    4BIM     N630168   4.023   0.981   3.184  0.1780 -0.3868  0.0125
    4BIM    C1930169   3.930   0.676   3.059  0.0925 -0.2760 -0.1949
    4BIM    C2030170   3.810   0.716   3.013  0.0994 -0.2133 -0.1590
    4BIM    C2130171   3.719   0.619   2.944  0.0702 -0.1419 -0.2210
    4BIM    C2230172   3.598   0.694   2.906  0.0868 -0.0853 -0.1599
    4BIM    C2330173   3.485   0.647   2.840  0.0702 -0.0106 -0.1856
    4BIM    C2430174   3.382   0.737   2.816  0.0915  0.0323 -0.1154
    4BIM    C2530175   3.394   0.871   2.857  0.1279  0.0010 -0.0224
    4BIM    C2630176   3.506   0.919   2.923  0.1444 -0.0735  0.0038
    4BIM    C2730177   3.610   0.829   2.948  0.1236 -0.1178 -0.0665
    4BIM    C2830178   3.742   0.847   3.015  0.1329 -0.1978 -0.0622
    4BIM    C2930179   3.790   0.964   3.069  0.1659 -0.2477  0.0165
    4BIM    C3030180   3.717   1.087   3.067  0.1968 -0.2277  0.1074
    4BIM    C3130181   3.918   0.973   3.132  0.1723 -0.3239  0.0139
    5BIM     F130182   3.603  -1.195   2.990 -0.0320  0.2761 -0.0847
    5BIM     F230183   3.748  -1.424   3.010 -0.2367  0.1793  0.3027
    5BIM     O130184   3.989  -0.822   3.056  0.2620  0.0396 -0.4636
    5BIM     N530185   4.233  -1.488   3.086 -0.3214 -0.1290  0.5897
    5BIM     N630186   4.506  -1.150   3.133 -0.0503 -0.2942  0.2156
    5BIM    C1930187   4.266  -0.908   3.098  0.1708 -0.1369 -0.2281
    5BIM    C2030188   4.163  -0.993   3.081  0.1049 -0.0737 -0.1478
    5BIM    C2130189   4.023  -0.941   3.059  0.1581  0.0155 -0.2788
    5BIM    C2230190   3.936  -1.059   3.044  0.0628  0.0679 -0.1445
    5BIM    C2330191   3.799  -1.061   3.022  0.0696  0.1550 -0.1970
    5BIM    C2430192   3.738  -1.186   3.011 -0.0326  0.1905 -0.0434
    5BIM    C2530193   3.813  -1.303   3.022 -0.1379  0.1402  0.1562
    5BIM    C2630194   3.951  -1.302   3.044 -0.1453  0.0536  0.2096
    5BIM    C2730195   4.014  -1.177   3.055 -0.0428  0.0165  0.0561
    5BIM    C2830196   4.156  -1.141   3.078 -0.0212 -0.0727  0.0620
    5BIM    C2930197   4.261  -1.229   3.094 -0.1024 -0.1409  0.2300
    5BIM    C3030198   4.245  -1.371   3.089 -0.2224 -0.1342  0.4272
    5BIM    C3130199   4.395  -1.185   3.115 -0.0733 -0.2248  0.2211
    1BTD     S230200   9.413   5.602   3.135  0.2527  0.3506  0.1524
    1BTD     N130201   9.393   5.774   3.184  0.1113  0.3288  0.1738
    1BTD     N230202   9.240   5.580   3.091  0.2747  0.2196  0.1315
    1BTD     N330203   8.852   5.845   3.089  0.0641 -0.0869  0.1274
    1BTD     N430204   9.041   6.085   3.204 -0.1369  0.0477  0.1795
    1BTD     C530205   9.207   5.933   3.193 -0.0157  0.1804  0.1762
    1BTD     C630206   9.266   5.805   3.166  0.0892  0.2301  0.1647
    1BTD     C730207   9.180   5.696   3.113  0.1802  0.1689  0.1410
    1BTD     C830208   9.040   5.721   3.091  0.1621  0.0612  0.1301
    1BTD    C1530209   8.987   5.849   3.119  0.0584  0.0159  0.1419
    1BTD    C1630210   9.070   5.954   3.169 -0.0298  0.0748  0.1646
    1BTD    C4330211   8.915   6.153   3.240  0.3163 -0.2360 -0.5234
    1BTD    C4430212   8.867   6.159   3.380  0.5408  0.1647  0.2768
    1BTD    C4530213   8.838   6.013   3.436  0.2553 -0.3844 -0.4536
    1BTD    C4630214   8.779   6.004   3.576 -0.3942  0.4110  0.3882
    1BTD    C4730215   8.766   6.273   3.397  0.7230 -0.5824  0.0347
    1BTD    C4830216   8.627   6.254   3.335  0.3156  0.6138  0.4342
    1BTD    C4930217   8.521   6.349   3.397  0.0542 -0.3697  0.4602
    1BTD    C5030218   8.384   6.359   3.340  0.1090  0.0300  0.3967
    1BTD    C7530219   8.773   5.962   3.039 -0.4376 -0.0374 -0.2776
    1BTD    C7630220   8.626   5.981   3.047  0.3006 -1.5531  0.2902
    1BTD    C7730221   8.571   5.967   3.187 -0.3396 -0.2380 -0.4157
    1BTD    C7830222   8.426   5.944   3.217 -0.1457  0.2502  0.3804
    1BTD    C7930223   8.567   6.093   2.958 -0.6411  0.3361  0.6736
    1BTD    C8030224   8.569   6.064   2.809  0.5798 -0.0703 -0.0444
    1BTD    C8130225   8.503   6.163   2.718 -0.1763  0.1351 -0.3809
    1BTD    C8230226   8.494   6.127   2.569 -0.3373 -0.0396  0.2888
    2TTP     S130227   9.429   6.129   3.262  0.1433 -0.1519  0.0649
    2TTP     S530228   9.133   6.440   3.293  0.1304 -0.0726 -0.7797
    2TTP     C130229   9.297   6.514   3.317  0.1009 -0.0730 -0.5670
    2TTP     C230230   9.398   6.422   3.309  0.1028 -0.0975 -0.2937
    2TTP     C330231   9.349   6.290   3.283  0.1283 -0.1168 -0.2424
    2TTP     C430232   9.264   6.055   3.238  0.1731 -0.1513 -0.1476
    2TTP    C1730233   9.163   6.147   3.246  0.1710 -0.1270 -0.4210
    2TTP    C1830234   9.212   6.279   3.272  0.1459 -0.1075 -0.4723
    2TTP    C3230235   9.547   6.460   3.325 -0.3485 -0.9069  0.4477
    2TTP    C3330236   9.612   6.385   3.443 -0.4276 -0.1063  0.8850
    2TTP    C3430237   9.754   6.395   3.467 -0.6045 -0.3149 -0.1181
    2TTP    C3530238   9.806   6.283   3.556 -0.2929  1.0863 -0.6751
    2TTP    C3630239   9.954   6.273   3.575 -1.0892  0.3329  0.1995
    2TTP    C3730240   9.986   6.138   3.644 -0.4236  0.2173 -0.2271
    2TTP    C3830241  10.122   6.076   3.617  0.1512  0.0702  0.0377
    2TTP    C3930242  10.243   6.161   3.651  0.2027  0.1300  0.7960
    2TTP    C4030243  10.375   6.093   3.615 -0.2161 -0.1348 -0.2125
    2TTP    C4130244  10.493   6.185   3.671 -0.3439  0.2664 -0.2096
    2TTP    C4230245  10.629   6.134   3.624  0.7323 -0.4390  0.4896
    3TTP     S130246   8.902   5.464   3.002  0.1723  0.0952 -0.1497
    3TTP     S530247   8.528   5.677   3.000 -0.0052 -0.2124  0.0174
    3TTP     C130248   8.496   5.503   2.956  0.1095 -0.2531  0.0922
    3TTP     C230249   8.610   5.427   2.954  0.1707 -0.1605  0.0449
    3TTP     C330250   8.726   5.503   2.987  0.1299 -0.0540 -0.0520
    3TTP     C430251   8.934   5.637   3.046  0.0575  0.1357 -0.2244
    3TTP    C1730252   8.821   5.713   3.049 -0.0039  0.0432 -0.1773
    3TTP    C1830253   8.704   5.637   3.015  0.0372 -0.0631 -0.0803
    3TTP    C3230254   8.624   5.286   2.904 -0.0598 -0.0467 -0.2485
    3TTP    C3330255   8.668   5.181   3.007  0.1237  0.4790  0.4166
    3TTP    C3430256   8.639   5.039   2.955 -0.3999  0.3672 -0.2594
    3TTP    C3530257   8.710   4.932   3.042  1.1097 -0.4482  0.0788
    3TTP    C3630258   8.679   4.795   2.994  0.3717  0.5019  0.2383
    3TTP    C3730259   8.769   4.688   3.045  0.4813 -0.1579 -0.0483
    3TTP    C3830260   8.720   4.550   3.004 -0.2356  0.0330 -0.1034
    3TTP    C3930261   8.807   4.427   3.027 -0.1143  0.5996  0.2058
    3TTP    C4030262   8.848   4.381   3.170 -0.4590  0.6137  0.6692
    3TTP    C4130263   8.942   4.261   3.174  0.0971  0.2631  0.1486
    3TTP    C4230264   8.981   4.207   3.311  0.3306 -0.6209  0.0061
    4BIM     F130265   8.887   7.213   3.201  0.0558  0.0076 -0.1235
    4BIM     F230266   9.083   7.344   3.339 -0.1497 -0.0221  0.1994
    4BIM     O130267   9.078   6.706   3.210  0.1495  0.0427 -0.1357
    4BIM     N530268   9.499   7.170   3.542 -0.3784 -0.0396  0.6550
    4BIM     N630269   9.609   6.748   3.521 -0.2635 -0.0062  0.5805
    4BIM    C1930270   9.332   6.651   3.344 -0.0132  0.0270  0.1685
    4BIM    C2030271   9.277   6.773   3.337 -0.0288  0.0192  0.1590
    4BIM    C2130272   9.146   6.794   3.266  0.0589  0.0283 -0.0018
    4BIM    C2230273   9.114   6.938   3.276  0.0150  0.0165  0.0312
    4BIM    C2330274   9.003   7.004   3.226  0.0670  0.0191 -0.0801
    4BIM    C2430275   8.995   7.141   3.248  0.0095  0.0058 -0.0201
    4BIM    C2530276   9.096   7.208   3.319 -0.0963 -0.0094  0.1463
    4BIM    C2630277   9.207   7.142   3.370 -0.1483 -0.0122  0.2581
    4BIM    C2730278   9.217   7.004   3.348 -0.0916  0.0011  0.1996
    4BIM    C2830279   9.321   6.906   3.388 -0.1228  0.0024  0.2848
    4BIM    C2930280   9.435   6.932   3.459 -0.2205 -0.0101  0.4488
    4BIM    C3030281   9.470   7.063   3.504 -0.3071 -0.0263  0.5616
    4BIM    C3130282   9.530   6.831   3.493 -0.2434 -0.0079  0.5203
    5BIM     F130283   7.874   5.843   2.535 -0.0480 -0.2034  0.1199
    5BIM     F230284   7.760   5.597   2.519  0.2577 -0.3288 -0.1545
    5BIM     O130285   8.325   5.729   2.813 -0.0055  0.0817  0.1676
    5BIM     N530286   7.917   5.161   2.694  0.7275 -0.3060 -0.5152
    5BIM     N630287   8.292   5.122   2.915  0.6993 -0.0579 -0.4226
    5BIM    C1930288   8.376   5.454   2.896  0.3020  0.0629 -0.0776
    5BIM    C2030289   8.267   5.492   2.827  0.2794 -0.0037 -0.0789
    5BIM    C2130290   8.248   5.636   2.788  0.1175  0.0111  0.0515
    5BIM    C2230291   8.120   5.642   2.714  0.1347 -0.0747  0.0136
    5BIM    C2330292   8.060   5.755   2.658  0.0174 -0.0938  0.1000
    5BIM    C2430293   7.939   5.736   2.593  0.0622 -0.1798  0.0404
    5BIM    C2530294   7.880   5.609   2.585  0.2197 -0.2443 -0.1008
    5BIM    C2630295   7.940   5.497   2.641  0.3376 -0.2257 -0.1877
    5BIM    C2730296   8.062   5.513   2.707  0.2944 -0.1390 -0.1294
    5BIM    C2830297   8.150   5.416   2.776  0.3896 -0.0980 -0.1918
    5BIM    C2930298   8.128   5.281   2.790  0.5491 -0.1394 -0.3283
    5BIM    C3030299   8.012   5.215   2.737  0.6466 -0.2309 -0.4306
    5BIM    C3130300   8.218   5.194   2.858  0.6309 -0.0944 -0.3794
    1BTD     S230301   4.221   6.875   7.908  0.1307  0.0351  0.0251
    1BTD     N130302   4.085   6.767   7.862  0.1118 -0.0043  0.1718
    1BTD     N230303   4.120   7.024   7.911  0.1620  0.0615 -0.2022
    1BTD     N330304   3.670   7.133   7.834  0.1917  0.0449 -0.4008
    1BTD     N430305   3.626   6.816   7.773  0.1297 -0.0364  0.0601
    1BTD     C530306   3.846   6.796   7.816  0.1220 -0.0199  0.1079
    1BTD     C630307   3.977   6.844   7.852  0.1289  0.0041  0.0499
    1BTD     C730308   3.997   6.988   7.879  0.1571  0.0409 -0.1593
    1BTD     C830309   3.885   7.077   7.870  0.1768  0.0519 -0.3003
    1BTD    C1530310   3.758   7.026   7.835  0.1691  0.0275 -0.2370
    1BTD    C1630311   3.739   6.888   7.808  0.1420 -0.0081 -0.0353
    1BTD    C4330312   3.520   6.864   7.685 -0.1885  0.1447  0.0567
    1BTD    C4430313   3.385   6.810   7.676  0.2878  0.4023  0.5140
    1BTD    C4530314   3.318   6.853   7.541  0.4299 -0.7034  0.5899
    1BTD    C4630315   3.370   6.796   7.410  0.3452  0.7445 -0.2909
    1BTD    C4730316   3.319   6.824   7.812  0.1522  0.2133 -0.1758
    1BTD    C4830317   3.190   6.752   7.832  0.8979 -0.0214  0.3869
    1BTD    C4930318   3.135   6.783   7.969  0.1134 -0.6941 -0.1820
    1BTD    C5030319   3.022   6.684   7.998 -0.2111 -0.5205  0.0501
    1BTD    C7530320   3.521   7.126   7.859 -0.3666  0.6918  0.4418
    1BTD    C7630321   3.429   7.214   7.774  0.4249  0.4893  0.2864
    1BTD    C7730322   3.484   7.229   7.625  1.2162 -0.8760  0.1122
    1BTD    C7830323   3.409   7.330   7.528  0.0178  0.3518  0.6001
    1BTD    C7930324   3.281   7.212   7.810 -0.1070 -0.0168  0.6045
    1BTD    C8030325   3.238   7.229   7.954  0.3304 -0.0178 -0.1582
    1BTD    C8130326   3.270   7.364   8.004  0.6008  0.3118 -0.3574
    1BTD    C8230327   3.230   7.401   8.142  0.2319  0.7917 -0.7423
    2TTP     S130328   3.850   6.498   7.798  0.0464  0.2450  0.0690
    2TTP     S530329   3.435   6.501   7.685  0.1584  0.2900 -0.3434
    2TTP     C130330   3.494   6.329   7.685  0.1681  0.2933 -0.3923
    2TTP     C230331   3.625   6.318   7.720  0.1342  0.2797 -0.2677
    2TTP     C330332   3.685   6.445   7.748  0.0991  0.2661 -0.1293
    2TTP     C430333   3.792   6.670   7.797  0.0367  0.2419  0.1178
    2TTP    C1730334   3.660   6.681   7.762  0.0706  0.2556 -0.0069
    2TTP    C1830335   3.601   6.554   7.735  0.1056  0.2689 -0.1452
    2TTP    C3230336   3.708   6.187   7.736 -0.6999 -0.5149 -0.0640
    2TTP    C3330337   3.791   6.147   7.617 -0.0767  0.5009  0.6654
    2TTP    C3430338   3.915   6.070   7.656 -0.1639  0.3319  0.1379
    2TTP    C3530339   4.014   6.030   7.549 -0.1531  0.0180  0.0129
    2TTP    C3630340   4.107   5.914   7.594  0.1087  0.4443 -0.2327
    2TTP    C3730341   4.195   5.850   7.493  0.2283  0.0470 -0.7078
    2TTP    C3830342   4.251   5.713   7.550  0.1890 -0.2906  0.6011
    2TTP    C3930343   4.358   5.644   7.467  0.0336  0.0367 -0.7807
    2TTP    C4030344   4.324   5.590   7.334 -0.2201  0.2439  0.7988
    2TTP    C4130345   4.447   5.516   7.275  0.4668  0.1253  0.6760
    2TTP    C4230346   4.427   5.455   7.134  0.3982  0.3959  0.3377
    3TTP     S130347   3.977   7.358   7.917 -0.1553 -0.1332  0.2608
    3TTP     S530348   3.575   7.498   7.860 -0.2311 -0.4754 -0.0582
    3TTP     C130349   3.681   7.641   7.900 -0.3602 -0.3680 -0.0974
    3TTP     C230350   3.811   7.606   7.919 -0.3443 -0.2559 -0.0012
    3TTP     C330351   3.832   7.465   7.904 -0.2298 -0.2511  0.1070
    3TTP     C430352   3.871   7.215   7.878 -0.0263 -0.2407  0.3000
    3TTP    C1730353   3.741   7.250   7.858 -0.0421 -0.3528  0.2039
    3TTP    C1830354   3.720   7.391   7.873 -0.1568 -0.3577  0.0957
    3TTP    C3230355   3.927   7.695   7.966 -0.1964  0.5710 -0.1492
    3TTP    C3330356   4.068   7.683   7.904 -0.3220 -0.7437 -0.0280
    3TTP    C3430357   4.168   7.780   7.965  0.5588 -0.2058  0.1349
    3TTP    C3530358   4.148   7.925   7.926 -0.0877 -0.3741  0.2400
    3TTP    C3630359   4.224   8.009   8.027 -0.2537 -0.7869 -0.1392
    3TTP    C3730360   4.190   8.161   8.018 -0.5156  0.1164 -0.2294
    3TTP    C3830361   4.046   8.204   8.044 -0.0379  0.2113 -0.5502
    3TTP    C3930362   4.029   8.356   8.043 -0.5383  0.2739 -0.1886
    3TTP    C4030363   3.890   8.404   8.007  0.4683 -0.4134  0.7184
    3TTP    C4130364   3.880   8.558   8.018 -0.2044  0.2354  0.7496
    3TTP    C4230365   3.740   8.616   8.017  0.0118  0.2527 -0.0886
    4BIM     F130366   2.802   6.229   7.254 -0.2941 -0.1129  0.2824
    4BIM     F230367   2.833   5.960   7.278  0.1371 -0.1196 -0.2979
    4BIM     O130368   3.236   6.407   7.524 -0.4050 -0.0074  0.3911
    4BIM     N530369   3.187   5.699   7.506  0.6779 -0.0538 -1.0546
    4BIM     N630370   3.520   5.893   7.713  0.5042  0.0300 -0.8528
    4BIM    C1930371   3.420   6.213   7.644 -0.0325  0.0237 -0.1247
    4BIM    C2030372   3.309   6.179   7.575 -0.0214 -0.0024 -0.1293
    4BIM    C2130373   3.220   6.284   7.516 -0.2201 -0.0170  0.1448
    4BIM    C2230374   3.110   6.213   7.448 -0.1513 -0.0452  0.0629
    4BIM    C2330375   3.003   6.269   7.379 -0.2789 -0.0663  0.2438
    4BIM    C2430376   2.911   6.181   7.323 -0.1776 -0.0911  0.1164
    4BIM    C2530377   2.927   6.042   7.336  0.0446 -0.0944 -0.1827
    4BIM    C2630378   3.034   5.986   7.404  0.1729 -0.0733 -0.3642
    4BIM    C2730379   3.128   6.073   7.462  0.0732 -0.0480 -0.2394
    4BIM    C2830380   3.251   6.047   7.540  0.1618 -0.0222 -0.3694
    4BIM    C2930381   3.301   5.923   7.574  0.3733 -0.0170 -0.6573
    4BIM    C3030382   3.238   5.801   7.536  0.5400 -0.0372 -0.8749
    4BIM    C3130383   3.421   5.907   7.650  0.4442  0.0089 -0.7629
    5BIM     F130384   2.960   7.956   8.110  0.0345 -0.1172 -0.1104
    5BIM     F230385   3.059   8.205   8.060  0.0164 -0.0386  0.2418
    5BIM     O130386   3.395   7.650   8.006  0.1588  0.0893 -0.1998
    5BIM     N530387   3.511   8.344   7.915  0.0789  0.2217  0.6841
    5BIM     N630388   3.831   8.056   7.845  0.1796  0.3672  0.5437
    5BIM    C1930389   3.644   7.779   7.922  0.1857  0.2378  0.1049
    5BIM    C2030390   3.531   7.847   7.950  0.1551  0.1829  0.1137
    5BIM    C2130391   3.407   7.773   7.993  0.1431  0.1079 -0.0488
    5BIM    C2230392   3.303   7.876   8.015  0.1092  0.0615  0.0072
    5BIM    C2330393   3.171   7.856   8.056  0.0879 -0.0124 -0.0975
    5BIM    C2430394   3.091   7.968   8.070  0.0568 -0.0444 -0.0152
    5BIM    C2530395   3.143   8.096   8.044  0.0475 -0.0038  0.1667
    5BIM    C2630396   3.274   8.117   8.004  0.0685  0.0699  0.2713
    5BIM    C2730397   3.356   8.004   7.989  0.1001  0.1035  0.1903
    5BIM    C2830398   3.498   7.991   7.948  0.1280  0.1795  0.2632
    5BIM    C2930399   3.583   8.094   7.915  0.1286  0.2360  0.4361
    5BIM    C3030400   3.543   8.231   7.915  0.1012  0.2279  0.5720
    5BIM    C3130401   3.719   8.072   7.876  0.1568  0.3080  0.4941
    1BTD     S230402   0.396   0.464   3.701 -0.1665 -0.0965 -0.2523
    1BTD     N130403   0.408   0.641   3.673 -0.0264 -0.1044 -0.2434
    1BTD     N230404   0.228   0.450   3.639 -0.1661  0.0342 -0.2818
    1BTD     N330405  -0.093   0.743   3.461  0.0875  0.2865 -0.3258
    1BTD     N430406   0.129   0.978   3.503  0.2598  0.1157 -0.2785
    1BTD     C530407   0.260   0.814   3.583  0.1210  0.0126 -0.2624
    1BTD     C630408   0.292   0.679   3.621  0.0115 -0.0138 -0.2619
    1BTD     C730409   0.192   0.572   3.602 -0.0667  0.0637 -0.2834
    1BTD     C830410   0.063   0.606   3.546 -0.0316  0.1639 -0.3042
    1BTD    C1530411   0.036   0.740   3.511  0.0764  0.1863 -0.3038
    1BTD    C1630412   0.133   0.842   3.529  0.1518  0.1116 -0.2831
    1BTD    C4330413   0.061   1.058   3.399  0.0448 -0.0527  0.1906
    1BTD    C4430414   0.132   1.072   3.264 -0.2307  0.1577  0.2655
    1BTD    C4530415   0.186   0.932   3.208  0.5698 -0.8698 -0.4617
    1BTD    C4630416   0.275   0.908   3.092  0.2578 -0.5347 -0.2860
    1BTD    C4730417   0.081   1.159   3.153 -0.2152  0.5336 -0.2435
    1BTD    C4830418   0.089   1.308   3.174  0.3563 -0.0582  0.2592
    1BTD    C4930419   0.012   1.384   3.059 -0.4601 -0.0354 -0.3826
    1BTD    C5030420   0.017   1.532   3.088 -0.1525 -0.7092 -0.0712
    1BTD    C7530421  -0.185   0.857   3.448 -0.3712 -0.1496  0.2299
    1BTD    C7630422  -0.275   0.892   3.567 -0.0500  0.3570 -0.4214
    1BTD    C7730423  -0.380   1.001   3.542  0.6796  0.5159  0.3842
    1BTD    C7830424  -0.488   0.993   3.431 -0.2328  0.6659  0.5420
    1BTD    C7930425  -0.200   0.915   3.702  0.5553  0.5234 -0.0332
    1BTD    C8030426  -0.280   0.924   3.827  0.2806  0.3979  0.6280
    1BTD    C8130427  -0.204   0.967   3.948 -0.2500 -0.6158 -0.2943
    1BTD    C8230428  -0.299   0.984   4.062 -0.3651  0.1476 -0.0069
    2TTP     S130429   0.474   1.006   3.680 -0.2056  0.2644 -0.1440
    2TTP     S530430   0.241   1.336   3.532 -0.4835  0.0898 -0.0974
    2TTP     C130431   0.390   1.402   3.612 -0.5308  0.2036 -0.1024
    2TTP     C230432   0.471   1.304   3.662 -0.4478  0.2643 -0.1169
    2TTP     C330433   0.418   1.173   3.640 -0.3438  0.2230 -0.1249
    2TTP     C430434   0.324   0.940   3.600 -0.1584  0.1505 -0.1391
    2TTP    C1730435   0.243   1.038   3.550 -0.2414  0.0899 -0.1244
    2TTP    C1830436   0.297   1.169   3.572 -0.3453  0.1312 -0.1165
    2TTP    C3230437   0.608   1.327   3.732  0.5429 -0.2326 -0.2301
    2TTP    C3330438   0.608   1.324   3.881  0.1066 -0.3598  0.2179
    2TTP    C3430439   0.753   1.351   3.931  0.3351  0.6191  0.0810
    2TTP    C3530440   0.764   1.370   4.084 -0.1368  0.2862  0.3626
    2TTP    C3630441   0.730   1.501   4.151  0.3165 -0.3977 -0.8830
    2TTP    C3730442   0.806   1.500   4.286 -0.7201  0.2230 -0.1102
    2TTP    C3830443   0.748   1.419   4.406 -0.0728 -0.0730 -0.3194
    2TTP    C3930444   0.618   1.452   4.484 -0.3471  0.1438  0.0281
    2TTP    C4030445   0.612   1.593   4.542 -0.2453  0.4938  0.1206
    2TTP    C4130446   0.475   1.636   4.596  0.3918  0.4421  0.6128
    2TTP    C4230447   0.511   1.763   4.669  0.4078 -0.6425  0.2105
    3TTP     S130448  -0.101   0.349   3.508 -0.0619  0.2255  0.3085
    3TTP     S530449  -0.407   0.597   3.336 -0.0951 -0.1720 -0.2081
    3TTP     C130450  -0.461   0.424   3.327  0.0136 -0.2158 -0.0246
    3TTP     C230451  -0.370   0.337   3.379  0.0300 -0.0956  0.1457
    3TTP     C330452  -0.254   0.404   3.429 -0.0420  0.0354  0.1375
    3TTP     C430453  -0.047   0.523   3.517 -0.1705  0.2693  0.1251
    3TTP    C1730454  -0.139   0.609   3.464 -0.1869  0.1491 -0.0453
    3TTP    C1830455  -0.255   0.542   3.415 -0.1144  0.0181 -0.0371
    3TTP    C3230456  -0.385   0.182   3.388 -0.3974  0.0074 -0.2328
    3TTP    C3330457  -0.410   0.129   3.525 -0.0620  0.1554 -1.1182
    3TTP    C3430458  -0.431  -0.026   3.525 -0.1055 -0.3421  0.2291
    3TTP    C3530459  -0.469  -0.088   3.657 -0.1183  0.0352 -0.4619
    3TTP    C3630460  -0.394  -0.085   3.791  0.1140  0.4672  0.3533
    3TTP    C3730461  -0.245  -0.117   3.765  0.3104 -0.5757  0.1429
    3TTP    C3830462  -0.161  -0.000   3.828 -0.0994  0.5519 -0.6740
    3TTP    C3930463  -0.021  -0.015   3.770 -0.3188 -0.9423 -0.2561
    3TTP    C4030464   0.081   0.093   3.803 -0.1784  0.2438  0.2128
    3TTP    C4130465   0.218   0.043   3.753 -0.2183 -0.4620  0.1517
    3TTP    C4230466   0.345   0.123   3.793  0.7400 -0.1065 -0.3715
    4BIM     F130467   0.208   2.074   3.177  0.3576 -0.0022 -0.2536
    4BIM     F230468   0.357   2.220   3.352 -0.2463  0.1203  0.1661
    4BIM     O130469   0.264   1.577   3.385  0.6546 -0.0440 -0.4334
    4BIM     N530470   0.612   2.076   3.751 -0.9027  0.2667  0.6413
    4BIM     N630471   0.626   1.658   3.878 -0.5488  0.2093  0.4162
    4BIM    C1930472   0.427   1.540   3.625  0.1832  0.0582 -0.0962
    4BIM    C2030473   0.407   1.660   3.566  0.1321  0.0640 -0.0675
    4BIM    C2130474   0.322   1.671   3.443  0.3861  0.0092 -0.2486
    4BIM    C2230475   0.321   1.813   3.405  0.2530  0.0314 -0.1630
    4BIM    C2330476   0.256   1.872   3.297  0.4002 -0.0025 -0.2713
    4BIM    C2430477   0.270   2.009   3.282  0.2265  0.0286 -0.1565
    4BIM    C2530478   0.347   2.084   3.372 -0.0845  0.0918  0.0597
    4BIM    C2630479   0.412   2.026   3.480 -0.2328  0.1259  0.1687
    4BIM    C2730480   0.399   1.887   3.497 -0.0608  0.0952  0.0553
    4BIM    C2830481   0.455   1.796   3.599 -0.1475  0.1177  0.1225
    4BIM    C2930482   0.536   1.831   3.705 -0.4324  0.1770  0.3227
    4BIM    C3030483   0.577   1.966   3.730 -0.6900  0.2261  0.4970
    4BIM    C3130484   0.585   1.736   3.799 -0.4948  0.1944  0.3730
    5BIM     F130485  -1.015   0.759   2.812 -0.1271  0.0990  0.0896
    5BIM     F230486  -1.181   0.550   2.866 -0.0403  0.0058 -0.0015
    5BIM     O130487  -0.582   0.625   3.109 -0.0768  0.1571  0.0430
    5BIM     N530488  -1.111   0.155   3.156  0.1209 -0.0866 -0.1659
    5BIM     N630489  -0.740   0.093   3.377  0.1421 -0.0225 -0.1839
    5BIM    C1930490  -0.587   0.378   3.266  0.0242  0.0887 -0.0606
    5BIM    C2030491  -0.690   0.420   3.189  0.0081  0.0777 -0.0453
    5BIM    C2130492  -0.680   0.548   3.111 -0.0443  0.1148  0.0086
    5BIM    C2230493  -0.807   0.563   3.039 -0.0494  0.0911  0.0123
    5BIM    C2330494  -0.845   0.667   2.954 -0.0911  0.1111  0.0549
    5BIM    C2430495  -0.971   0.660   2.897 -0.0868  0.0815  0.0491
    5BIM    C2530496  -1.057   0.552   2.925 -0.0423  0.0336  0.0021
    5BIM    C2630497  -1.020   0.449   3.010 -0.0002  0.0134 -0.0405
    5BIM    C2730498  -0.892   0.454   3.069 -0.0038  0.0428 -0.0355
    5BIM    C2830499  -0.823   0.362   3.162  0.0331  0.0326 -0.0727
    5BIM    C2930500  -0.874   0.245   3.213  0.0815 -0.0103 -0.1230
    5BIM    C3030501  -1.004   0.196   3.181  0.1032 -0.0521 -0.1464
    5BIM    C3130502  -0.800   0.162   3.303  0.1147 -0.0168 -0.1563
    1BTD     S230503   2.225   5.214   6.960 -0.1316  0.1368  0.0279
    1BTD     N130504   2.162   5.369   6.894 -0.0695 -0.0827 -0.5581
    1BTD     N230505   2.064   5.135   6.969 -0.1826  0.2888  0.4796
    1BTD     N330506   1.621   5.253   6.869 -0.1746  0.2027  0.3413
    1BTD     N430507   1.741   5.541   6.777 -0.0353 -0.2553 -0.9376
    1BTD     C530508   1.941   5.455   6.834 -0.0533 -0.1673 -0.7409
    1BTD     C630509   2.031   5.354   6.883 -0.0890 -0.0339 -0.3955
    1BTD     C730510   1.976   5.223   6.925 -0.1523  0.1740  0.1853
    1BTD     C830511   1.834   5.200   6.916 -0.1767  0.2383  0.3918
    1BTD    C1530512   1.750   5.302   6.867 -0.1401  0.1023  0.0390
    1BTD    C1630513   1.803   5.428   6.827 -0.0791 -0.0980 -0.5210
    1BTD    C4330514   1.620   5.537   6.683 -0.8676 -0.2889 -0.4545
    1BTD    C4430515   1.521   5.652   6.665 -0.5542  0.2573  1.1060
    1BTD    C4530516   1.433   5.615   6.543  0.4664 -0.2030  0.2259
    1BTD    C4630517   1.495   5.608   6.401 -0.1514 -0.0986 -0.6382
    1BTD    C4730518   1.459   5.713   6.785  0.3853 -0.1412  0.4163
    1BTD    C4830519   1.379   5.834   6.747  0.7765 -0.3087  0.4577
    1BTD    C4930520   1.268   5.872   6.840 -0.2545 -0.9737  0.3548
    1BTD    C5030521   1.157   5.929   6.755 -0.3888  0.0853 -0.0182
    1BTD    C7530522   1.495   5.336   6.898 -0.2015 -0.3853  0.5015
    1BTD    C7630523   1.344   5.307   6.880 -0.0234  0.3691 -0.0325
    1BTD    C7730524   1.242   5.407   6.936  0.7063 -0.1036  0.5605
    1BTD    C7830525   1.242   5.440   7.082  0.0196  0.2714 -0.4895
    1BTD    C7930526   1.310   5.273   6.730 -0.2929 -0.0422 -0.1550
    1BTD    C8030527   1.168   5.218   6.701  0.4526  0.0373 -0.2886
    1BTD    C8130528   1.165   5.183   6.553 -0.1742  0.2956 -0.8153
    1BTD    C8230529   1.034   5.126   6.521  0.3447 -0.0151  0.0755
    2TTP     S130530   2.095   5.716   6.771  0.0003 -0.0835  0.1738
    2TTP     S530531   1.719   5.893   6.662  0.0122 -0.0861  0.1290
    2TTP     C130532   1.850   6.017   6.638  0.0013 -0.0531  0.2398
    2TTP     C230533   1.974   5.969   6.670 -0.0030 -0.0503  0.2604
    2TTP     C330534   1.970   5.834   6.715  0.0021 -0.0743  0.1889
    2TTP     C430535   1.964   5.593   6.795  0.0111 -0.1163  0.0629
    2TTP    C1730536   1.840   5.640   6.763  0.0154 -0.1192  0.0424
    2TTP    C1830537   1.844   5.775   6.718  0.0104 -0.0954  0.1136
    2TTP    C3230538   2.108   6.031   6.653  0.4396 -0.2126  0.6936
    2TTP    C3330539   2.183   6.088   6.781  0.1258  0.2376 -0.1143
    2TTP    C3430540   2.122   6.207   6.852  0.3317  0.6992 -0.3052
    2TTP    C3530541   2.087   6.330   6.773  0.0213 -0.6183  0.0160
    2TTP    C3630542   2.020   6.436   6.855 -0.3207 -0.0780 -0.3836
    2TTP    C3730543   1.946   6.530   6.764  0.3562  0.0896  0.2550
    2TTP    C3830544   1.859   6.636   6.833  0.5176 -0.4362 -0.6861
    2TTP    C3930545   1.781   6.601   6.965 -0.3571 -0.3766 -0.2074
    2TTP    C4030546   1.674   6.494   6.959  0.3683 -0.0379 -0.3385
    2TTP    C4130547   1.577   6.467   7.080  0.1496 -1.1988  0.1203
    2TTP    C4230548   1.496   6.578   7.142  0.1284 -0.1306  0.0356
    3TTP     S130549   1.773   4.920   7.014  0.1615 -0.0678 -0.0182
    3TTP     S530550   1.363   4.980   6.897  0.1140  0.0230  0.1941
    3TTP     C130551   1.381   4.811   6.962  0.1012  0.0332  0.2239
    3TTP     C230552   1.508   4.783   7.002  0.1152  0.0057  0.1599
    3TTP     C330553   1.597   4.893   6.983  0.1364 -0.0243  0.0855
    3TTP     C430554   1.755   5.089   6.949  0.1743 -0.0778 -0.0479
    3TTP    C1730555   1.628   5.118   6.909  0.1604 -0.0505  0.0161
    3TTP    C1830556   1.540   5.007   6.928  0.1391 -0.0205  0.0907
    3TTP    C3230557   1.567   4.653   7.063  0.3148  0.5413 -0.3811
    3TTP    C3330558   1.640   4.676   7.192 -0.5846  1.0077 -0.1009
    3TTP    C3430559   1.691   4.547   7.254  0.3674  0.4606 -0.3193
    3TTP    C3530560   1.786   4.578   7.368  0.3982  0.4055 -0.1247
    3TTP    C3630561   1.862   4.457   7.417 -0.0241  0.0295  0.3007
    3TTP    C3730562   1.957   4.506   7.526  0.5316  0.0020  1.1451
    3TTP    C3830563   2.033   4.390   7.592 -0.1555 -0.1859  0.5653
    3TTP    C3930564   2.105   4.428   7.726 -0.2902 -0.4481  0.3146
    3TTP    C4030565   2.195   4.551   7.721 -0.0578 -0.2982 -0.0522
    3TTP    C4130566   2.321   4.505   7.641  0.0906  0.2496 -0.2630
    3TTP    C4230567   2.428   4.609   7.629 -0.1057  0.0501  0.1368
    4BIM     F130568   1.232   6.556   6.587 -0.1021 -0.0988 -0.2720
    4BIM     F230569   1.386   6.707   6.421 -0.0647  0.0002 -0.1482
    4BIM     O130570   1.573   6.151   6.702 -0.0455 -0.0451 -0.2506
    4BIM     N530571   1.849   6.635   6.263  0.0296  0.1807  0.0454
    4BIM     N630572   2.084   6.288   6.386  0.0663  0.2028  0.0372
    4BIM    C1930573   1.840   6.151   6.583  0.0105  0.0685 -0.1247
    4BIM    C2030574   1.749   6.247   6.561 -0.0053  0.0513 -0.1348
    4BIM    C2130575   1.613   6.240   6.626 -0.0339 -0.0080 -0.2011
    4BIM    C2230576   1.539   6.360   6.581 -0.0451 -0.0126 -0.1950
    4BIM    C2330577   1.409   6.396   6.614 -0.0709 -0.0596 -0.2435
    4BIM    C2430578   1.360   6.514   6.559 -0.0770 -0.0540 -0.2263
    4BIM    C2530579   1.439   6.591   6.473 -0.0576 -0.0029 -0.1625
    4BIM    C2630580   1.569   6.555   6.439 -0.0318  0.0440 -0.1138
    4BIM    C2730581   1.620   6.437   6.494 -0.0253  0.0392 -0.1303
    4BIM    C2830582   1.752   6.371   6.479 -0.0001  0.0805 -0.0906
    4BIM    C2930583   1.858   6.415   6.403  0.0236  0.1353 -0.0256
    4BIM    C3030584   1.853   6.536   6.326  0.0268  0.1601  0.0131
    4BIM    C3130585   1.982   6.345   6.394  0.0470  0.1720  0.0086
    5BIM     F130586   0.588   4.782   6.756 -0.1423 -0.1705 -0.2261
    5BIM     F230587   0.551   4.584   6.939 -0.2352  0.2576  0.2205
    5BIM     O130588   1.119   4.871   6.804 -0.1025 -0.3002 -0.4190
    5BIM     N530589   0.879   4.364   7.238 -0.3405  0.7806  0.7252
    5BIM     N630590   1.301   4.474   7.239 -0.2907  0.5928  0.4842
    5BIM    C1930591   1.274   4.714   6.997 -0.1772  0.0627 -0.0609
    5BIM    C2030592   1.141   4.699   6.978 -0.1836  0.0786 -0.0299
    5BIM    C2130593   1.069   4.784   6.877 -0.1434 -0.1152 -0.2222
    5BIM    C2230594   0.928   4.742   6.881 -0.1624 -0.0420 -0.1308
    5BIM    C2330595   0.822   4.792   6.805 -0.1384 -0.1643 -0.2456
    5BIM    C2430596   0.696   4.737   6.827 -0.1638 -0.0591 -0.1232
    5BIM    C2530597   0.678   4.635   6.922 -0.2117  0.1614  0.1070
    5BIM    C2630598   0.783   4.585   6.998 -0.2358  0.2844  0.2226
    5BIM    C2730599   0.911   4.640   6.977 -0.2107  0.1810  0.1016
    5BIM    C2830600   1.041   4.609   7.040 -0.2256  0.2637  0.1726
    5BIM    C2930601   1.065   4.515   7.138 -0.2699  0.4721  0.3855
    5BIM    C3030602   0.963   4.432   7.193 -0.3086  0.6410  0.5715
    5BIM    C3130603   1.195   4.493   7.193 -0.2812  0.5374  0.4387
    1BTD     S230604   7.925   9.219   6.358  0.2157 -0.0631 -0.2799
    1BTD     N130605   8.073   9.319   6.381  0.3231 -0.1583 -0.5417
    1BTD     N230606   8.001   9.067   6.417  0.0632  0.0017  0.0855
    1BTD     N330607   8.422   8.939   6.580 -0.0536 -0.0386  0.3568
    1BTD     N430608   8.510   9.249   6.536  0.2663 -0.2356 -0.4159
    1BTD     C530609   8.300   9.279   6.462  0.2897 -0.1965 -0.4667
    1BTD     C630610   8.166   9.238   6.429  0.2437 -0.1380 -0.3531
    1BTD     C730611   8.126   9.097   6.450  0.0982 -0.0486 -0.0021
    1BTD     C830612   8.222   9.004   6.502  0.0057 -0.0217  0.2178
    1BTD    C1530613   8.352   9.048   6.533  0.0555 -0.0807  0.0959
    1BTD    C1630614   8.391   9.184   6.513  0.1952 -0.1670 -0.2425
    1BTD    C4330615   8.646   9.202   6.511  0.0010 -0.5782  0.9845
    1BTD    C4430616   8.784   9.259   6.562 -0.1900 -0.7009  0.6372
    1BTD    C4530617   8.910   9.209   6.482  0.2338  0.1030  0.1502
    1BTD    C4630618   8.896   9.188   6.334 -0.2127  0.3200  0.2461
    1BTD    C4730619   8.797   9.250   6.717  0.3737 -0.1772 -0.0967
    1BTD    C4830620   8.918   9.316   6.789 -0.2056 -0.3444 -0.0796
    1BTD    C4930621   8.933   9.297   6.939  0.2594 -0.5981  0.2979
    1BTD    C5030622   9.015   9.173   6.973 -0.1689 -0.1995 -0.3188
    1BTD    C7530623   8.544   8.929   6.661 -0.9639 -0.4856 -0.0280
    1BTD    C7630624   8.516   8.927   6.809  0.3454  0.3474  0.0910
    1BTD    C7730625   8.432   9.046   6.860 -0.1088  0.0304  0.2127
    1BTD    C7830626   8.499   9.178   6.893  0.6571 -0.2458  0.0684
    1BTD    C7930627   8.630   8.888   6.905  0.5831  0.1616 -0.2625
    1BTD    C8030628   8.707   8.772   6.866 -0.3117  0.2197  0.4126
    1BTD    C8130629   8.830   8.731   6.954 -0.2838 -0.1061  0.0259
    1BTD    C8230630   8.897   8.603   6.906 -0.3828 -0.1015  0.5474
    2TTP     S130631   8.319   9.574   6.434  0.0725 -0.3018 -0.3058
    2TTP     S530632   8.697   9.571   6.639 -0.0408 -0.0093 -0.0911
    2TTP     C130633   8.649   9.743   6.609  0.0216 -0.0536 -0.4497
    2TTP     C230634   8.530   9.754   6.544  0.0603 -0.1466 -0.5370
    2TTP     C330635   8.472   9.627   6.516  0.0420 -0.1861 -0.3241
    2TTP     C430636   8.367   9.401   6.465  0.0098 -0.2575  0.0528
    2TTP    C1730637   8.487   9.390   6.530 -0.0287 -0.1646  0.1401
    2TTP    C1830638   8.545   9.517   6.558 -0.0105 -0.1249 -0.0728
    2TTP    C3230639   8.448   9.873   6.506 -0.1755  0.1344 -0.4603
    2TTP    C3330640   8.359   9.933   6.615 -0.3176 -0.0238 -0.0932
    2TTP    C3430641   8.314  10.072   6.589 -0.2075 -1.1131  0.4687
    2TTP    C3530642   8.411  10.183   6.633 -0.2457 -1.2194 -0.0887
    2TTP    C3630643   8.404  10.320   6.563 -0.2900 -0.1906 -0.2160
    2TTP    C3730644   8.477  10.418   6.648  0.4318 -0.2330 -1.4387
    2TTP    C3830645   8.459  10.555   6.580 -0.1790  0.9026  0.4352
    2TTP    C3930646   8.558  10.656   6.637  0.1106 -0.1802  0.4867
    2TTP    C4030647   8.592  10.764   6.542  0.4644 -0.0429  0.0216
    2TTP    C4130648   8.715  10.845   6.585  0.3713  0.7174  0.7434
    2TTP    C4230649   8.746  10.951   6.487 -0.4598  0.0675  0.0846
    3TTP     S130650   8.089   8.736   6.554  0.0099  0.1285  0.0837
    3TTP     S530651   8.462   8.571   6.689  0.0875  0.0613 -0.2126
    3TTP     C130652   8.335   8.441   6.699  0.0843  0.0683 -0.1636
    3TTP     C230653   8.212   8.485   6.658  0.0601  0.0899 -0.0693
    3TTP     C330654   8.214   8.622   6.617  0.0436  0.1009 -0.0321
    3TTP     C430655   8.217   8.865   6.543  0.0136  0.1216  0.0347
    3TTP    C1730656   8.339   8.822   6.584  0.0378  0.1003 -0.0595
    3TTP    C1830657   8.337   8.685   6.626  0.0544  0.0887 -0.0967
    3TTP    C3230658   8.084   8.402   6.650  0.0808 -0.9305 -0.1645
    3TTP    C3330659   7.995   8.403   6.525  0.1419 -0.5655 -0.4199
    3TTP    C3430660   7.871   8.309   6.552 -0.3289 -0.1798  0.5569
    3TTP    C3530661   7.768   8.295   6.442  0.2436 -0.4165  0.2624
    3TTP    C3630662   7.704   8.434   6.422 -0.1328  0.5965 -0.1828
    3TTP    C3730663   7.597   8.418   6.320  0.3508 -0.0648  0.0285
    3TTP    C3830664   7.514   8.547   6.300  0.0005 -0.3222  0.4586
    3TTP    C3930665   7.416   8.531   6.178 -0.4149 -0.0267 -0.3082
    3TTP    C4030666   7.350   8.663   6.134  0.7737  0.0906  0.1753
    3TTP    C4130667   7.242   8.653   6.018  0.0143  0.7195  0.1549
    3TTP    C4230668   7.156   8.779   6.010  0.1386 -0.4085 -0.2332
    4BIM     F130669   9.262   9.845   7.146 -0.2108 -0.0746 -0.0579
    4BIM     F230670   9.309  10.090   7.037 -0.2534 -0.0630 -0.0499
    4BIM     O130671   8.833   9.686   6.856 -0.2463 -0.0961  0.0064
    4BIM     N530672   9.071  10.329   6.675 -0.3397 -0.0616  0.0075
    4BIM     N630673   8.727  10.155   6.471 -0.3588 -0.0807  0.0561
    4BIM    C1930674   8.726   9.864   6.650 -0.2995 -0.0926  0.0368
    4BIM    C2030675   8.832   9.894   6.727 -0.2890 -0.0877  0.0205
    4BIM    C2130676   8.881   9.797   6.831 -0.2613 -0.0898  0.0052
    4BIM    C2230677   8.997   9.861   6.896 -0.2561 -0.0832 -0.0106
    4BIM    C2330678   9.075   9.810   6.999 -0.2334 -0.0825 -0.0277
    4BIM    C2430679   9.180   9.889   7.044 -0.2332 -0.0756 -0.0405
    4BIM    C2530680   9.204  10.015   6.988 -0.2547 -0.0697 -0.0365
    4BIM    C2630681   9.126  10.067   6.886 -0.2778 -0.0703 -0.0194
    4BIM    C2730682   9.020   9.989   6.838 -0.2785 -0.0772 -0.0060
    4BIM    C2830683   8.919  10.014   6.732 -0.2995 -0.0797  0.0131
    4BIM    C2930684   8.909  10.126   6.654 -0.3242 -0.0755  0.0223
    4BIM    C3030685   8.999  10.237   6.666 -0.3326 -0.0679  0.0143
    4BIM    C3130686   8.809  10.142   6.553 -0.3431 -0.0784  0.0409
    5BIM     F130687   8.910   8.126   7.190  0.0317 -0.1097 -0.0917
    5BIM     F230688   8.787   7.884   7.171  0.0138 -0.1029 -0.0653
    5BIM     O130689   8.581   8.433   6.890  0.0262 -0.1078 -0.0831
    5BIM     N530690   8.376   7.755   6.928 -0.0162 -0.0913 -0.0212
    5BIM     N630691   8.143   8.043   6.697 -0.0169 -0.0911 -0.0198
    5BIM    C1930692   8.346   8.311   6.764  0.0070 -0.1001 -0.0547
    5BIM    C2030693   8.434   8.243   6.841  0.0091 -0.1011 -0.0581
    5BIM    C2130694   8.552   8.313   6.902  0.0191 -0.1049 -0.0726
    5BIM    C2230695   8.626   8.211   6.978  0.0188 -0.1049 -0.0726
    5BIM    C2330696   8.743   8.228   7.052  0.0265 -0.1078 -0.0839
    5BIM    C2430697   8.795   8.116   7.116  0.0246 -0.1071 -0.0810
    5BIM    C2530698   8.732   7.992   7.105  0.0152 -0.1034 -0.0675
    5BIM    C2630699   8.615   7.974   7.032  0.0079 -0.1004 -0.0561
    5BIM    C2730700   8.561   8.086   6.967  0.0093 -0.1011 -0.0588
    5BIM    C2830701   8.440   8.100   6.882  0.0031 -0.0987 -0.0491
    5BIM    C2930702   8.351   8.001   6.848 -0.0067 -0.0949 -0.0350
    5BIM    C3030703   8.365   7.866   6.892 -0.0119 -0.0930 -0.0275
    5BIM    C3130704   8.237   8.025   6.765 -0.0124 -0.0927 -0.0267
    1BTD     S230705   7.504   2.996   7.075  0.1118 -0.1792 -0.1196
    1BTD     N130706   7.392   3.129   7.029  0.1987 -0.1041 -0.1140
    1BTD     N230707   7.396   2.865   7.015 -0.0165 -0.1121 -0.0371
    1BTD     N330708   6.975   2.839   6.809 -0.1206  0.1605  0.1415
    1BTD     N430709   6.970   3.164   6.828  0.1444  0.1703  0.0467
    1BTD     C530710   7.172   3.143   6.924  0.1670  0.0390 -0.0288
    1BTD     C630711   7.286   3.072   6.974  0.1311 -0.0364 -0.0539
    1BTD     C730712   7.288   2.924   6.966  0.0108 -0.0408 -0.0108
    1BTD     C830713   7.176   2.855   6.908 -0.0677  0.0304  0.0552
    1BTD    C1530714   7.066   2.929   6.860 -0.0289  0.1028  0.0774
    1BTD    C1630715   7.064   3.072   6.867  0.0873  0.1071  0.0360
    1BTD    C4330716   6.877   3.153   6.710  0.0504  0.5723  0.3774
    1BTD    C4430717   6.742   3.228   6.689  0.5522 -0.0088  0.1824
    1BTD    C4530718   6.671   3.214   6.549 -0.3618  0.1118 -0.3863
    1BTD    C4630719   6.759   3.235   6.429 -0.3541 -0.7404  0.1089
    1BTD    C4730720   6.642   3.187   6.805  0.0830  0.4347  0.4345
    1BTD    C4830721   6.525   3.283   6.832  0.1919  1.2392  0.2752
    1BTD    C4930722   6.461   3.243   6.965  0.4111  0.7923 -0.0823
    1BTD    C5030723   6.330   3.318   6.990 -0.3440 -0.7865  0.2814
    1BTD    C7530724   6.830   2.866   6.795 -0.0698  0.2494 -0.6977
    1BTD    C7630725   6.744   2.782   6.698 -0.2801 -0.5078 -0.1837
    1BTD    C7730726   6.778   2.805   6.548  0.3138  0.0304 -0.0987
    1BTD    C7830727   6.759   2.696   6.439  0.3439  0.4013 -0.4192
    1BTD    C7930728   6.597   2.794   6.715  0.1543 -0.7500  0.3427
    1BTD    C8030729   6.524   2.750   6.845  0.3413  0.5946 -0.0044
    1BTD    C8130730   6.550   2.606   6.896  0.2641 -0.4699 -0.3710
    1BTD    C8230731   6.498   2.602   7.041 -0.3106 -0.2119 -0.2306
    2TTP     S130732   7.216   3.434   6.971 -0.0244 -0.2306  0.2197
    2TTP     S530733   6.821   3.508   6.817  0.2608  0.0179 -0.3964
    2TTP     C130734   6.895   3.667   6.866  0.1313 -0.0714  0.0969
    2TTP     C230735   7.021   3.653   6.917  0.0355 -0.1535  0.3163
    2TTP     C330736   7.064   3.517   6.918  0.0612 -0.1487  0.1025
    2TTP     C430737   7.141   3.275   6.922  0.1050 -0.1413 -0.2735
    2TTP    C1730738   7.015   3.289   6.871  0.2009 -0.0593 -0.4929
    2TTP    C1830739   6.973   3.425   6.870  0.1754 -0.0641 -0.2793
    2TTP    C3230740   7.113   3.757   6.975 -0.9167 -0.0379 -0.5448
    2TTP    C3330741   7.207   3.830   6.882  0.0332 -0.0071 -0.0996
    2TTP    C3430742   7.322   3.752   6.823 -0.2607  0.0123 -0.2707
    2TTP    C3530743   7.391   3.832   6.710 -0.4740 -0.1103 -0.1021
    2TTP    C3630744   7.427   3.748   6.591  0.4758  0.5302  1.1130
    2TTP    C3730745   7.316   3.658   6.518  0.4895 -0.2320 -0.4862
    2TTP    C3830746   7.181   3.721   6.494  0.3602 -0.0987 -0.3812
    2TTP    C3930747   7.063   3.629   6.482 -0.2718  0.2973  1.0287
    2TTP    C4030748   6.945   3.713   6.454 -0.0158 -0.1161 -0.3731
    2TTP    C4130749   6.829   3.632   6.408  0.3880  0.0058  0.3072
    2TTP    C4230750   6.700   3.706   6.452 -0.5296 -0.0620  0.0883
    3TTP     S130751   7.231   2.558   6.907  0.0781  0.1776  0.0071
    3TTP     S530752   6.848   2.483   6.725 -0.0978  0.3849  0.2892
    3TTP     C130753   6.933   2.323   6.751 -0.0358  0.3609 -0.0519
    3TTP     C230754   7.056   2.337   6.808  0.0222  0.2956 -0.1593
    3TTP     C330755   7.088   2.474   6.834  0.0196  0.2620  0.0242
    3TTP     C430756   7.146   2.717   6.881  0.0161  0.2016  0.3483
    3TTP    C1730757   7.023   2.703   6.823 -0.0419  0.2670  0.4555
    3TTP    C1830758   6.991   2.566   6.797 -0.0393  0.3006  0.2720
    3TTP    C3230759   7.166   2.229   6.819  0.2723  0.4672  0.1297
    3TTP    C3330760   7.174   2.164   6.955  0.2401  0.2168  0.1731
    3TTP    C3430761   7.297   2.069   6.967  0.3759 -0.1457  0.4396
    3TTP    C3530762   7.272   1.969   7.080 -0.3055  0.0213 -0.1065
    3TTP    C3630763   7.397   1.882   7.108 -0.1509 -0.7461 -0.1999
    3TTP    C3730764   7.377   1.813   7.243  0.0802 -0.3224  0.8715
    3TTP    C3830765   7.492   1.719   7.264 -0.1769  0.3685 -0.6191
    3TTP    C3930766   7.484   1.626   7.392  0.3650 -0.2671  0.2687
    3TTP    C4030767   7.610   1.538   7.390  0.4090  0.2261 -0.8196
    3TTP    C4130768   7.639   1.452   7.275 -0.1849  0.2938 -0.1953
    3TTP    C4230769   7.536   1.345   7.230  0.2368 -0.3353 -0.5433
    4BIM     F130770   6.100   3.850   6.849 -0.1743  0.0153  0.6769
    4BIM     F230771   6.164   4.094   6.746 -0.3426 -0.1338  0.2103
    4BIM     O130772   6.592   3.638   6.922 -0.0483  0.1554  0.2457
    4BIM     N530773   6.607   4.293   6.652 -0.4947 -0.2477 -0.7679
    4BIM     N630774   6.978   4.078   6.730 -0.3624 -0.1081 -1.0108
    4BIM    C1930775   6.828   3.795   6.851 -0.1644  0.0630 -0.3533
    4BIM    C2030776   6.702   3.839   6.836 -0.1894  0.0335 -0.2265
    4BIM    C2130777   6.586   3.752   6.875 -0.1260  0.0847  0.0823
    4BIM    C2230778   6.464   3.830   6.847 -0.1744  0.0345  0.1512
    4BIM    C2330779   6.331   3.791   6.866 -0.1429  0.0560  0.4117
    4BIM    C2430780   6.233   3.882   6.832 -0.2010 -0.0019  0.4255
    4BIM    C2530781   6.266   4.008   6.779 -0.2876 -0.0786  0.1847
    4BIM    C2630782   6.397   4.047   6.759 -0.3195 -0.1003 -0.0761
    4BIM    C2730783   6.499   3.956   6.794 -0.2617 -0.0425 -0.0941
    4BIM    C2830784   6.647   3.967   6.785 -0.2744 -0.0462 -0.3358
    4BIM    C2930785   6.718   4.075   6.739 -0.3504 -0.1111 -0.6083
    4BIM    C3030786   6.657   4.195   6.691 -0.4295 -0.1860 -0.6951
    4BIM    C3130787   6.861   4.076   6.734 -0.3563 -0.1092 -0.8283
    5BIM     F130788   6.275   2.057   6.337 -0.1268  0.1325  0.2490
    5BIM     F230789   6.365   1.802   6.369  0.0769  0.1415 -0.2275
    5BIM     O130790   6.661   2.336   6.595 -0.2124 -0.0225  0.5447
    5BIM     N530791   6.769   1.635   6.600  0.3086  0.0440 -0.7014
    5BIM     N630792   7.052   1.904   6.795  0.2006 -0.0790 -0.3744
    5BIM    C1930793   6.884   2.191   6.718 -0.0482 -0.0689  0.1946
    5BIM    C2030794   6.783   2.131   6.652 -0.0347 -0.0303  0.1389
    5BIM    C2130795   6.672   2.212   6.591 -0.1230 -0.0085  0.3288
    5BIM    C2230796   6.580   2.116   6.527 -0.0818  0.0327  0.2079
    5BIM    C2330797   6.462   2.144   6.458 -0.1346  0.0639  0.3102
    5BIM    C2430798   6.392   2.037   6.406 -0.0793  0.1002  0.1594
    5BIM    C2530799   6.439   1.906   6.423  0.0256  0.1048 -0.0858
    5BIM    C2630800   6.556   1.877   6.492  0.0788  0.0737 -0.1893
    5BIM    C2730801   6.628   1.984   6.545  0.0241  0.0367 -0.0395
    5BIM    C2830802   6.755   1.988   6.622  0.0573 -0.0018 -0.0917
    5BIM    C2930803   6.832   1.880   6.659  0.1545 -0.0095 -0.3117
    5BIM    C3030804   6.797   1.746   6.627  0.2388  0.0199 -0.5251
    5BIM    C3130805   6.953   1.894   6.734  0.1792 -0.0477 -0.3449
    1BTD     S230806   7.193   1.001   0.774  0.2802 -0.1416 -0.0522
    1BTD     N130807   7.231   0.825   0.768  0.2283 -0.1539 -0.0180
    1BTD     N230808   7.049   0.988   0.667  0.2569 -0.1251 -0.0225
    1BTD     N330809   6.823   0.646   0.439  0.1154 -0.1136  0.0996
    1BTD     N430810   7.047   0.444   0.563  0.0803 -0.1490  0.1053
    1BTD     C530811   7.132   0.629   0.659  0.1515 -0.1509  0.0463
    1BTD     C630812   7.139   0.769   0.690  0.1976 -0.1455  0.0122
    1BTD     C730813   7.037   0.860   0.634  0.2137 -0.1294  0.0097
    1BTD     C830814   6.934   0.807   0.549  0.1826 -0.1195  0.0413
    1BTD    C1530815   6.931   0.669   0.521  0.1376 -0.1253  0.0741
    1BTD    C1630816   7.029   0.581   0.576  0.1222 -0.1409  0.0766
    1BTD    C4330817   6.935   0.351   0.540 -0.0261  0.4442  0.4946
    1BTD    C4430818   6.964   0.207   0.484 -0.6103 -0.2173  0.4685
    1BTD    C4530819   7.043   0.202   0.344 -0.3751  0.5946 -0.7333
    1BTD    C4630820   7.193   0.239   0.344 -0.3509 -0.1746  0.3327
    1BTD    C4730821   6.847   0.114   0.471 -0.1959 -0.2519 -0.2867
    1BTD    C4830822   6.768   0.092   0.600 -0.6876  0.1178  0.1511
    1BTD    C4930823   6.841   0.005   0.705  0.4878  0.1028  0.7242
    1BTD    C5030824   6.785   0.022   0.841  0.4060  0.2534  0.2850
    1BTD    C7530825   6.832   0.548   0.330  0.6746  0.0144 -0.0550
    1BTD    C7630826   6.720   0.462   0.271  0.4125 -0.0923 -0.3866
    1BTD    C7730827   6.629   0.408   0.382 -0.3863  0.2858 -0.5844
    1BTD    C7830828   6.496   0.355   0.336 -0.6154 -0.1898  0.1220
    1BTD    C7930829   6.764   0.375   0.157  0.0797 -0.1892 -0.2400
    1BTD    C8030830   6.770   0.448   0.021 -0.2875  0.0809 -0.2192
    1BTD    C8130831   6.805   0.346  -0.091 -0.0796 -0.2009  0.1916
    1BTD    C8230832   6.838   0.407  -0.230  0.0689  0.4493 -0.0387
    2TTP     S130833   7.350   0.490   0.809 -0.1452  0.1533  0.0025
    2TTP     S530834   7.186   0.111   0.689  0.0745  0.0520  0.0202
    2TTP     C130835   7.323   0.080   0.805  0.0408  0.1398  0.0833
    2TTP     C230836   7.382   0.196   0.849 -0.0290  0.1762  0.0816
    2TTP     C330837   7.321   0.312   0.792 -0.0585  0.1362  0.0303
    2TTP     C430838   7.213   0.520   0.693 -0.1113  0.0656 -0.0606
    2TTP    C1730839   7.154   0.405   0.649 -0.0416  0.0291 -0.0588
    2TTP    C1830840   7.215   0.288   0.705 -0.0122  0.0692 -0.0076
    2TTP    C3230841   7.507   0.198   0.941 -0.1399  0.5725  0.1074
    2TTP    C3330842   7.526   0.317   1.039 -0.4263  0.5071  0.4199
    2TTP    C3430843   7.653   0.298   1.122  0.7481  0.8699 -0.4225
    2TTP    C3530844   7.678   0.409   1.223 -0.3067 -0.2162  0.0123
    2TTP    C3630845   7.819   0.401   1.285  0.1250 -0.2283  0.1189
    2TTP    C3730846   7.858   0.535   1.354 -0.1783 -0.1947  0.4521
    2TTP    C3830847   7.988   0.524   1.437  0.3101  0.0631 -0.4480
    2TTP    C3930848   8.115   0.533   1.353 -0.0556 -1.0661 -0.0930
    2TTP    C4030849   8.223   0.630   1.412 -0.3010  0.0625  0.2294
    2TTP    C4130850   8.362   0.642   1.353 -0.6040 -0.6290 -0.2183
    2TTP    C4230851   8.442   0.750   1.426 -0.2408  0.1319  0.3431
    3TTP     S130852   6.763   1.033   0.442 -0.1722  0.1193  0.0111
    3TTP     S530853   6.517   0.745   0.239 -0.2054  0.2721 -0.1661
    3TTP     C130854   6.450   0.911   0.207 -0.2755  0.2878  0.0606
    3TTP     C230855   6.522   1.010   0.268 -0.2697  0.2415  0.1287
    3TTP     C330856   6.632   0.958   0.342 -0.2092  0.1920  0.0043
    3TTP     C430857   6.830   0.867   0.474 -0.1019  0.1036 -0.2156
    3TTP    C1730858   6.758   0.769   0.413 -0.1081  0.1498 -0.2837
    3TTP    C1830859   6.647   0.820   0.339 -0.1684  0.1994 -0.1592
    3TTP    C3230860   6.498   1.156   0.259 -0.2132 -0.4020  0.8946
    3TTP    C3330861   6.459   1.228   0.393 -0.5695  0.2775 -0.7200
    3TTP    C3430862   6.481   1.374   0.368  0.3836 -0.6791 -0.6638
    3TTP    C3530863   6.360   1.458   0.308 -0.6694  0.1773  0.1855
    3TTP    C3630864   6.386   1.609   0.329  0.1583 -0.6699  0.0776
    3TTP    C3730865   6.258   1.700   0.327  0.3382  0.1193  0.1824
    3TTP    C3830866   6.298   1.847   0.328  0.2662 -0.2918 -0.2374
    3TTP    C3930867   6.347   1.893   0.463 -0.4565 -0.0846  0.3676
    3TTP    C4030868   6.373   2.040   0.457 -0.5744 -0.1351 -0.6798
    3TTP    C4130869   6.440   2.092   0.583 -0.1397  0.2126  0.3941
    3TTP    C4230870   6.449   2.245   0.588 -0.0349  0.5300 -0.1909
    4BIM     F130871   7.126  -0.692   0.594 -0.4334 -0.1130  0.3337
    4BIM     F230872   7.251  -0.779   0.820  0.2778 -0.1173 -0.0569
    4BIM     O130873   7.213  -0.158   0.629 -0.7181 -0.0646  0.3024
    4BIM     N530874   7.493  -0.524   1.168  1.0977 -0.0887 -0.6407
    4BIM     N630875   7.535  -0.090   1.150  0.7321 -0.0498 -0.5865
    4BIM    C1930876   7.363  -0.052   0.857 -0.1395 -0.0510 -0.0819
    4BIM    C2030877   7.337  -0.183   0.839 -0.0957 -0.0637 -0.0587
    4BIM    C2130878   7.259  -0.230   0.719 -0.4061 -0.0694  0.1436
    4BIM    C2230879   7.248  -0.376   0.731 -0.2662 -0.0825  0.1156
    4BIM    C2330880   7.184  -0.464   0.644 -0.4544 -0.0918  0.2605
    4BIM    C2430881   7.187  -0.599   0.676 -0.2642 -0.1035  0.1982
    4BIM    C2530882   7.252  -0.644   0.792  0.1021 -0.1057 -0.0031
    4BIM    C2630883   7.315  -0.557   0.880  0.2913 -0.0963 -0.1485
    4BIM    C2730884   7.313  -0.420   0.849  0.1035 -0.0844 -0.0883
    4BIM    C2830885   7.371  -0.303   0.920  0.2232 -0.0730 -0.2034
    4BIM    C2930886   7.441  -0.305   1.038  0.5640 -0.0713 -0.4055
    4BIM    C3030887   7.469  -0.425   1.109  0.8560 -0.0811 -0.5341
    4BIM    C3130888   7.493  -0.187   1.099  0.6543 -0.0594 -0.5039
    5BIM     F130889   5.845   0.479  -0.144  0.1907 -0.0965 -0.3965
    5BIM     F230890   5.724   0.714  -0.210 -0.2604 -0.1432  0.2406
    5BIM     O130891   6.289   0.659   0.109  0.1843  0.0710 -0.5042
    5BIM     N530892   5.867   1.180  -0.125 -0.9135 -0.0910  1.0800
    5BIM     N630893   6.239   1.273   0.086 -0.8277  0.0493  0.8673
    5BIM    C1930894   6.331   0.947   0.135 -0.2489  0.0858  0.0663
    5BIM    C2030895   6.224   0.893   0.074 -0.2298  0.0455  0.0685
    5BIM    C2130896   6.209   0.743   0.064 -0.0011  0.0405 -0.2347
    5BIM    C2230897   6.083   0.719  -0.007 -0.0411 -0.0073 -0.1476
    5BIM    C2330898   6.027   0.596  -0.040  0.1196 -0.0280 -0.3486
    5BIM    C2430899   5.906   0.597  -0.108  0.0410 -0.0738 -0.2119
    5BIM    C2530900   5.844   0.718  -0.142 -0.1916 -0.0978  0.1168
    5BIM    C2630901   5.900   0.841  -0.110 -0.3527 -0.0773  0.3188
    5BIM    C2730902   6.022   0.842  -0.041 -0.2766 -0.0310  0.1843
    5BIM    C2830903   6.106   0.954   0.008 -0.4016  0.0005  0.3302
    5BIM    C2930904   6.080   1.088  -0.006 -0.6326 -0.0101  0.6473
    5BIM    C3030905   5.963   1.138  -0.071 -0.7862 -0.0545  0.8838
    5BIM    C3130906   6.167   1.189   0.045 -0.7386  0.0226  0.7664
    1BTD     S230907   5.336   8.940   6.230 -0.2018  0.0034  0.1408
    1BTD     N130908   5.488   8.991   6.310 -0.2136 -0.0231  0.1799
    1BTD     N230909   5.278   9.108   6.199 -0.1097  0.0138  0.0218
    1BTD     N330910   5.437   9.541   6.283  0.0571 -0.0138 -0.1500
    1BTD     N430911   5.696   9.397   6.420 -0.0710 -0.0596  0.0448
    1BTD     C530912   5.593   9.205   6.366 -0.1376 -0.0417  0.1069
    1BTD     C630913   5.488   9.123   6.311 -0.1513 -0.0231  0.1061
    1BTD     C730914   5.371   9.189   6.248 -0.0931 -0.0026  0.0176
    1BTD     C830915   5.365   9.332   6.245 -0.0241 -0.0010 -0.0657
    1BTD    C1530916   5.470   9.408   6.300 -0.0130 -0.0198 -0.0613
    1BTD    C1630917   5.582   9.345   6.360 -0.0691 -0.0394  0.0240
    1BTD    C4330918   5.704   9.529   6.485 -0.3849 -0.7104 -0.0680
    1BTD    C4430919   5.833   9.595   6.543 -0.1509  0.4706  0.5151
    1BTD    C4530920   5.936   9.636   6.434  0.7684 -0.2347  0.6186
    1BTD    C4630921   5.884   9.743   6.335 -0.4842  0.3037  0.3382
    1BTD    C4730922   5.799   9.712   6.635  0.0468 -0.2032  0.3616
    1BTD    C4830923   5.720   9.703   6.759  0.0231  0.4212  0.5473
    1BTD    C4930924   5.768   9.587   6.850 -0.0048  0.0275  0.0940
    1BTD    C5030925   5.666   9.585   6.965  0.1750  0.6694 -0.1668
    1BTD    C7530926   5.529   9.646   6.234 -0.2785  0.6182  0.1234
    1BTD    C7630927   5.490   9.791   6.254  0.2256  0.5053  0.3498
    1BTD    C7730928   5.545   9.891   6.145 -0.1372  0.4438  0.2367
    1BTD    C7830929   5.521   9.865   5.998  0.0463 -0.5834  0.0136
    1BTD    C7930930   5.507   9.841   6.401 -0.1984  0.1064 -0.3193
    1BTD    C8030931   5.503   9.987   6.442 -0.2383  0.5872 -0.4528
    1BTD    C8130932   5.357  10.022   6.452  0.0186  0.0393  0.4884
    1BTD    C8230933   5.345  10.168   6.463 -0.3947  0.1769  0.1978
    2TTP     S130934   5.799   9.022   6.472 -0.2591  0.1435  0.1927
    2TTP     S530935   6.048   9.360   6.566  0.0247  0.0436 -0.1938
    2TTP     C130936   6.135   9.208   6.616 -0.1500  0.0319  0.0827
    2TTP     C230937   6.064   9.095   6.590 -0.2480  0.0618  0.2183
    2TTP     C330938   5.937   9.124   6.530 -0.1886  0.0956  0.1088
    2TTP     C430939   5.712   9.174   6.423 -0.0845  0.1557 -0.0837
    2TTP    C1730940   5.783   9.287   6.449  0.0135  0.1257 -0.2195
    2TTP    C1830941   5.910   9.258   6.509 -0.0459  0.0918 -0.1098
    2TTP    C3230942   6.105   8.949   6.621 -0.6744 -0.3186 -0.5455
    2TTP    C3330943   6.012   8.835   6.616  0.2258  0.1303 -0.2838
    2TTP    C3430944   6.060   8.707   6.687 -0.4886 -0.1429  0.0653
    2TTP    C3530945   5.951   8.602   6.689  0.0120  0.0336  0.7588
    2TTP    C3630946   5.984   8.483   6.777 -0.4583  0.1676 -0.5158
    2TTP    C3730947   5.898   8.353   6.788 -0.3575  0.7772  0.9851
    2TTP    C3830948   5.928   8.272   6.907  0.2309  0.3401  0.5423
    2TTP    C3930949   6.052   8.184   6.893  0.0457  0.7273  0.5263
    2TTP    C4030950   6.096   8.124   7.027  0.1932  0.5599  0.5940
    2TTP    C4130951   6.216   8.036   7.021  0.1648  0.4855 -0.1778
    2TTP    C4230952   6.255   7.964   7.146 -0.2307 -0.3161  0.2299
    3TTP     S130953   5.097   9.409   6.120  0.1804 -0.1516  0.4485
    3TTP     S530954   5.179   9.816   6.230  0.3508 -0.1583  0.3484
    3TTP     C130955   5.010   9.807   6.162  0.2681 -0.1435  0.5507
    3TTP     C230956   4.975   9.681   6.124  0.2105 -0.1407  0.5934
    3TTP     C330957   5.080   9.586   6.147  0.2297 -0.1502  0.4680
    3TTP     C430958   5.266   9.418   6.188  0.2633 -0.1667  0.2464
    3TTP    C1730959   5.301   9.544   6.226  0.3207 -0.1694  0.2034
    3TTP    C1830960   5.196   9.638   6.203  0.3015 -0.1602  0.3289
    3TTP    C3230961   4.842   9.638   6.056 -0.0483 -0.0320 -0.0577
    3TTP    C3330962   4.852   9.580   5.915 -0.7973  0.1348  0.8861
    3TTP    C3430963   4.713   9.572   5.852  0.7351 -0.1601  0.1780
    3TTP    C3530964   4.664   9.705   5.796 -0.2306  0.3560 -0.0763
    3TTP    C3630965   4.554   9.703   5.693  0.4810  0.0048 -0.0176
    3TTP    C3730966   4.418   9.622   5.725 -0.4150  0.0903  0.5456
    3TTP    C3830967   4.329   9.675   5.841  0.3608 -0.0021  0.4455
    3TTP    C3930968   4.277   9.817   5.823 -0.4431  0.0998 -0.4988
    3TTP    C4030969   4.216   9.855   5.684 -1.1726 -0.1764 -0.4626
    3TTP    C4130970   4.157  10.000   5.664 -0.8009 -0.1307  0.0712
    3TTP    C4230971   4.085  10.041   5.537 -0.2248  0.2343 -0.2322
    4BIM     F130972   6.655   9.751   6.957  0.3364  0.1681 -0.3986
    4BIM     F230973   6.850   9.562   6.948  0.0815 -0.1309  0.2269
    4BIM     O130974   6.236   9.479   6.750  0.1749  0.3006 -0.2475
    4BIM     N530975   6.831   9.094   6.786 -0.3998 -0.4661  1.2341
    4BIM     N630976   6.464   8.920   6.626 -0.4745 -0.3026  1.2259
    4BIM    C1930977   6.273   9.201   6.667 -0.1257  0.0622  0.4039
    4BIM    C2030978   6.371   9.277   6.719 -0.0753  0.0403  0.3415
    4BIM    C2130979   6.344   9.419   6.760  0.0808  0.1688  0.0000
    4BIM    C2230980   6.471   9.472   6.813  0.0992  0.1066  0.0187
    4BIM    C2330981   6.496   9.600   6.862  0.2249  0.1826 -0.2359
    4BIM    C2430982   6.624   9.627   6.907  0.2158  0.0999 -0.1586
    4BIM    C2530983   6.724   9.529   6.902  0.0846 -0.0540  0.1638
    4BIM    C2630984   6.700   9.402   6.853 -0.0415 -0.1309  0.4189
    4BIM    C2730985   6.571   9.372   6.807 -0.0345 -0.0491  0.3457
    4BIM    C2830986   6.513   9.248   6.749 -0.1469 -0.0956  0.5567
    4BIM    C2930987   6.580   9.129   6.728 -0.2897 -0.2379  0.8882
    4BIM    C3030988   6.718   9.111   6.760 -0.3498 -0.3631  1.0772
    4BIM    C3130989   6.516   9.015   6.672 -0.3905 -0.2728  1.0722
    5BIM     F130990   5.087  10.616   6.288  0.0128 -0.0089 -0.0033
    5BIM     F230991   4.816  10.640   6.265  0.0286  0.0722 -0.1091
    5BIM     O130992   5.151  10.085   6.202 -0.1333 -0.0636  0.2242
    5BIM     N530993   4.474  10.296   6.170 -0.0526  0.1498 -0.0987
    5BIM     N630994   4.578   9.876   6.107 -0.1701  0.0907  0.1003
    5BIM    C1930995   4.915   9.919   6.149 -0.1700 -0.0056  0.2042
    5BIM    C2030996   4.910  10.052   6.172 -0.1339  0.0051  0.1509
    5BIM    C2130997   5.035  10.131   6.198 -0.1169 -0.0265  0.1655
    5BIM    C2230998   4.993  10.271   6.218 -0.0777 -0.0048  0.0967
    5BIM    C2330999   5.075  10.380   6.246 -0.0508 -0.0213  0.0833
    5BIM    C2431000   5.012  10.503   6.261 -0.0153  0.0054  0.0135
    5BIM    C2531001   4.873  10.515   6.249 -0.0070  0.0471 -0.0407
    5BIM    C2631002   4.792  10.406   6.221 -0.0339  0.0638 -0.0280
    5BIM    C2731003   4.853  10.281   6.206 -0.0700  0.0373  0.0424
    5BIM    C2831004   4.796  10.147   6.177 -0.1042  0.0450  0.0736
    5BIM    C2931005   4.663  10.117   6.158 -0.1076  0.0821  0.0378
    5BIM    C3031006   4.559  10.215   6.164 -0.0774  0.1192 -0.0372
    5BIM    C3131007   4.617   9.985   6.130 -0.1419  0.0866  0.0725
    1BTD     S231008   7.332   9.249   3.209  0.2937  0.1950  0.0881
    1BTD     N131009   7.365   9.425   3.218 -0.1199  0.2601  0.4528
    1BTD     N231010   7.178   9.268   3.118  0.5170 -0.0126 -0.3403
    1BTD     N331011   6.925   9.625   2.949  0.2254 -0.3197 -0.5545
    1BTD     N431012   7.156   9.819   3.072 -0.5593  0.0165  0.4226
    1BTD     C531013   7.253   9.628   3.140 -0.3399  0.1287  0.4252
    1BTD     C631014   7.265   9.486   3.156 -0.0726  0.1299  0.2471
    1BTD     C731015   7.160   9.398   3.100  0.2840 -0.0229 -0.1968
    1BTD     C831016   7.048   9.457   3.031  0.3554 -0.1693 -0.4403
    1BTD    C1531017   7.041   9.597   3.018  0.0856 -0.1645 -0.2528
    1BTD    C1631018   7.142   9.682   3.072 -0.2579 -0.0175  0.1748
    1BTD    C4331019   7.047   9.924   3.109  1.6182  0.1216  0.2302
    1BTD    C4431020   7.043  10.075   3.072 -0.5390 -0.1509  0.3942
    1BTD    C4531021   6.955  10.164   3.148 -0.0102  0.3038 -0.6051
    1BTD    C4631022   6.955  10.160   3.299 -0.2120  0.1234  0.6082
    1BTD    C4731023   7.056  10.102   2.919  0.2626 -1.4456 -1.2367
    1BTD    C4831024   7.102  10.250   2.901  0.0561  0.2397 -0.0230
    1BTD    C4931025   7.170  10.296   2.779 -0.2339 -0.2827 -0.2158
    1BTD    C5031026   7.227  10.438   2.792 -0.1297 -0.1119  0.7281
    1BTD    C7531027   6.907   9.742   2.865  0.3840  0.0622 -0.0999
    1BTD    C7631028   6.767   9.814   2.858 -0.5701  1.2875  0.0004
    1BTD    C7731029   6.707   9.835   2.996  0.0072 -0.5114  0.5097
    1BTD    C7831030   6.573   9.904   3.012 -0.2863  0.1857  0.1893
    1BTD    C7931031   6.777   9.932   2.766 -0.1293  0.3522  0.3815
    1BTD    C8031032   6.818   9.902   2.618  0.0502 -0.5358  0.3877
    1BTD    C8131033   6.732   9.807   2.536  0.1587  0.2843  0.4039
    1BTD    C8231034   6.598   9.862   2.506  0.0375 -0.2713  0.1159
    2TTP     S131035   7.507   9.763   3.237 -0.2172 -0.0970  0.3746
    2TTP     S531036   7.360  10.142   3.098 -0.0148 -0.1142  0.1124
    2TTP     C131037   7.527  10.166   3.166 -0.1331 -0.0967  0.3991
    2TTP     C231038   7.582  10.050   3.213 -0.2025 -0.0904  0.4970
    2TTP     C331039   7.495   9.939   3.197 -0.1647 -0.0991  0.3490
    2TTP     C431040   7.340   9.739   3.169 -0.0987 -0.1145  0.0878
    2TTP    C1731041   7.285   9.854   3.122 -0.0293 -0.1208 -0.0101
    2TTP    C1831042   7.372   9.966   3.138 -0.0671 -0.1121  0.1379
    2TTP    C3231043   7.718  10.036   3.278  0.4548 -0.1926  0.0423
    2TTP    C3331044   7.734   9.994   3.425  0.9525  0.0540  0.3885
    2TTP    C3431045   7.688  10.091   3.532  0.0197  0.3291 -0.2586
    2TTP    C3531046   7.757  10.230   3.539 -0.1963 -0.6770  0.1033
    2TTP    C3631047   7.676  10.341   3.608  0.7211 -0.4179 -0.3069
    2TTP    C3731048   7.726  10.485   3.589 -0.4038  0.0673 -0.0501
    2TTP    C3831049   7.678  10.597   3.680  0.6677  0.4654 -0.4346
    2TTP    C3931050   7.542  10.662   3.653  0.0959 -0.0981 -0.1322
    2TTP    C4031051   7.481  10.736   3.772 -0.2333  0.1056 -0.3010
    2TTP    C4131052   7.334  10.786   3.776  0.3782  0.1716  0.0455
    2TTP    C4231053   7.291  10.864   3.895 -0.1064  0.2189 -0.0738
    3TTP     S131054   6.849   9.239   2.952 -0.1421 -0.1702  0.0900
    3TTP     S531055   6.600   9.541   2.775  0.0083  0.2265  0.5530
    3TTP     C131056   6.519   9.380   2.753 -0.1687  0.3247  0.4802
    3TTP     C231057   6.592   9.277   2.806 -0.2257  0.2077  0.3330
    3TTP     C331058   6.713   9.322   2.867 -0.1312  0.0372  0.2723
    3TTP     C431059   6.929   9.400   2.975  0.0349 -0.2682  0.1628
    3TTP    C1731060   6.857   9.503   2.921  0.0920 -0.1510  0.3100
    3TTP    C1831061   6.736   9.458   2.861 -0.0023  0.0200  0.3707
    3TTP    C3231062   6.552   9.127   2.822 -0.3207 -0.0180  0.2606
    3TTP    C3331063   6.467   9.084   2.940 -0.6789 -0.0456  0.8491
    3TTP    C3431064   6.316   9.115   2.923 -0.3811 -0.0939  0.1693
    3TTP    C3531065   6.246   9.058   3.044  0.0857  0.3077  0.1214
    3TTP    C3631066   6.097   9.092   3.040  1.1144 -0.7828 -0.6898
    3TTP    C3731067   6.017   9.054   3.165 -0.0034  0.9392 -0.5685
    3TTP    C3831068   6.014   8.905   3.212  0.0089 -0.4824 -0.4483
    3TTP    C3931069   5.938   8.806   3.138 -0.0636 -0.5502 -0.0515
    3TTP    C4031070   6.002   8.666   3.129  0.2050 -0.4347  0.1118
    3TTP    C4131071   6.136   8.646   3.054 -0.1842  0.2013 -0.3195
    3TTP    C4231072   6.166   8.504   3.112 -0.1835  0.2486  0.0854
    4BIM     F131073   7.355  10.962   3.037  0.1347 -0.2147 -0.5235
    4BIM     F231074   7.616  11.020   3.087 -0.0604 -0.1043  0.4060
    4BIM     O131075   7.353  10.425   3.109  0.1708 -0.2586 -0.8468
    4BIM     N531076   7.991  10.720   3.210 -0.3153  0.0232  1.5121
    4BIM     N631077   7.937  10.289   3.257 -0.2478 -0.0334  1.0720
    4BIM    C1931078   7.602  10.290   3.183 -0.0030 -0.1687 -0.0736
    4BIM    C2031079   7.593  10.423   3.163 -0.0043 -0.1620 -0.0286
    4BIM    C2131080   7.461  10.485   3.125  0.0882 -0.2102 -0.4425
    4BIM    C2231081   7.486  10.630   3.111  0.0607 -0.1886 -0.2724
    4BIM    C2331082   7.394  10.729   3.077  0.1216 -0.2178 -0.5288
    4BIM    C2431083   7.441  10.859   3.070  0.0789 -0.1884 -0.2913
    4BIM    C2531084   7.575  10.889   3.096 -0.0218 -0.1315  0.1876
    4BIM    C2631085   7.667  10.790   3.130 -0.0830 -0.1020  0.4456
    4BIM    C2731086   7.622  10.658   3.137 -0.0411 -0.1311  0.2114
    4BIM    C2831087   7.693  10.532   3.170 -0.0850 -0.1125  0.3801
    4BIM    C2931088   7.826  10.519   3.201 -0.1819 -0.0596  0.8295
    4BIM    C3031089   7.916  10.630   3.206 -0.2550 -0.0142  1.2032
    4BIM    C3131090   7.886  10.393   3.232 -0.2177 -0.0455  0.9603
    5BIM     F131091   5.902   9.851   2.489 -0.1644 -0.0498  0.1402
    5BIM     F231092   5.804   9.635   2.356  0.3115  0.1168 -0.4923
    5BIM     O131093   6.336   9.633   2.729 -0.5041 -0.1342  0.6813
    5BIM     N531094   5.971   9.170   2.335  0.7536  0.2964 -1.0158
    5BIM     N631095   6.330   9.043   2.550  0.3922  0.1967 -0.4655
    5BIM    C1931096   6.396   9.350   2.687 -0.1699 -0.0049  0.2694
    5BIM    C2031097   6.291   9.413   2.632 -0.1031  0.0098  0.1578
    5BIM    C2131098   6.267   9.559   2.658 -0.2854 -0.0601  0.3848
    5BIM    C2231099   6.145   9.596   2.584 -0.1533 -0.0226  0.1857
    5BIM    C2331100   6.083   9.720   2.577 -0.2457 -0.0627  0.2887
    5BIM    C2431101   5.968   9.731   2.500 -0.0852 -0.0143  0.0552
    5BIM    C2531102   5.918   9.619   2.431  0.1599  0.0716 -0.2705
    5BIM    C2631103   5.979   9.495   2.437  0.2536  0.1118 -0.3750
    5BIM    C2731104   6.095   9.482   2.515  0.0936  0.0639 -0.1421
    5BIM    C2831105   6.183   9.366   2.542  0.1341  0.0873 -0.1721
    5BIM    C2931106   6.167   9.238   2.493  0.3504  0.1657 -0.4523
    5BIM    C3031107   6.059   9.201   2.406  0.5713  0.2372 -0.7612
    5BIM    C3131108   6.256   9.132   2.524  0.3722  0.1824 -0.4579
    1BTD     S231109   3.588   2.961   4.260 -0.2231 -0.3142 -0.0667
    1BTD     N131110   3.758   2.956   4.319 -0.1303 -0.3738 -0.3328
    1BTD     N231111   3.562   2.784   4.278 -0.3381 -0.2695  0.2061
    1BTD     N331112   3.814   2.415   4.423 -0.4051 -0.2858  0.2815
    1BTD     N431113   4.055   2.628   4.474 -0.1489 -0.4142 -0.3829
    1BTD     C531114   3.910   2.782   4.399 -0.1431 -0.3933 -0.3510
    1BTD     C631115   3.784   2.830   4.348 -0.1869 -0.3580 -0.2110
    1BTD     C731116   3.675   2.733   4.325 -0.3033 -0.2996  0.0907
    1BTD     C831117   3.696   2.594   4.354 -0.3700 -0.2795  0.2375
    1BTD    C1531118   3.821   2.552   4.404 -0.3236 -0.3156  0.0918
    1BTD    C1631119   3.927   2.645   4.427 -0.2114 -0.3719 -0.1988
    1BTD    C4331120   4.148   2.514   4.475  0.0081  0.2890  0.5869
    1BTD    C4431121   4.243   2.499   4.354 -0.6167 -0.4861  0.1882
    1BTD    C4531122   4.352   2.378   4.363 -0.3453 -0.0965 -0.2110
    1BTD    C4631123   4.466   2.410   4.455 -0.2096 -0.6598 -0.7326
    1BTD    C4731124   4.178   2.511   4.218  0.1305 -0.3470  0.3761
    1BTD    C4831125   4.275   2.526   4.107 -0.0892 -0.7203  0.1079
    1BTD    C4931126   4.203   2.505   3.973  0.4894  0.0178  0.9912
    1BTD    C5031127   4.275   2.509   3.834 -0.3236 -0.3427 -0.1103
    1BTD    C7531128   3.895   2.321   4.500  0.5841  0.4833 -0.9998
    1BTD    C7631129   3.873   2.310   4.661 -0.6604 -0.1105  0.7178
    1BTD    C7731130   3.885   2.445   4.738 -0.5329  0.0512 -0.2014
    1BTD    C7831131   3.849   2.446   4.890 -0.0838 -0.4353  0.6976
    1BTD    C7931132   3.942   2.187   4.735  0.1406  0.1468  0.7143
    1BTD    C8031133   3.898   2.051   4.692  0.4877 -0.3392 -0.2683
    1BTD    C8131134   3.958   1.941   4.766  0.2465  0.6853  0.3427
    1BTD    C8231135   3.912   1.809   4.710  0.1056  0.0928  0.1193
    2TTP     S131136   4.089   3.019   4.444  0.0064  0.2047  0.1952
    2TTP     S531137   4.365   2.757   4.646 -0.4579 -0.2201  0.2811
    2TTP     C131138   4.423   2.928   4.665 -0.1389 -0.3190  0.2025
    2TTP     C231139   4.342   3.019   4.604  0.0230 -0.1937  0.1713
    2TTP     C331140   4.230   2.957   4.540 -0.0986 -0.0150  0.2084
    2TTP     C431141   4.031   2.848   4.425 -0.3126  0.3037  0.2738
    2TTP    C1731142   4.113   2.757   4.487 -0.4746  0.1782  0.3050
    2TTP    C1831143   4.224   2.819   4.550 -0.3527 -0.0004  0.2680
    2TTP    C3231144   4.366   3.169   4.594 -0.7440  0.5103 -0.4395
    2TTP    C3331145   4.434   3.229   4.473  0.0058 -0.1645 -0.5699
    2TTP    C3431146   4.357   3.231   4.339 -0.8380 -0.3055 -0.3600
    2TTP    C3531147   4.444   3.280   4.216  0.6662  0.4943  0.3096
    2TTP    C3631148   4.365   3.294   4.081 -0.3959 -0.1350 -0.1165
    2TTP    C3731149   4.453   3.320   3.960  0.3979 -0.2598 -0.0730
    2TTP    C3831150   4.370   3.308   3.832 -0.1490  0.1934  0.4546
    2TTP    C3931151   4.465   3.335   3.714 -0.4023 -0.2749 -0.0601
    2TTP    C4031152   4.407   3.316   3.570 -0.3409 -0.1444  0.5194
    2TTP    C4131153   4.315   3.429   3.528  0.3558 -0.4863  0.3386
    2TTP    C4231154   4.183   3.374   3.476  0.1891  0.2015 -0.5338
    3TTP     S131155   3.441   2.441   4.307  0.3286  0.2169 -0.0293
    3TTP     S531156   3.642   2.075   4.407 -0.1218 -0.1150 -0.3325
    3TTP     C131157   3.470   2.036   4.363 -0.1633  0.1307 -0.3879
    3TTP     C231158   3.398   2.147   4.329 -0.0266  0.2478 -0.2974
    3TTP     C331159   3.476   2.267   4.338  0.1158  0.1475 -0.1812
    3TTP     C431160   3.613   2.480   4.352  0.3701 -0.0289  0.0262
    3TTP    C1731161   3.686   2.369   4.385  0.2333 -0.1459 -0.0643
    3TTP    C1831162   3.608   2.249   4.377  0.0911 -0.0457 -0.1805
    3TTP    C3231163   3.246   2.154   4.315  0.3849 -0.7171 -0.2200
    3TTP    C3331164   3.152   2.210   4.430  0.1306 -0.1732  0.2641
    3TTP    C3431165   3.167   2.158   4.576 -0.0931  0.1371 -0.8685
    3TTP    C3531166   3.294   2.215   4.646 -0.0988 -0.6695 -0.0463
    3TTP    C3631167   3.313   2.174   4.792 -0.3984  0.3338 -0.2327
    3TTP    C3731168   3.464   2.162   4.834  0.5104 -0.3177  0.3878
    3TTP    C3831169   3.489   2.141   4.975  0.1575  0.2067 -0.2418
    3TTP    C3931170   3.631   2.115   4.997 -0.1774  0.0200  0.0899
    3TTP    C4031171   3.660   2.075   5.142  0.1152  0.3128 -0.0050
    3TTP    C4131172   3.813   2.043   5.174  0.2105 -0.1059  0.3962
    3TTP    C4231173   3.848   1.902   5.129  0.0350  0.4347 -0.1537
    4BIM     F131174   5.150   2.556   4.724  0.1148  0.0570 -0.2332
    4BIM     F231175   5.230   2.751   4.896 -0.1689 -0.1817  0.1727
    4BIM     O131176   4.650   2.726   4.602  0.1438 -0.0207 -0.4611
    4BIM     N531177   4.989   3.152   5.057 -0.5560 -0.5804  0.5939
    4BIM     N631178   4.582   3.246   4.927 -0.4762 -0.5931  0.3340
    4BIM    C1931179   4.549   2.972   4.724 -0.1172 -0.2765 -0.1542
    4BIM    C2031180   4.672   2.922   4.747 -0.1132 -0.2476 -0.1127
    4BIM    C2131181   4.717   2.795   4.681  0.0248 -0.1138 -0.2788
    4BIM    C2231182   4.854   2.769   4.729 -0.0089 -0.1159 -0.1820
    4BIM    C2331183   4.937   2.662   4.695  0.0849 -0.0142 -0.2745
    4BIM    C2431184   5.063   2.659   4.753  0.0282 -0.0392 -0.1515
    4BIM    C2531185   5.104   2.759   4.842 -0.1182 -0.1621  0.0576
    4BIM    C2631186   5.021   2.866   4.876 -0.2122 -0.2640  0.1510
    4BIM    C2731187   4.893   2.871   4.818 -0.1568 -0.2406  0.0290
    4BIM    C2831188   4.783   2.969   4.833 -0.2266 -0.3266  0.0798
    4BIM    C2931189   4.785   3.083   4.911 -0.3693 -0.4547  0.2692
    4BIM    C3031190   4.897   3.121   4.991 -0.4715 -0.5234  0.4470
    4BIM    C3131191   4.673   3.172   4.920 -0.4274 -0.5301  0.3036
    5BIM     F131192   3.649   1.285   4.646  0.0709 -0.0926 -0.3802
    5BIM     F231193   3.399   1.205   4.573 -0.2078  0.1325  0.3155
    5BIM     O131194   3.641   1.804   4.492  0.1661 -0.1259 -0.4979
    5BIM     N531195   3.034   1.461   4.359 -0.5406  0.4326  1.2317
    5BIM     N631196   3.078   1.883   4.253 -0.4101  0.3612  0.9995
    5BIM    C1931197   3.399   1.912   4.368 -0.0664  0.0774  0.1247
    5BIM    C2031198   3.411   1.785   4.409 -0.0794  0.0770  0.1273
    5BIM    C2131199   3.538   1.736   4.472  0.0450 -0.0310 -0.2037
    5BIM    C2231200   3.517   1.594   4.506 -0.0055 -0.0015 -0.1086
    5BIM    C2331201   3.608   1.507   4.566  0.0717 -0.0736 -0.3281
    5BIM    C2431202   3.565   1.376   4.587  0.0009 -0.0261 -0.1781
    5BIM    C2531203   3.436   1.336   4.550 -0.1426  0.0899  0.1802
    5BIM    C2631204   3.346   1.422   4.490 -0.2204  0.1623  0.4008
    5BIM    C2731205   3.387   1.555   4.467 -0.1506  0.1159  0.2538
    5BIM    C2831206   3.316   1.670   4.407 -0.2017  0.1687  0.4131
    5BIM    C2931207   3.188   1.671   4.357 -0.3365  0.2811  0.7592
    5BIM    C3031208   3.104   1.555   4.358 -0.4482  0.3640  1.0177
    5BIM    C3131209   3.128   1.787   4.300 -0.3762  0.3245  0.8893
    1BTD     S231210   4.764   3.626   6.828 -0.1967 -0.0164  0.1485
    1BTD     N131211   4.786   3.450   6.802 -0.3802 -0.0925  0.4928
    1BTD     N231212   4.914   3.645   6.926  0.0544  0.1067 -0.2558
    1BTD     N331213   5.259   3.365   7.077  0.2354  0.2200 -0.4573
    1BTD     N431214   5.101   3.124   6.924 -0.3000 -0.0255  0.4652
    1BTD     C531215   4.952   3.283   6.867 -0.3318 -0.0546  0.4673
    1BTD     C631216   4.898   3.416   6.864 -0.2513 -0.0257  0.2990
    1BTD     C731217   4.969   3.525   6.933 -0.0080  0.0858 -0.1200
    1BTD     C831218   5.092   3.496   7.003  0.1425  0.1630 -0.3500
    1BTD    C1531219   5.141   3.364   7.004  0.0558  0.1311 -0.1727
    1BTD    C1631220   5.072   3.259   6.937 -0.1782  0.0235  0.2311
    1BTD    C4331221   5.233   3.066   6.917  0.1130  0.1950 -0.2021
    1BTD    C4431222   5.277   2.926   6.869  0.7017  0.1252 -0.3102
    1BTD    C4531223   5.236   2.878   6.731  0.4406  0.2461 -0.3425
    1BTD    C4631224   5.282   2.953   6.606  0.1031  0.3760  0.2055
    1BTD    C4731225   5.429   2.903   6.896  0.1670 -0.4576  0.0726
    1BTD    C4831226   5.536   2.993   6.840 -0.0359  0.1136  0.1546
    1BTD    C4931227   5.672   2.976   6.908  0.0437 -0.3769  0.5249
    1BTD    C5031228   5.782   3.044   6.836  0.0323 -0.0483  0.4968
    1BTD    C7531229   5.342   3.260   7.132  0.2622  0.4722 -0.6576
    1BTD    C7631230   5.344   3.206   7.275 -0.5528 -0.4241 -0.7056
    1BTD    C7731231   5.206   3.171   7.327  0.4490  0.0753 -0.3626
    1BTD    C7831232   5.181   3.138   7.477 -0.1824  0.4591 -0.2277
    1BTD    C7931233   5.443   3.081   7.290  1.0874 -0.1260 -0.8190
    1BTD    C8031234   5.592   3.100   7.281  0.3615 -0.1064 -0.1496
    1BTD    C8131235   5.655   3.201   7.369 -0.3135 -0.2849  0.0108
    1BTD    C8231236   5.801   3.207   7.334  0.3023  0.1939  0.1453
    2TTP     S131237   4.746   3.100   6.763 -0.0362  0.2145  0.1102
    2TTP     S531238   4.960   2.772   6.942 -0.0861  0.1517  0.0551
    2TTP     C131239   4.796   2.713   6.889 -0.1746  0.2356  0.2307
    2TTP     C231240   4.721   2.810   6.831 -0.1645  0.2598  0.2581
    2TTP     C331241   4.789   2.936   6.826 -0.0864  0.2131  0.1414
    2TTP     C431242   4.909   3.159   6.816  0.0523  0.1307 -0.0653
    2TTP    C1731243   4.985   3.062   6.875  0.0423  0.1063 -0.0928
    2TTP    C1831244   4.916   2.936   6.880 -0.0360  0.1530  0.0240
    2TTP    C3231245   4.585   2.784   6.761 -0.1614  0.2751  0.3449
    2TTP    C3331246   4.459   2.836   6.823 -0.1985 -0.2319 -0.0108
    2TTP    C3431247   4.329   2.820   6.751  1.1276 -0.0222  0.0559
    2TTP    C3531248   4.276   2.674   6.751  0.3678 -0.2581  0.2193
    2TTP    C3631249   4.138   2.655   6.677  0.2959 -0.2442 -0.7006
    2TTP    C3731250   4.062   2.529   6.725  0.1409 -0.1501  0.2264
    2TTP    C3831251   4.136   2.392   6.729  0.3647 -0.1160  0.3562
    2TTP    C3931252   4.194   2.331   6.600 -0.3123  0.5330 -0.4872
    2TTP    C4031253   4.084   2.310   6.487 -0.3678 -0.2640 -0.4083
    2TTP    C4131254   4.148   2.304   6.353 -0.3895  0.3133  0.3197
    2TTP    C4231255   4.046   2.351   6.242  0.4598 -0.6068  0.4562
    3TTP     S131256   5.220   3.748   7.086 -0.2807 -0.3998  0.1368
    3TTP     S531257   5.587   3.537   7.158 -0.0505 -0.0930 -0.1328
    3TTP     C131258   5.621   3.716   7.162 -0.2227 -0.0623 -0.0214
    3TTP     C231259   5.510   3.791   7.140 -0.3040 -0.1553  0.0683
    3TTP     C331260   5.394   3.711   7.119 -0.2332 -0.2540  0.0523
    3TTP     C431261   5.186   3.569   7.082 -0.1086 -0.4303  0.0254
    3TTP    C1731262   5.297   3.494   7.104 -0.0272 -0.3375 -0.0643
    3TTP    C1831263   5.414   3.574   7.125 -0.0980 -0.2387 -0.0485
    3TTP    C3231264   5.504   3.940   7.134 -0.4612 -0.0124  0.1477
    3TTP    C3331265   5.407   4.030   7.218 -0.0962 -0.2446 -0.3477
    3TTP    C3431266   5.433   4.174   7.186 -1.0606  0.3434  0.3350
    3TTP    C3531267   5.329   4.271   7.234  0.5726 -0.0818  0.5155
    3TTP    C3631268   5.326   4.406   7.149 -0.2300  0.5778 -0.6467
    3TTP    C3731269   5.193   4.477   7.170  0.1107 -0.5298  0.3008
    3TTP    C3831270   5.168   4.580   7.052  0.4352 -0.0559  0.1309
    3TTP    C3931271   5.021   4.638   7.057 -0.2078 -0.1632  0.1337
    3TTP    C4031272   5.017   4.775   6.991 -0.8407  1.1696  0.5747
    3TTP    C4131273   4.874   4.841   7.010 -0.3996  0.6765  0.3507
    3TTP    C4231274   4.880   4.970   6.933  0.0268  0.4295  0.4928
    4BIM     F131275   4.928   2.137   7.453 -0.1916  0.1472  0.0535
    4BIM     F231276   4.779   1.966   7.304  0.1608  0.0111 -0.1450
    4BIM     O131277   4.894   2.589   7.156 -0.4423  0.1950  0.1544
    4BIM     N531278   4.539   2.041   6.877  0.4886 -0.1504 -0.3582
    4BIM     N631279   4.543   2.429   6.675  0.2215 -0.0857 -0.2394
    4BIM    C1931280   4.739   2.585   6.908 -0.1947  0.0819  0.0006
    4BIM    C2031281   4.753   2.479   6.988 -0.1456  0.0752 -0.0169
    4BIM    C2131282   4.834   2.488   7.114 -0.2804  0.1358  0.0659
    4BIM    C2231283   4.829   2.355   7.178 -0.1827  0.1108  0.0212
    4BIM    C2331284   4.890   2.315   7.297 -0.2513  0.1482  0.0689
    4BIM    C2431285   4.871   2.184   7.336 -0.1327  0.1133  0.0110
    4BIM    C2531286   4.794   2.095   7.259  0.0486  0.0433 -0.0910
    4BIM    C2631287   4.733   2.135   7.141  0.1183  0.0055 -0.1391
    4BIM    C2731288   4.751   2.267   7.098  0.0001  0.0399 -0.0819
    4BIM    C2831289   4.701   2.340   6.979  0.0302  0.0154 -0.1093
    4BIM    C2931290   4.622   2.288   6.879  0.1903 -0.0503 -0.2028
    4BIM    C3031291   4.577   2.153   6.878  0.3537 -0.1051 -0.2879
    4BIM    C3131292   4.579   2.366   6.767  0.2066 -0.0694 -0.2224
    5BIM     F131293   6.390   3.447   7.306 -0.1618  0.0553  0.3929
    5BIM     F231294   6.480   3.700   7.261 -0.0114 -0.1119 -0.2571
    5BIM     O131295   5.858   3.513   7.235 -0.1659  0.2720  0.6220
    5BIM     N531296   6.229   4.110   7.144  0.2016 -0.1979 -1.0283
    5BIM     N631297   5.795   4.111   7.097  0.1681  0.0050 -0.7184
    5BIM    C1931298   5.754   3.778   7.166 -0.0238  0.1892  0.0824
    5BIM    C2031299   5.885   3.751   7.186 -0.0286  0.1412  0.0502
    5BIM    C2131300   5.930   3.612   7.221 -0.1038  0.1886  0.3390
    5BIM    C2231301   6.077   3.619   7.235 -0.0888  0.1169  0.2193
    5BIM    C2331302   6.164   3.515   7.267 -0.1410  0.1277  0.3980
    5BIM    C2431303   6.299   3.545   7.275 -0.1135  0.0495  0.2313
    5BIM    C2531304   6.345   3.675   7.251 -0.0358 -0.0366 -0.1036
    5BIM    C2631305   6.259   3.779   7.219  0.0166 -0.0479 -0.2834
    5BIM    C2731306   6.121   3.751   7.211 -0.0104  0.0305 -0.1190
    5BIM    C2831307   6.005   3.837   7.180  0.0296  0.0420 -0.2360
    5BIM    C2931308   6.009   3.972   7.150  0.1061 -0.0263 -0.5500
    5BIM    C3031309   6.130   4.047   7.147  0.1584 -0.1204 -0.8118
    5BIM    C3131310   5.891   4.047   7.121  0.1398 -0.0087 -0.6407
    1BTD     S231311   0.718   8.114   5.516  0.0998 -0.2012  0.0341
    1BTD     N131312   0.789   8.264   5.446 -0.1685 -0.0064  0.1752
    1BTD     N231313   0.848   8.092   5.639  0.2759 -0.2308 -0.1553
    1BTD     N331314   1.240   8.319   5.763  0.1502  0.0603 -0.2872
    1BTD     N431315   1.168   8.530   5.526 -0.3974  0.3366  0.1202
    1BTD     C531316   0.988   8.400   5.491 -0.2814  0.1690  0.1417
    1BTD     C631317   0.900   8.289   5.515 -0.1158  0.0246  0.0787
    1BTD     C731318   0.933   8.193   5.622  0.1329 -0.1009 -0.1063
    1BTD     C831319   1.052   8.213   5.701  0.2036 -0.0751 -0.2192
    1BTD    C1531320   1.135   8.324   5.674  0.0354  0.0681 -0.1520
    1BTD    C1631321   1.103   8.416   5.570 -0.2043  0.1889  0.0264
    1BTD    C4331322   1.264   8.612   5.602  0.8305  0.0379  0.3521
    1BTD    C4431323   1.372   8.702   5.545  0.6172  0.5485  0.0920
    1BTD    C4531324   1.469   8.619   5.455 -0.3432 -0.0055 -0.4845
    1BTD    C4631325   1.546   8.695   5.342  0.1760  0.2644  0.5608
    1BTD    C4731326   1.440   8.795   5.646 -0.2051  0.3567  0.4050
    1BTD    C4831327   1.346   8.866   5.743  0.4154  0.1429 -0.1863
    1BTD    C4931328   1.226   8.952   5.703  0.4008  0.4609  0.3520
    1BTD    C5031329   1.261   9.069   5.620 -0.2146 -0.4329  0.6480
    1BTD    C7531330   1.382   8.351   5.733 -0.3375 -0.6717 -0.0923
    1BTD    C7631331   1.481   8.394   5.845  0.5551  0.5612 -0.1300
    1BTD    C7731332   1.427   8.510   5.922  0.4462  0.4953  0.4211
    1BTD    C7831333   1.493   8.543   6.057 -0.1871 -0.4106  0.3367
    1BTD    C7931334   1.625   8.392   5.809 -0.1520  0.3731  0.6927
    1BTD    C8031335   1.685   8.488   5.705 -0.1999 -0.0505  0.3737
    1BTD    C8131336   1.839   8.472   5.695  0.6618  0.3299  0.1428
    1BTD    C8231337   1.920   8.593   5.651 -0.1131  0.2496  0.1341
    2TTP     S131338   0.899   8.557   5.251  0.0952  0.0706  0.0077
    2TTP     S531339   1.229   8.828   5.300  0.3960 -0.2563 -0.2072
    2TTP     C131340   1.129   8.884   5.159  0.2313 -0.0274 -0.0002
    2TTP     C231341   1.021   8.804   5.135  0.1288  0.0868  0.0786
    2TTP     C331342   1.013   8.695   5.228  0.1765 -0.0021 -0.0222
    2TTP     C431343   0.999   8.501   5.391  0.2598 -0.1585 -0.1992
    2TTP    C1731344   1.107   8.581   5.415  0.3624 -0.2726 -0.2780
    2TTP    C1831345   1.114   8.690   5.322  0.3147 -0.1841 -0.1775
    2TTP    C3231346   0.907   8.816   5.032 -0.4117 -0.2161  0.1827
    2TTP    C3331347   0.907   8.730   4.902 -0.1780 -0.4972 -0.1137
    2TTP    C3431348   0.811   8.782   4.798  0.5148  0.5375 -0.3904
    2TTP    C3531349   0.767   8.688   4.685  0.2104 -0.0578  0.0659
    2TTP    C3631350   0.705   8.550   4.708  0.4545  0.6177 -0.1602
    2TTP    C3731351   0.573   8.552   4.770  0.6568  0.2638  0.4721
    2TTP    C3831352   0.513   8.411   4.785  0.0010  0.0055  0.3136
    2TTP    C3931353   0.389   8.389   4.871 -0.0743 -0.2829 -0.2926
    2TTP    C4031354   0.266   8.477   4.842  0.1402  0.7972 -0.1190
    2TTP    C4131355   0.157   8.431   4.926  0.5081 -0.5105 -0.0628
    2TTP    C4231356   0.027   8.511   4.902 -0.1195  0.1499  0.0363
    3TTP     S131357   1.070   7.990   5.908 -0.0070 -0.0667 -0.0575
    3TTP     S531358   1.447   8.152   6.037  0.0541  0.0002 -0.3191
    3TTP     C131359   1.414   8.000   6.131  0.1113  0.0344 -0.2436
    3TTP     C231360   1.295   7.941   6.097  0.0958  0.0159 -0.1585
    3TTP     C331361   1.227   8.014   5.995  0.0382 -0.0262 -0.1496
    3TTP     C431362   1.103   8.142   5.813 -0.0643 -0.1011 -0.1330
    3TTP    C1731363   1.221   8.201   5.848 -0.0488 -0.0822 -0.2182
    3TTP    C1831364   1.290   8.129   5.950  0.0089 -0.0403 -0.2271
    3TTP    C3231365   1.231   7.810   6.161  0.2657  0.7788  0.1974
    3TTP    C3331366   1.084   7.797   6.189  0.7560  0.1961 -0.4720
    3TTP    C3431367   1.015   7.882   6.302  0.6169 -0.5948 -0.5619
    3TTP    C3531368   1.062   7.869   6.449 -0.5510  0.2775  0.2354
    3TTP    C3631369   1.065   7.724   6.505 -0.2802 -0.0252  0.6780
    3TTP    C3731370   0.928   7.667   6.522 -0.2963 -0.1306  0.0655
    3TTP    C3831371   0.932   7.524   6.568  0.1415 -0.3739  0.6882
    3TTP    C3931372   1.027   7.417   6.510  0.1861  0.8145  0.3228
    3TTP    C4031373   1.046   7.297   6.606 -0.5465  0.3064 -0.0111
    3TTP    C4131374   1.150   7.328   6.716 -0.6913  0.0704 -0.0209
    3TTP    C4231375   1.138   7.226   6.830 -0.3538  0.0404  0.4593
    4BIM     F131376   1.662   9.505   5.156 -0.0867 -0.1528  0.1731
    4BIM     F231377   1.494   9.639   4.989 -0.2463  0.0913  0.5291
    4BIM     O131378   1.392   9.040   5.219  0.0042 -0.2704 -0.2970
    4BIM     N531379   1.061   9.502   4.794 -0.4112  0.3591  0.7052
    4BIM     N631380   0.884   9.111   4.877 -0.3080  0.2179  0.2663
    4BIM    C1931381   1.136   9.003   5.082 -0.1161 -0.0788 -0.1242
    4BIM    C2031382   1.210   9.115   5.073 -0.1327 -0.0584 -0.0197
    4BIM    C2131383   1.341   9.126   5.146 -0.0676 -0.1619 -0.1191
    4BIM    C2231384   1.395   9.259   5.114 -0.1060 -0.1087  0.0360
    4BIM    C2331385   1.515   9.315   5.159 -0.0698 -0.1688  0.0149
    4BIM    C2431386   1.546   9.443   5.115 -0.1186 -0.0993  0.1834
    4BIM    C2531387   1.459   9.513   5.030 -0.2008  0.0269  0.3665
    4BIM    C2631388   1.340   9.457   4.984 -0.2373  0.0873  0.3885
    4BIM    C2731389   1.307   9.328   5.027 -0.1889  0.0181  0.2198
    4BIM    C2831390   1.190   9.242   4.998 -0.2086  0.0541  0.1928
    4BIM    C2931391   1.083   9.274   4.918 -0.2830  0.1695  0.3371
    4BIM    C3031392   1.071   9.399   4.850 -0.3532  0.2735  0.5392
    4BIM    C3131393   0.974   9.184   4.896 -0.2963  0.1957  0.2973
    5BIM     F131394   2.154   8.169   6.453  0.2002 -0.0629 -0.3971
    5BIM     F231395   2.149   7.926   6.574  0.1036  0.0930 -0.0863
    5BIM     O131396   1.675   8.169   6.202  0.1415 -0.1376 -0.2854
    5BIM     N531397   1.799   7.575   6.569 -0.0772  0.2642  0.4401
    5BIM     N631398   1.426   7.624   6.348 -0.1036  0.1745  0.4648
    5BIM    C1931399   1.500   7.936   6.228  0.0284 -0.0150  0.0512
    5BIM    C2031400   1.620   7.946   6.287  0.0469 -0.0021  0.0110
    5BIM    C2131401   1.705   8.069   6.268  0.1056 -0.0682 -0.1647
    5BIM    C2231402   1.829   8.046   6.345  0.1119 -0.0343 -0.1651
    5BIM    C2331403   1.937   8.132   6.358  0.1591 -0.0727 -0.2997
    5BIM    C2431404   2.044   8.089   6.436  0.1551 -0.0287 -0.2695
    5BIM    C2531405   2.041   7.964   6.498  0.1052  0.0517 -0.1093
    5BIM    C2631406   1.933   7.877   6.486  0.0580  0.0905  0.0256
    5BIM    C2731407   1.824   7.919   6.407  0.0613  0.0466 -0.0025
    5BIM    C2831408   1.696   7.853   6.374  0.0193  0.0696  0.1121
    5BIM    C2931409   1.655   7.728   6.416 -0.0347  0.1433  0.2797
    5BIM    C3031410   1.735   7.645   6.500 -0.0579  0.2096  0.3674
    5BIM    C3131411   1.529   7.672   6.378 -0.0722  0.1600  0.3805
    1BTD     S231412   4.060   3.158   2.836 -0.0995  0.2950  0.1375
    1BTD     N131413   4.202   3.105   2.934 -0.0945  0.2363  0.0983
    1BTD     N231414   4.156   3.267   2.730 -0.0815  0.2474  0.1042
    1BTD     N331415   4.606   3.395   2.690 -0.0361  0.0443 -0.0344
    1BTD     N431416   4.663   3.195   2.940 -0.0520  0.0307 -0.0416
    1BTD     C531417   4.442   3.155   2.934 -0.0721  0.1290  0.0253
    1BTD     C631418   4.308   3.169   2.885 -0.0806  0.1867  0.0641
    1BTD     C731419   4.282   3.259   2.771 -0.0733  0.1930  0.0675
    1BTD     C831420   4.391   3.332   2.712 -0.0581  0.1411  0.0317
    1BTD    C1531421   4.521   3.315   2.764 -0.0503  0.0856 -0.0057
    1BTD    C1631422   4.546   3.227   2.874 -0.0572  0.0796 -0.0089
    1BTD    C4331423   4.799   3.208   2.880  0.2784 -0.3783  0.5903
    1BTD    C4431424   4.922   3.216   2.962  0.0244  0.2558  0.0092
    1BTD    C4531425   4.939   3.335   3.064 -0.3096  0.8994 -0.3508
    1BTD    C4631426   5.051   3.352   3.166  0.0990  0.3041  0.7513
    1BTD    C4731427   5.055   3.195   2.887 -0.0717 -0.2500  0.7844
    1BTD    C4831428   5.084   3.066   2.802  0.2255 -0.1448 -0.2515
    1BTD    C4931429   5.232   3.069   2.763 -0.2113 -0.1326  0.2528
    1BTD    C5031430   5.272   2.929   2.715 -0.2459  0.2467  0.3373
    1BTD    C7531431   4.708   3.486   2.751  0.2067  0.0550  0.5202
    1BTD    C7631432   4.831   3.538   2.668 -0.1890 -0.3613 -0.2848
    1BTD    C7731433   4.921   3.641   2.740  0.2997 -0.0376  0.1569
    1BTD    C7831434   4.849   3.768   2.793  0.1545  0.3857 -0.2084
    1BTD    C7931435   4.911   3.420   2.616 -0.2668  0.0701 -0.3304
    1BTD    C8031436   5.042   3.434   2.523 -0.1415 -0.6323 -0.7497
    1BTD    C8131437   5.126   3.319   2.487  0.3189  0.0132  1.0151
    1BTD    C8231438   5.236   3.342   2.376  0.3596 -0.1587 -0.4100
    2TTP     S131439   4.439   2.990   3.188 -0.0380  0.1795  0.0946
    2TTP     S531440   4.864   3.040   3.225  0.0529 -0.2899 -0.2874
    2TTP     C131441   4.804   2.948   3.370  0.0275  0.0818 -0.0587
    2TTP     C231442   4.669   2.927   3.367 -0.0020  0.2487  0.0727
    2TTP     C331443   4.608   2.983   3.250 -0.0056  0.0890 -0.0024
    2TTP     C431444   4.499   3.082   3.043 -0.0125 -0.1922 -0.1341
    2TTP    C1731445   4.634   3.103   3.046  0.0170 -0.3590 -0.2654
    2TTP    C1831446   4.695   3.047   3.163  0.0206 -0.1993 -0.1903
    2TTP    C3231447   4.579   2.860   3.474 -0.1466 -0.3418  0.0236
    2TTP    C3331448   4.487   2.952   3.564 -0.2948 -0.6115  0.0315
    2TTP    C3431449   4.391   2.876   3.660  0.5003 -0.9155  0.6077
    2TTP    C3531450   4.270   2.953   3.711  0.3480 -0.3393  0.0600
    2TTP    C3631451   4.171   3.000   3.608  0.3505 -0.1878 -0.0703
    2TTP    C3731452   4.046   3.060   3.680 -0.0826 -0.6725  0.7692
    2TTP    C3831453   3.928   3.070   3.582  0.1013  0.5813  0.0765
    2TTP    C3931454   3.818   3.170   3.610  0.0715  0.5065 -0.0470
    2TTP    C4031455   3.693   3.148   3.533  0.1287 -0.0796 -0.3728
    2TTP    C4131456   3.585   3.259   3.555 -0.5919  1.1417  0.0632
    2TTP    C4231457   3.472   3.257   3.457 -0.0159 -0.0478 -0.5729
    3TTP     S131458   4.294   3.433   2.456 -0.3589 -0.0644 -0.2504
    3TTP     S531459   4.698   3.535   2.348 -0.1440 -0.2842  0.3346
    3TTP     C131460   4.593   3.550   2.200  0.0809 -0.2423  0.1776
    3TTP     C231461   4.462   3.519   2.225  0.0277 -0.1720 -0.0122
    3TTP     C331462   4.440   3.483   2.362 -0.1925 -0.1487 -0.0407
    3TTP     C431463   4.399   3.419   2.604 -0.5838 -0.1063 -0.0934
    3TTP    C1731464   4.530   3.450   2.579 -0.5306 -0.1766  0.0965
    3TTP    C1831465   4.552   3.486   2.443 -0.3105 -0.2000  0.1248
    3TTP    C3231466   4.338   3.531   2.141 -0.3806  0.1756  0.0779
    3TTP    C3331467   4.257   3.666   2.147  0.5469  0.3193 -0.5401
    3TTP    C3431468   4.142   3.679   2.243  0.3254 -0.4956  0.1187
    3TTP    C3531469   4.050   3.559   2.247  0.1364 -0.9128 -0.6445
    3TTP    C3631470   3.935   3.593   2.345  0.1750 -0.2414 -0.1225
    3TTP    C3731471   3.814   3.498   2.341  0.8120  0.6181 -0.4939
    3TTP    C3831472   3.816   3.360   2.415 -0.2161 -0.1986  0.4431
    3TTP    C3931473   3.861   3.365   2.561 -0.2640 -0.1222 -0.1102
    3TTP    C4031474   3.757   3.420   2.656  0.4766  0.2432 -0.2348
    3TTP    C4131475   3.804   3.420   2.801 -0.2668 -0.1484  0.4065
    3TTP    C4231476   3.941   3.483   2.836 -0.3201 -0.5119 -0.6092
    4BIM     F131477   5.550   3.134   3.656 -0.0960  0.3324  0.1169
    4BIM     F231478   5.503   2.966   3.866 -0.0060  0.1871  0.0207
    4BIM     O131479   5.088   3.080   3.378 -0.0354  0.1833  0.0446
    4BIM     N531480   5.108   2.687   3.968  0.1669 -0.1282 -0.1692
    4BIM     N631481   4.757   2.678   3.708  0.1963 -0.2155 -0.2063
    4BIM    C1931482   4.880   2.901   3.479  0.0723 -0.0086 -0.0730
    4BIM    C2031483   4.998   2.921   3.541  0.0535  0.0346 -0.0510
    4BIM    C2131484   5.100   3.015   3.483 -0.0023  0.1333  0.0098
    4BIM    C2231485   5.216   3.013   3.574 -0.0098  0.1586  0.0197
    4BIM    C2331486   5.335   3.085   3.562 -0.0552  0.2432  0.0698
    4BIM    C2431487   5.430   3.067   3.662 -0.0528  0.2508  0.0689
    4BIM    C2531488   5.405   2.980   3.770 -0.0061  0.1757  0.0192
    4BIM    C2631489   5.287   2.909   3.782  0.0392  0.0913 -0.0309
    4BIM    C2731490   5.190   2.926   3.682  0.0376  0.0822 -0.0308
    4BIM    C2831491   5.055   2.865   3.666  0.0783  0.0030 -0.0762
    4BIM    C2931492   4.995   2.775   3.751  0.1291 -0.0830 -0.1312
    4BIM    C3031493   5.057   2.727   3.870  0.1498 -0.1075 -0.1519
    4BIM    C3131494   4.864   2.723   3.727  0.1658 -0.1554 -0.1722
    5BIM     F131495   5.274   3.345   1.797 -0.2517 -0.2591 -0.0078
    5BIM     F231496   5.183   3.486   1.583  0.0346  0.1687  0.1486
    5BIM     O131497   4.865   3.412   2.146 -0.3865 -0.3291 -0.1525
    5BIM     N531498   4.760   3.736   1.523  0.3494  0.7340  0.2702
    5BIM     N631499   4.459   3.760   1.839  0.1864  0.5930  0.1255
    5BIM    C1931500   4.632   3.570   2.065 -0.1612  0.0547 -0.0546
    5BIM    C2031501   4.739   3.548   1.985 -0.1383  0.0557 -0.0242
    5BIM    C2131502   4.855   3.466   2.034 -0.2598 -0.1484 -0.0785
    5BIM    C2231503   4.952   3.461   1.924 -0.1981 -0.0905 -0.0264
    5BIM    C2331504   5.076   3.397   1.922 -0.2692 -0.2260 -0.0494
    5BIM    C2431505   5.151   3.406   1.806 -0.1883 -0.1343  0.0108
    5BIM    C2531506   5.104   3.479   1.696 -0.0409  0.0861  0.0913
    5BIM    C2631507   4.981   3.544   1.697  0.0308  0.2223  0.1146
    5BIM    C2731508   4.903   3.535   1.813 -0.0496  0.1325  0.0546
    5BIM    C2831509   4.770   3.591   1.847 -0.0070  0.2310  0.0591
    5BIM    C2931510   4.691   3.668   1.765  0.1285  0.4441  0.1275
    5BIM    C3031511   4.729   3.705   1.632  0.2495  0.6028  0.2057
    5BIM    C3131512   4.564   3.718   1.806  0.1596  0.5248  0.1259
    1BTD     S231513   9.500   7.628   7.337  0.0363 -0.1169  0.0809
    1BTD     N131514   9.532   7.804   7.338 -0.0868 -0.0958  0.4432
    1BTD     N231515   9.661   7.583   7.401  0.1678 -0.1556 -0.2704
    1BTD     N331516  10.049   7.811   7.536  0.2134 -0.1968 -0.3321
    1BTD     N431517   9.890   8.084   7.458 -0.1004 -0.1233  0.5473
    1BTD     C531518   9.721   7.947   7.402 -0.0899 -0.1110  0.4871
    1BTD     C631519   9.655   7.820   7.385 -0.0267 -0.1178  0.2915
    1BTD     C731520   9.728   7.696   7.420  0.1156 -0.1513 -0.1079
    1BTD     C831521   9.862   7.705   7.471  0.1876 -0.1763 -0.2921
    1BTD    C1531522   9.922   7.831   7.486  0.1216 -0.1685 -0.0895
    1BTD    C1631523   9.852   7.951   7.452 -0.0157 -0.1363  0.2955
    1BTD    C4331524  10.026   8.131   7.427  0.8081  0.5330 -0.0102
    1BTD    C4431525  10.094   8.262   7.465  0.4880  0.1818  0.0471
    1BTD    C4531526  10.242   8.284   7.424  0.1718  0.5867  0.6557
    1BTD    C4631527  10.266   8.248   7.277 -0.3795  0.3675 -0.4885
    1BTD    C4731528  10.068   8.298   7.620  0.6664  0.4021  0.4842
    1BTD    C4831529  10.103   8.436   7.659  0.4490 -0.7274 -0.3704
    1BTD    C4931530  10.118   8.451   7.812 -0.2200  0.6486  0.9563
    1BTD    C5031531  10.141   8.594   7.850  0.9295  0.0333 -0.0345
    1BTD    C7531532  10.116   7.902   7.632 -0.6892 -0.2549  0.0171
    1BTD    C7631533  10.270   7.905   7.646 -0.7168  0.5471 -0.5130
    1BTD    C7731534  10.319   7.990   7.769 -0.4394 -0.5020  0.2104
    1BTD    C7831535  10.261   7.938   7.899 -0.3040 -0.3681 -0.3120
    1BTD    C7931536  10.354   7.932   7.519  0.2925 -0.0564  0.0440
    1BTD    C8031537  10.507   7.947   7.519  0.3984  0.3615 -0.3981
    1BTD    C8131538  10.582   7.976   7.395 -0.7057  0.3435 -0.5302
    1BTD    C8231539  10.558   7.899   7.269 -0.2783  0.8384 -0.2286
    2TTP     S131540   9.529   8.167   7.332 -0.0941  0.1051  0.1475
    2TTP     S531541   9.809   8.461   7.474 -0.0975  0.1094  0.1442
    2TTP     C131542   9.656   8.546   7.425 -0.1380  0.0951  0.2472
    2TTP     C231543   9.560   8.460   7.378 -0.1397  0.0927  0.2542
    2TTP     C331544   9.605   8.324   7.379 -0.1085  0.1025  0.1787
    2TTP     C431545   9.682   8.082   7.380 -0.0536  0.1194  0.0447
    2TTP    C1731546   9.778   8.168   7.427 -0.0520  0.1216  0.0376
    2TTP    C1831547   9.734   8.304   7.426 -0.0830  0.1123  0.1132
    2TTP    C3231548   9.427   8.500   7.310  0.2199  0.6078  0.0758
    2TTP    C3331549   9.298   8.441   7.374  0.5668 -0.1604 -0.0687
    2TTP    C3431550   9.267   8.491   7.518 -0.0655 -0.7768 -0.2441
    2TTP    C3531551   9.258   8.641   7.534  0.7972 -0.1975  0.0795
    2TTP    C3631552   9.316   8.697   7.661 -0.2322  0.7266 -0.4161
    2TTP    C3731553   9.323   8.854   7.658  0.6238  0.6090  0.1580
    2TTP    C3831554   9.370   8.912   7.792  0.4311  0.2770  0.7875
    2TTP    C3931555   9.395   9.061   7.800  0.2412 -0.1223 -0.0176
    2TTP    C4031556   9.313   9.152   7.702 -1.1027  0.2713  0.4585
    2TTP    C4131557   9.318   9.290   7.769  0.2976 -0.1934 -0.1901
    2TTP    C4231558   9.261   9.400   7.685  0.1838  0.3063  0.0297
    3TTP     S131559   9.967   7.427   7.506 -0.0669 -0.0547 -0.2258
    3TTP     S531560  10.357   7.593   7.575 -0.0942 -0.2503  0.4140
    3TTP     C131561  10.372   7.412   7.565 -0.1522 -0.2502  0.3232
    3TTP     C231562  10.253   7.350   7.543 -0.1472 -0.1897  0.1202
    3TTP     C331563  10.145   7.443   7.533 -0.0973 -0.1414  0.0292
    3TTP     C431564   9.952   7.608   7.516 -0.0089 -0.0547 -0.1349
    3TTP    C1731565  10.071   7.670   7.538 -0.0140 -0.1152  0.0681
    3TTP    C1831566  10.179   7.577   7.547 -0.0638 -0.1637  0.1591
    3TTP    C3231567  10.208   7.213   7.569  0.0008  0.2447  0.5718
    3TTP    C3331568  10.163   7.131   7.443 -0.3867  0.2655 -0.1500
    3TTP    C3431569  10.098   6.996   7.470  0.3723  0.3638 -0.7524
    3TTP    C3531570   9.977   6.999   7.564 -0.3798  1.0781 -0.3096
    3TTP    C3631571   9.932   6.855   7.615 -0.3062 -0.6756 -0.1968
    3TTP    C3731572   9.805   6.858   7.701 -0.2699  0.1331 -0.1411
    3TTP    C3831573   9.773   6.715   7.744  0.2297  0.0890  0.0477
    3TTP    C3931574   9.653   6.697   7.835  0.0287 -0.1038  0.9269
    3TTP    C4031575   9.617   6.550   7.857  0.0550  0.0937  0.4581
    3TTP    C4131576   9.480   6.553   7.923  0.3295 -0.0220 -0.1389
    3TTP    C4231577   9.410   6.416   7.912  1.0389 -0.3556  0.3870
    4BIM     F131578   9.898   9.095   7.984  0.6623 -0.2038 -0.1010
    4BIM     F231579   9.805   9.292   7.821  0.2520 -0.0615  0.3002
    4BIM     O131580   9.759   8.654   7.702  0.3762  0.0520 -0.3616
    4BIM     N531581   9.573   9.261   7.385 -0.5417  0.3262  0.6911
    4BIM     N631582   9.484   8.877   7.197 -0.6826  0.4978  0.4066
    4BIM    C1931583   9.622   8.686   7.445 -0.1173  0.2793 -0.0708
    4BIM    C2031584   9.660   8.789   7.523 -0.0293  0.2096 -0.0210
    4BIM    C2131585   9.731   8.765   7.653  0.2264  0.0937 -0.1789
    4BIM    C2231586   9.758   8.897   7.711  0.2627  0.0403 -0.0741
    4BIM    C2331587   9.822   8.926   7.832  0.4712 -0.0670 -0.1577
    4BIM    C2431588   9.836   9.059   7.866  0.4624 -0.0990 -0.0282
    4BIM    C2531589   9.788   9.161   7.782  0.2508 -0.0250  0.1782
    4BIM    C2631590   9.725   9.133   7.662  0.0421  0.0820  0.2627
    4BIM    C2731591   9.709   8.998   7.625  0.0475  0.1159  0.1342
    4BIM    C2831592   9.647   8.936   7.506 -0.1403  0.2227  0.1749
    4BIM    C2931593   9.589   9.002   7.400 -0.3727  0.3159  0.3592
    4BIM    C3031594   9.580   9.144   7.392 -0.4647  0.3211  0.5410
    4BIM    C3131595   9.531   8.933   7.289 -0.5417  0.4156  0.3842
    5BIM     F131596  11.181   7.563   7.661 -0.0089  0.0476  0.2899
    5BIM     F231597  11.228   7.297   7.620  0.1777  0.1121  0.0813
    5BIM     O131598  10.642   7.578   7.622 -0.0180 -0.2961  0.2692
    5BIM     N531599  10.911   6.928   7.534  0.4394 -0.0403 -0.2329
    5BIM     N631600  10.479   6.994   7.512  0.3947 -0.3220 -0.2069
    5BIM    C1931601  10.494   7.331   7.570  0.1570 -0.3566  0.0628
    5BIM    C2031602  10.628   7.337   7.581  0.1520 -0.2729  0.0761
    5BIM    C2131603  10.697   7.468   7.608  0.0595 -0.2466  0.1847
    5BIM    C2231604  10.841   7.440   7.614  0.0791 -0.1514  0.1707
    5BIM    C2331605  10.945   7.530   7.637  0.0152 -0.0978  0.2489
    5BIM    C2431606  11.074   7.479   7.639  0.0504 -0.0093  0.2166
    5BIM    C2531607  11.098   7.342   7.618  0.1466  0.0236  0.1091
    5BIM    C2631608  10.995   7.252   7.595  0.2107 -0.0294  0.0306
    5BIM    C2731609  10.864   7.301   7.593  0.1764 -0.1192  0.0620
    5BIM    C2831610  10.734   7.233   7.572  0.2250 -0.1924 -0.0004
    5BIM    C2931611  10.715   7.099   7.548  0.3196 -0.1868 -0.1086
    5BIM    C3031612  10.822   7.005   7.541  0.3851 -0.1063 -0.1767
    5BIM    C3131613  10.585   7.042   7.528  0.3603 -0.2613 -0.1621
    1BTD     S231614   0.398   6.048   4.772  0.0284  0.2113  0.3010
    1BTD     N131615   0.229   6.004   4.732  0.0599  0.1925  0.1903
    1BTD     N231616   0.377   6.223   4.737  0.0894  0.1746  0.0826
    1BTD     N331617   0.027   6.500   4.590  0.2705  0.0658 -0.5621
    1BTD     N431618  -0.156   6.230   4.584  0.2341  0.0881 -0.4294
    1BTD     C531619   0.030   6.125   4.655  0.1513  0.1377 -0.1347
    1BTD     C631620   0.168   6.116   4.695  0.1116  0.1615  0.0058
    1BTD     C731621   0.251   6.239   4.698  0.1281  0.1513 -0.0544
    1BTD     C831622   0.192   6.364   4.660  0.1836  0.1180 -0.2524
    1BTD    C1531623   0.056   6.368   4.621  0.2211  0.0958 -0.3851
    1BTD    C1631624  -0.023   6.250   4.618  0.2048  0.1054 -0.3270
    1BTD    C4331625  -0.220   6.310   4.484 -0.5478  0.0390 -0.1551
    1BTD    C4431626  -0.372   6.322   4.478  0.3457 -0.3335  0.2403
    1BTD    C4531627  -0.417   6.400   4.347 -0.5633 -0.1405 -0.4064
    1BTD    C4631628  -0.378   6.351   4.206  0.3605  0.2879 -0.0904
    1BTD    C4731629  -0.437   6.373   4.604  0.0976 -0.0902 -0.9417
    1BTD    C4831630  -0.590   6.383   4.611  0.8802 -0.7606 -0.0873
    1BTD    C4931631  -0.661   6.417   4.740 -0.5146 -0.6285 -0.7682
    1BTD    C5031632  -0.617   6.553   4.800  0.3412 -0.0882 -0.2628
    1BTD    C7531633  -0.099   6.564   4.625 -0.0074 -0.0947  0.2291
    1BTD    C7631634  -0.168   6.685   4.561 -0.7075 -0.2368  0.3141
    1BTD    C7731635  -0.290   6.728   4.637  0.2638 -0.2323  0.0779
    1BTD    C7831636  -0.275   6.759   4.790  0.4308 -0.5103  0.3174
    1BTD    C7931637  -0.195   6.668   4.411 -0.3505 -0.7943 -0.0235
    1BTD    C8031638  -0.259   6.785   4.325  0.5375  0.0014 -0.4413
    1BTD    C8131639  -0.215   6.935   4.348  0.4800  0.0405  0.8907
    1BTD    C8231640  -0.281   7.040   4.261  0.5583  0.3796 -0.9369
    2TTP     S131641  -0.098   5.847   4.670  0.1134 -0.0566 -0.2879
    2TTP     S531642  -0.469   6.017   4.537  0.1655  0.3309  0.0592
    2TTP     C131643  -0.495   5.839   4.567  0.0776  0.3021 -0.1771
    2TTP     C231644  -0.381   5.776   4.610  0.0565  0.1807 -0.2983
    2TTP     C331645  -0.270   5.866   4.621  0.1090  0.1062 -0.2087
    2TTP     C431646  -0.072   6.024   4.640  0.2012 -0.0277 -0.0515
    2TTP    C1731647  -0.186   6.087   4.597  0.2226  0.0937  0.0696
    2TTP    C1831648  -0.297   5.998   4.587  0.1702  0.1683 -0.0198
    2TTP    C3231649  -0.346   5.627   4.633  0.6151  0.0520  0.0293
    2TTP    C3331650  -0.436   5.512   4.593 -0.5620 -0.3610  0.2752
    2TTP    C3431651  -0.366   5.378   4.600 -0.5887  0.1454  0.6801
    2TTP    C3531652  -0.448   5.248   4.575 -0.3133 -0.3200 -0.4010
    2TTP    C3631653  -0.381   5.114   4.596 -0.0580  0.4719  0.0082
    2TTP    C3731654  -0.253   5.089   4.521  0.6376 -0.2199 -0.0961
    2TTP    C3831655  -0.186   4.957   4.549  0.1319  0.5519 -0.0470
    2TTP    C3931656  -0.067   4.941   4.453 -0.4880  0.3177  0.3063
    2TTP    C4031657   0.031   4.830   4.482 -0.5736 -0.1880 -0.3323
    2TTP    C4131658   0.156   4.824   4.396 -0.4692 -0.3909 -0.1960
    2TTP    C4231659   0.156   4.792   4.251  0.5609 -0.0553  0.3898
    3TTP     S131660   0.404   6.575   4.656  0.2909 -0.1488 -0.4516
    3TTP     S531661   0.120   6.856   4.495  0.1392  0.0492  0.1580
    3TTP     C131662   0.284   6.934   4.498  0.1424  0.0450  0.0986
    3TTP     C231663   0.381   6.852   4.548  0.1894 -0.0165 -0.0927
    3TTP     C331664   0.330   6.724   4.586  0.2246 -0.0623 -0.1999
    3TTP     C431665   0.239   6.496   4.653  0.2877 -0.1445 -0.3924
    3TTP    C1731666   0.142   6.578   4.603  0.2407 -0.0831 -0.2006
    3TTP    C1831667   0.194   6.706   4.566  0.2055 -0.0372 -0.0937
    3TTP    C3231668   0.531   6.875   4.568  0.0395  0.3181 -0.7045
    3TTP    C3331669   0.626   6.783   4.504  0.1479  0.0130  0.2209
    3TTP    C3431670   0.624   6.765   4.348  1.2842  0.4282 -0.3546
    3TTP    C3531671   0.642   6.896   4.268  0.0349 -0.2766 -0.8016
    3TTP    C3631672   0.779   6.962   4.275  0.3163  0.4539  0.1709
    3TTP    C3731673   0.896   6.869   4.240 -0.2053  0.7171 -0.0816
    3TTP    C3831674   1.040   6.922   4.242  0.8914  0.9490 -0.0157
    3TTP    C3931675   1.089   6.927   4.386 -0.4538  0.4025  0.2743
    3TTP    C4031676   1.235   6.969   4.395 -0.0927 -0.3309 -0.0891
    3TTP    C4131677   1.266   7.117   4.362 -0.0931  0.3676  0.1125
    3TTP    C4231678   1.414   7.133   4.396  0.3239  0.2729 -0.3748
    4BIM     F131679  -1.189   5.991   4.158 -0.2716 -0.1149  0.1341
    4BIM     F231680  -1.312   5.801   4.309 -0.2065  0.0123  0.3464
    4BIM     O131681  -0.685   5.966   4.352 -0.1979  0.0795 -0.0299
    4BIM     N531682  -1.129   5.511   4.666 -0.0613  0.3344  0.5347
    4BIM     N631683  -0.710   5.529   4.787 -0.0172  0.4605  0.3638
    4BIM    C1931684  -0.623   5.775   4.565 -0.1101  0.2705  0.1146
    4BIM    C2031685  -0.745   5.789   4.511 -0.1309  0.2165  0.1476
    4BIM    C2131686  -0.769   5.889   4.401 -0.1762  0.1190  0.0685
    4BIM    C2231687  -0.911   5.878   4.365 -0.1893  0.0802  0.1308
    4BIM    C2331688  -0.980   5.951   4.268 -0.2286 -0.0081  0.0921
    4BIM    C2431689  -1.115   5.923   4.251 -0.2335 -0.0290  0.1666
    4BIM    C2531690  -1.178   5.825   4.330 -0.1999  0.0367  0.2761
    4BIM    C2631691  -1.110   5.752   4.426 -0.1607  0.1251  0.3150
    4BIM    C2731692  -0.974   5.779   4.445 -0.1554  0.1475  0.2408
    4BIM    C2831693  -0.874   5.721   4.537 -0.1183  0.2339  0.2556
    4BIM    C2931694  -0.897   5.622   4.630 -0.0794  0.3145  0.3510
    4BIM    C3031695  -1.025   5.561   4.649 -0.0696  0.3251  0.4517
    4BIM    C3131696  -0.794   5.571   4.716 -0.0455  0.3945  0.3575
    5BIM     F131697  -0.117   7.545   4.127 -0.2415  0.0908  0.0620
    5BIM     F231698   0.106   7.700   4.155 -0.1920  0.0588 -0.1467
    5BIM     O131699   0.052   7.081   4.349 -0.2086  0.1689  0.1999
    5BIM     N531700   0.545   7.591   4.354 -0.0975  0.0684 -0.3487
    5BIM     N631701   0.632   7.198   4.523 -0.0819  0.1359 -0.1988
    5BIM    C1931702   0.324   7.064   4.456 -0.1498  0.1661  0.0492
    5BIM    C2031703   0.273   7.175   4.398 -0.1599  0.1477  0.0228
    5BIM    C2131704   0.132   7.176   4.346 -0.1905  0.1504  0.1047
    5BIM    C2231705   0.109   7.311   4.291 -0.1944  0.1272  0.0496
    5BIM    C2331706  -0.007   7.359   4.232 -0.2191  0.1212  0.0926
    5BIM    C2431707  -0.005   7.491   4.187 -0.2177  0.0980  0.0246
    5BIM    C2531708   0.109   7.570   4.201 -0.1922  0.0818 -0.0828
    5BIM    C2631709   0.225   7.522   4.261 -0.1674  0.0876 -0.1264
    5BIM    C2731710   0.226   7.389   4.307 -0.1685  0.1110 -0.0589
    5BIM    C2831711   0.331   7.309   4.373 -0.1463  0.1228 -0.0795
    5BIM    C2931712   0.458   7.351   4.405 -0.1184  0.1128 -0.1752
    5BIM    C3031713   0.506   7.483   4.377 -0.1070  0.0885 -0.2701
    5BIM    C3131714   0.553   7.266   4.470 -0.0985  0.1255 -0.1878
    1BTD     S231715   3.947   5.380   1.932 -0.1415 -0.1722  0.0659
    1BTD     N131716   3.961   5.225   2.022 -0.0172  0.0362  0.4073
    1BTD     N231717   4.124   5.412   1.929 -0.1382 -0.2124 -0.3177
    1BTD     N331718   4.511   5.198   2.087  0.0932  0.0821 -0.4830
    1BTD     N431719   4.311   4.968   2.201  0.2420  0.3884  0.4103
    1BTD     C531720   4.146   5.094   2.114  0.1165  0.2162  0.3981
    1BTD     C631721   4.091   5.206   2.044  0.0185  0.0635  0.2270
    1BTD     C731722   4.182   5.311   1.993 -0.0490 -0.0755 -0.1787
    1BTD     C831723   4.323   5.298   2.013 -0.0155 -0.0550 -0.3932
    1BTD    C1531724   4.373   5.185   2.082  0.0808  0.0966 -0.2140
    1BTD    C1631725   4.286   5.085   2.132  0.1460  0.2309  0.1771
    1BTD    C4331726   4.419   4.872   2.199  0.2826 -0.6012 -0.2228
    1BTD    C4431727   4.413   4.765   2.093 -0.5834  0.2102 -0.6579
    1BTD    C4531728   4.516   4.647   2.125  0.2679 -0.0969 -0.0091
    1BTD    C4631729   4.505   4.589   2.268  0.2751  0.3865  0.9936
    1BTD    C4731730   4.439   4.822   1.955  0.7697 -0.8672 -0.2320
    1BTD    C4831731   4.410   4.741   1.828  0.3963 -0.4150  0.5387
    1BTD    C4931732   4.498   4.790   1.713  0.7123 -0.2254 -0.3679
    1BTD    C5031733   4.482   4.712   1.582 -0.1270  0.3726 -0.0526
    1BTD    C7531734   4.591   5.144   2.204 -0.0640 -0.2182  0.6800
    1BTD    C7631735   4.737   5.098   2.184  0.1891  0.0522 -0.5901
    1BTD    C7731736   4.751   4.980   2.082  0.5480  0.0424 -0.2178
    1BTD    C7831737   4.891   4.937   2.036  0.4546 -0.3626 -0.5225
    1BTD    C7931738   4.830   5.084   2.307 -0.3337 -0.2962 -0.7934
    1BTD    C8031739   4.843   5.198   2.414 -0.2899  0.6215 -0.0123
    1BTD    C8131740   4.861   5.336   2.361  0.0439 -0.5841  0.4232
    1BTD    C8231741   4.870   5.440   2.477 -0.2593  0.0305  0.4301
    2TTP     S131742   3.925   4.936   2.235  0.2895  0.2779 -0.1829
    2TTP     S531743   4.218   4.709   2.452 -0.0515  0.3493  0.3572
    2TTP     C131744   4.053   4.666   2.516 -0.1689  0.2139 -0.0332
    2TTP     C231745   3.953   4.734   2.452 -0.0706  0.1838 -0.2230
    2TTP     C331746   4.003   4.822   2.351  0.1011  0.2667 -0.0670
    2TTP     C431747   4.090   4.979   2.172  0.4071  0.4132  0.2074
    2TTP    C1731748   4.190   4.911   2.235  0.3086  0.4433  0.3973
    2TTP    C1831749   4.140   4.823   2.336  0.1370  0.3604  0.2412
    2TTP    C3231750   3.801   4.722   2.474 -0.6450 -1.0525  0.3303
    2TTP    C3331751   3.710   4.678   2.356 -0.4176 -0.6064  0.3158
    2TTP    C3431752   3.727   4.547   2.283  0.8071  0.0348  0.3803
    2TTP    C3531753   3.677   4.421   2.356 -0.4254 -0.3677  0.6022
    2TTP    C3631754   3.527   4.410   2.365 -0.5089  0.9515  0.0329
    2TTP    C3731755   3.475   4.284   2.430 -0.4229  0.0903 -0.1951
    2TTP    C3831756   3.518   4.259   2.573  0.7464  0.4311 -0.6480
    2TTP    C3931757   3.462   4.132   2.637 -0.1178  0.0825  0.3403
    2TTP    C4031758   3.522   4.092   2.768  0.1766  0.2239 -0.4287
    2TTP    C4131759   3.421   3.995   2.832  0.6766 -0.6060 -0.3030
    2TTP    C4231760   3.471   3.910   2.946 -0.1209 -0.3194 -0.0635
    3TTP     S131761   4.474   5.509   1.858 -0.2490  0.2178  0.0325
    3TTP     S531762   4.839   5.294   1.934 -0.2360  0.1632 -0.1813
    3TTP     C131763   4.874   5.427   1.814 -0.2438  0.2852 -0.0496
    3TTP     C231764   4.763   5.501   1.783 -0.2484  0.3092  0.0241
    3TTP     C331765   4.647   5.456   1.853 -0.2458  0.2321 -0.0206
    3TTP     C431766   4.439   5.377   1.978 -0.2412  0.0956 -0.0991
    3TTP    C1731767   4.550   5.303   2.008 -0.2366  0.0716 -0.1729
    3TTP    C1831768   4.666   5.348   1.938 -0.2394  0.1488 -0.1281
    3TTP    C3231769   4.748   5.616   1.686  0.2658  0.1055  0.2045
    3TTP    C3331770   4.709   5.566   1.547  0.0483 -0.1197  0.3259
    3TTP    C3431771   4.735   5.672   1.433  0.3313  0.1871 -0.7966
    3TTP    C3531772   4.876   5.703   1.390  0.5269 -0.8702  0.4446
    3TTP    C3631773   4.981   5.590   1.372 -0.3264  0.3116 -0.1703
    3TTP    C3731774   4.964   5.488   1.261 -0.6549 -0.5283 -0.0229
    3TTP    C3831775   5.039   5.349   1.269 -0.1451  0.3188 -0.1058
    3TTP    C3931776   5.029   5.261   1.395  0.1024  0.2983 -0.1085
    3TTP    C4031777   4.891   5.215   1.433 -0.5530  0.6544  0.0128
    3TTP    C4131778   4.891   5.109   1.549  0.4957  0.3388 -0.1308
    3TTP    C4231779   4.747   5.076   1.595 -0.6659  0.6601  0.5814
    4BIM     F131780   4.463   4.088   2.934 -0.0027 -0.0094  0.1554
    4BIM     F231781   4.230   4.018   3.055 -0.0323 -0.0018  0.1026
    4BIM     O131782   4.297   4.493   2.616  0.1036  0.0721  0.2037
    4BIM     N531783   3.775   4.207   3.001  0.0008  0.0670  0.0612
    4BIM     N631784   3.693   4.538   2.728  0.0899  0.1293  0.1095
    4BIM    C1931785   4.015   4.571   2.618  0.1132  0.1082  0.1703
    4BIM    C2031786   4.066   4.471   2.693  0.0875  0.0874  0.1603
    4BIM    C2131787   4.212   4.438   2.687  0.0844  0.0697  0.1786
    4BIM    C2231788   4.234   4.326   2.781  0.0540  0.0492  0.1613
    4BIM    C2331789   4.353   4.260   2.809  0.0410  0.0285  0.1692
    4BIM    C2431790   4.349   4.157   2.902  0.0118  0.0116  0.1490
    4BIM    C2531791   4.228   4.122   2.964 -0.0034  0.0156  0.1218
    4BIM    C2631792   4.109   4.187   2.936  0.0095  0.0362  0.1138
    4BIM    C2731793   4.111   4.291   2.842  0.0389  0.0535  0.1339
    4BIM    C2831794   4.003   4.379   2.791  0.0590  0.0771  0.1322
    4BIM    C2931795   3.871   4.376   2.827  0.0522  0.0875  0.1091
    4BIM    C3031796   3.819   4.283   2.923  0.0240  0.0762  0.0828
    4BIM    C3131797   3.773   4.465   2.772  0.0730  0.1104  0.1094
    5BIM     F131798   5.605   5.047   1.747  0.1024  0.1651 -0.0730
    5BIM     F231799   5.715   5.288   1.685  0.1094  0.1483 -0.1275
    5BIM     O131800   5.083   5.181   1.797  0.1292  0.2224  0.0580
    5BIM     N531801   5.500   5.731   1.632  0.1384  0.1647 -0.1126
    5BIM     N631802   5.070   5.787   1.683  0.1581  0.2129  0.0007
    5BIM    C1931803   5.002   5.459   1.755  0.1456  0.2267  0.0523
    5BIM    C2031804   5.129   5.416   1.745  0.1384  0.2129  0.0215
    5BIM    C2131805   5.163   5.271   1.768  0.1304  0.2116  0.0268
    5BIM    C2231806   5.309   5.259   1.749  0.1240  0.1953 -0.0123
    5BIM    C2331807   5.386   5.144   1.760  0.1158  0.1885 -0.0222
    5BIM    C2431808   5.523   5.157   1.738  0.1107  0.1726 -0.0612
    5BIM    C2531809   5.579   5.281   1.706  0.1144  0.1640 -0.0892
    5BIM    C2631810   5.502   5.396   1.695  0.1228  0.1706 -0.0796
    5BIM    C2731811   5.364   5.385   1.717  0.1278  0.1866 -0.0403
    5BIM    C2831812   5.256   5.487   1.713  0.1369  0.1972 -0.0206
    5BIM    C2931813   5.270   5.621   1.686  0.1425  0.1930 -0.0381
    5BIM    C3031814   5.396   5.681   1.656  0.1402  0.1775 -0.0790
    5BIM    C3131815   5.160   5.711   1.684  0.1509  0.2038 -0.0167
    1BTD     S231816   8.209   9.298   8.679 -0.2040 -0.1120 -0.1808
    1BTD     N131817   8.325   9.205   8.781 -0.3128  0.1855  0.2189
    1BTD     N231818   8.077   9.177   8.693 -0.0052 -0.3650 -0.4849
    1BTD     N331819   8.017   8.762   8.904  0.2034 -0.3436 -0.3829
    1BTD     N431820   8.322   8.797   9.013 -0.1755  0.3347  0.4842
    1BTD     C531821   8.320   8.992   8.901 -0.2370  0.2553  0.3471
    1BTD     C631822   8.262   9.094   8.818 -0.2012  0.0858  0.1106
    1BTD     C731823   8.124   9.078   8.769 -0.0288 -0.2220 -0.2832
    1BTD     C831824   8.049   8.960   8.805  0.0992 -0.3457 -0.4210
    1BTD    C1531825   8.110   8.863   8.886  0.0587 -0.1718 -0.1796
    1BTD    C1631826   8.243   8.878   8.934 -0.1076  0.1253  0.1999
    1BTD    C4331827   8.320   8.647   9.025  0.6258 -0.0113 -0.5771
    1BTD    C4431828   8.383   8.564   8.917 -0.7927 -0.0720  0.7318
    1BTD    C4531829   8.336   8.602   8.780 -0.1695  0.1884  0.6224
    1BTD    C4631830   8.422   8.551   8.668 -0.0572  0.8455  0.2181
    1BTD    C4731831   8.414   8.413   8.945 -0.2054 -0.2585 -0.4621
    1BTD    C4831832   8.300   8.319   8.925 -0.3249  0.6899 -0.4899
    1BTD    C4931833   8.347   8.176   8.945  0.0282  0.2271  0.1471
    1BTD    C5031834   8.243   8.082   8.902  0.1726  0.6568 -0.3282
    1BTD    C7531835   8.005   8.690   9.036  0.3766  0.0655 -0.8427
    1BTD    C7631836   7.926   8.568   9.074  0.5915 -0.5315 -0.2380
    1BTD    C7731837   7.913   8.561   9.226 -0.1187 -0.7371 -0.1235
    1BTD    C7831838   8.036   8.537   9.308  0.2585  0.3058  0.0081
    1BTD    C7931839   7.958   8.445   8.994  0.4570 -0.0072  0.1826
    1BTD    C8031840   7.865   8.330   9.009  0.3936  0.4322  0.1804
    1BTD    C8131841   7.896   8.240   8.891 -0.3476  0.7247  0.3702
    1BTD    C8231842   7.808   8.115   8.879 -0.9230  0.0989 -0.1952
    2TTP     S131843   8.613   9.053   8.980 -0.1222 -0.0048 -0.0302
    2TTP     S531844   8.625   8.682   9.197 -0.1376 -0.0396 -0.0889
    2TTP     C131845   8.786   8.765   9.215 -0.1634 -0.0077 -0.0032
    2TTP     C231846   8.791   8.885   9.149 -0.1602  0.0050  0.0200
    2TTP     C331847   8.669   8.915   9.082 -0.1371 -0.0103 -0.0293
    2TTP     C431848   8.452   8.970   8.962 -0.0963 -0.0367 -0.1161
    2TTP    C1731849   8.446   8.851   9.028 -0.0994 -0.0498 -0.1390
    2TTP    C1831850   8.568   8.821   9.095 -0.1228 -0.0343 -0.0901
    2TTP    C3231851   8.902   8.986   9.141 -0.4488  0.5642  0.5108
    2TTP    C3331852   8.998   8.978   9.016 -0.3609 -0.6035 -0.4952
    2TTP    C3431853   9.127   9.058   9.043  0.0570  0.2606  0.1405
    2TTP    C3531854   9.110   9.208   9.040 -0.1499 -0.1272 -0.1727
    2TTP    C3631855   9.232   9.290   9.077  0.0453 -0.6312 -0.2342
    2TTP    C3731856   9.240   9.421   9.000 -1.0298 -1.0591 -0.1933
    2TTP    C3831857   9.365   9.499   9.052 -0.1080 -0.1006 -0.0452
    2TTP    C3931858   9.435   9.604   8.960  0.1395  0.3430 -1.0537
    2TTP    C4031859   9.342   9.699   8.896  0.0679  0.1355  0.2048
    2TTP    C4131860   9.428   9.807   8.834 -0.6937 -0.0855 -0.6138
    2TTP    C4231861   9.351   9.930   8.815  0.6741  0.8694  0.1942
    3TTP     S131862   7.775   8.979   8.687 -0.1473  0.1304 -0.0914
    3TTP     S531863   7.695   8.577   8.817  0.1943  0.1209  0.0899
    3TTP     C131864   7.556   8.634   8.715  0.0675  0.0169  0.2047
    3TTP     C231865   7.572   8.761   8.669 -0.0453  0.0138  0.1557
    3TTP     C331866   7.695   8.819   8.712 -0.0359  0.0932  0.0253
    3TTP     C431867   7.914   8.923   8.789 -0.0206  0.2344 -0.2060
    3TTP    C1731868   7.898   8.795   8.835  0.0924  0.2374 -0.1570
    3TTP    C1831869   7.775   8.737   8.792  0.0830  0.1581 -0.0269
    3TTP    C3231870   7.495   8.844   8.569  0.5592 -0.1061  0.2048
    3TTP    C3331871   7.432   8.973   8.621 -0.6895  0.2181 -0.5402
    3TTP    C3431872   7.342   9.047   8.515 -0.0043  1.5182  0.0918
    3TTP    C3531873   7.308   9.185   8.563 -0.4966 -0.2118 -0.6205
    3TTP    C3631874   7.214   9.259   8.467 -0.1300  0.6436 -0.0833
    3TTP    C3731875   7.198   9.408   8.482 -0.2187  0.7498 -0.7219
    3TTP    C3831876   7.326   9.495   8.469  0.6748  0.1840 -0.2198
    3TTP    C3931877   7.296   9.643   8.472 -0.3004 -0.3260  0.3082
    3TTP    C4031878   7.401   9.745   8.423  0.5190 -0.1322  0.2448
    3TTP    C4131879   7.528   9.717   8.508 -0.4737  0.0526  0.1174
    3TTP    C4231880   7.653   9.781   8.443  0.4485  0.2207  0.5211
    4BIM     F131881   8.988   7.997   9.425 -0.1121 -0.0402  0.2224
    4BIM     F231882   9.221   8.094   9.529  0.0923 -0.0944 -0.1807
    4BIM     O131883   8.758   8.454   9.247 -0.2692  0.0010  0.5300
    4BIM     N531884   9.390   8.558   9.550  0.2735 -0.1431 -0.5414
    4BIM     N631885   9.163   8.895   9.390  0.1097 -0.0997 -0.2203
    4BIM    C1931886   8.898   8.708   9.282 -0.1301 -0.0361  0.2537
    4BIM    C2031887   8.947   8.590   9.323 -0.0985 -0.0443  0.1922
    4BIM    C2131888   8.869   8.463   9.301 -0.1745 -0.0243  0.3431
    4BIM    C2231889   8.950   8.353   9.357 -0.1149 -0.0398  0.2260
    4BIM    C2331890   8.919   8.218   9.360 -0.1519 -0.0298  0.2999
    4BIM    C2431891   9.012   8.133   9.419 -0.0805 -0.0487  0.1597
    4BIM    C2531892   9.132   8.183   9.472  0.0244 -0.0765 -0.0479
    4BIM    C2631893   9.163   8.318   9.469  0.0622 -0.0868 -0.1225
    4BIM    C2731894   9.070   8.406   9.411 -0.0091 -0.0679  0.0169
    4BIM    C2831895   9.073   8.553   9.392  0.0052 -0.0718 -0.0119
    4BIM    C2931896   9.174   8.638   9.430  0.0968 -0.0966 -0.1938
    4BIM    C3031897   9.292   8.594   9.496  0.1936 -0.1218 -0.3843
    4BIM    C3131898   9.167   8.779   9.408  0.1035 -0.0982 -0.2072
    5BIM     F131899   7.280   7.891   8.931  0.0856  0.0995  0.1891
    5BIM     F231900   7.032   7.964   8.846  0.0321  0.0336  0.2880
    5BIM     O131901   7.562   8.339   8.818  0.0013  0.0379 -0.2725
    5BIM     N531902   6.876   8.389   8.645 -0.1050 -0.1044  0.1013
    5BIM     N631903   7.147   8.724   8.574 -0.1601 -0.1392 -0.2797
    5BIM    C1931904   7.426   8.568   8.698 -0.0799 -0.0466 -0.3421
    5BIM    C2031905   7.364   8.452   8.729 -0.0566 -0.0286 -0.2298
    5BIM    C2131906   7.441   8.339   8.791 -0.0151  0.0150 -0.2012
    5BIM    C2231907   7.345   8.230   8.812  0.0018  0.0250 -0.0720
    5BIM    C2331908   7.370   8.104   8.867  0.0396  0.0618 -0.0043
    5BIM    C2431909   7.262   8.017   8.877  0.0488  0.0638  0.1165
    5BIM    C2531910   7.135   8.055   8.834  0.0213  0.0303  0.1676
    5BIM    C2631911   7.109   8.180   8.779 -0.0163 -0.0069  0.1006
    5BIM    C2731912   7.217   8.270   8.768 -0.0265 -0.0098 -0.0222
    5BIM    C2831913   7.223   8.408   8.715 -0.0634 -0.0436 -0.1173
    5BIM    C2931914   7.119   8.481   8.663 -0.0976 -0.0820 -0.1032
    5BIM    C3031915   6.986   8.430   8.653 -0.1016 -0.0942  0.0091
    5BIM    C3131916   7.135   8.614   8.615 -0.1317 -0.1132 -0.2003
    1BTD     S231917   5.446   5.189   1.315 -0.0341  0.1701  0.0438
    1BTD     N131918   5.360   5.257   1.172 -0.3599  0.2731  0.2852
    1BTD     N231919   5.540   5.339   1.348  0.2279  0.0634 -0.2095
    1BTD     N331920   5.578   5.766   1.158  0.1736  0.0327 -0.2901
    1BTD     N431921   5.356   5.666   0.941 -0.5506  0.2908  0.3196
    1BTD     C531922   5.361   5.472   1.054 -0.4506  0.2793  0.2958
    1BTD     C631923   5.404   5.381   1.157 -0.2615  0.2253  0.1704
    1BTD     C731924   5.505   5.427   1.256  0.0675  0.1079 -0.1065
    1BTD     C831925   5.557   5.561   1.246  0.1909  0.0505 -0.2442
    1BTD    C1531926   5.512   5.646   1.143 -0.0029  0.1067 -0.1136
    1BTD    C1631927   5.415   5.602   1.048 -0.3198  0.2197  0.1533
    1BTD    C4331928   5.439   5.750   0.846  0.2547  0.0524 -0.5667
    1BTD    C4431929   5.393   5.862   0.757  0.0443  1.1616  0.5999
    1BTD    C4531930   5.508   5.906   0.659  0.3305 -0.4361 -0.4585
    1BTD    C4631931   5.626   5.982   0.727  0.3555 -0.2117  0.1328
    1BTD    C4731932   5.323   5.969   0.838  0.0892  0.2160  0.0156
    1BTD    C4831933   5.295   6.105   0.765 -0.1366  0.1920 -0.3865
    1BTD    C4931934   5.207   6.084   0.650  0.8490 -0.8903  0.0448
    1BTD    C5031935   5.125   6.221   0.642  0.3079 -0.3323  0.3642
    1BTD    C7531936   5.519   5.901   1.121 -0.7503  0.1685  0.4214
    1BTD    C7631937   5.435   5.977   1.223  0.1125 -0.4915 -0.0940
    1BTD    C7731938   5.329   5.889   1.296 -0.3156  0.2399  0.2617
    1BTD    C7831939   5.260   5.951   1.413 -0.3731 -0.5849  0.4346
    1BTD    C7931940   5.381   6.116   1.170 -0.0643  0.1120  0.1096
    1BTD    C8031941   5.467   6.223   1.117 -0.5965  0.3414 -0.5804
    1BTD    C8131942   5.594   6.265   1.196 -0.6300  0.1159  0.5757
    1BTD    C8231943   5.691   6.357   1.123 -0.3693 -0.4616 -0.0850
    2TTP     S131944   5.146   5.343   0.889  0.1899 -0.0733  0.0389
    2TTP     S531945   5.097   5.710   0.671  0.1838  0.0671  0.2758
    2TTP     C131946   4.973   5.591   0.612  0.2244  0.0828  0.1569
    2TTP     C231947   4.981   5.471   0.676  0.2288  0.0404  0.0767
    2TTP     C331948   5.085   5.468   0.774  0.2000 -0.0061  0.1063
    2TTP     C431949   5.270   5.462   0.948  0.1493 -0.0890  0.1578
    2TTP    C1731950   5.263   5.583   0.884  0.1450 -0.0466  0.2380
    2TTP    C1831951   5.158   5.585   0.786  0.1736 -0.0002  0.2084
    2TTP    C3231952   4.880   5.354   0.672 -0.4641 -0.2390  0.0249
    2TTP    C3331953   4.931   5.214   0.645 -0.9701 -0.8156 -0.0125
    2TTP    C3431954   4.823   5.118   0.657 -0.1222  0.4783 -0.6150
    2TTP    C3531955   4.868   4.973   0.659 -0.3372  0.8116  0.7952
    2TTP    C3631956   4.754   4.869   0.657 -0.1397  0.3352 -0.1753
    2TTP    C3731957   4.797   4.719   0.676 -0.0926 -0.4003  0.0268
    2TTP    C3831958   4.666   4.630   0.701 -0.6855  0.0158  0.2713
    2TTP    C3931959   4.688   4.502   0.783 -0.2575  0.1055  0.4426
    2TTP    C4031960   4.560   4.419   0.781  0.9333 -0.2144  0.6562
    2TTP    C4131961   4.575   4.278   0.831  0.4890 -0.4231 -0.0093
    2TTP    C4231962   4.441   4.223   0.863 -0.1379 -0.4825  0.0283
    3TTP     S131963   5.773   5.608   1.458  0.0197  0.0965 -0.2293
    3TTP     S531964   5.831   6.004   1.302  0.0403  0.1885  0.0097
    3TTP     C131965   5.948   5.978   1.438 -0.0297  0.1362  0.0599
    3TTP     C231966   5.937   5.854   1.495 -0.0401  0.1048 -0.0110
    3TTP     C331967   5.836   5.775   1.432  0.0067  0.1209 -0.1074
    3TTP     C431968   5.656   5.634   1.322  0.0896  0.1489 -0.2795
    3TTP    C1731969   5.667   5.758   1.265  0.1000  0.1804 -0.2086
    3TTP    C1831970   5.768   5.837   1.328  0.0532  0.1644 -0.1122
    3TTP    C3231971   6.021   5.797   1.611 -0.1539  0.3643  0.1922
    3TTP    C3331972   5.944   5.746   1.726 -0.2405  0.5858 -0.6687
    3TTP    C3431973   6.035   5.697   1.843 -0.5708  0.2470  0.2874
    3TTP    C3531974   5.946   5.643   1.961 -0.0436 -0.1311 -0.1432
    3TTP    C3631975   6.021   5.598   2.086  0.0433  0.2281  0.2387
    3TTP    C3731976   6.125   5.494   2.060 -0.3581  0.0649  0.2155
    3TTP    C3831977   6.206   5.466   2.180 -0.4319 -0.6249 -0.4549
    3TTP    C3931978   6.339   5.389   2.154  0.0629  0.1112  0.0861
    3TTP    C4031979   6.370   5.281   2.259 -0.1155 -0.5510 -0.4013
    3TTP    C4131980   6.269   5.175   2.291  0.0168 -0.9534  0.0125
    3TTP    C4231981   6.307   5.074   2.400 -0.0718 -0.2556  0.1934
    4BIM     F131982   4.721   6.231   0.149 -0.3909  0.0857  0.1229
    4BIM     F231983   4.599   6.053  -0.017  0.0587  0.0080 -0.1295
    4BIM     O131984   4.921   5.897   0.525 -0.5580  0.1690  0.2859
    4BIM     N531985   4.565   5.560   0.012  0.5859 -0.0440 -0.3762
    4BIM     N631986   4.746   5.335   0.340  0.3648  0.0367 -0.1979
    4BIM    C1931987   4.875   5.609   0.500 -0.1877  0.1247  0.1026
    4BIM    C2031988   4.830   5.700   0.412 -0.1633  0.1066  0.0715
    4BIM    C2131989   4.858   5.846   0.432 -0.3617  0.1316  0.1711
    4BIM    C2231990   4.794   5.916   0.319 -0.2767  0.1028  0.1053
    4BIM    C2331991   4.793   6.053   0.294 -0.3983  0.1116  0.1582
    4BIM    C2431992   4.726   6.096   0.180 -0.2812  0.0792  0.0769
    4BIM    C2531993   4.663   6.005   0.094 -0.0495  0.0391 -0.0531
    4BIM    C2631994   4.664   5.868   0.119  0.0728  0.0300 -0.1065
    4BIM    C2731995   4.731   5.823   0.234 -0.0428  0.0626 -0.0257
    4BIM    C2831996   4.750   5.686   0.288  0.0361  0.0633 -0.0516
    4BIM    C2931997   4.704   5.569   0.233  0.2526  0.0304 -0.1677
    4BIM    C3031998   4.628   5.565   0.112  0.4351 -0.0105 -0.2819
    4BIM    C3131999   4.727   5.441   0.292  0.3130  0.0342 -0.1836
    5BIM     F132000   6.202   6.736   1.242 -0.0519 -0.1187 -0.0538
    5BIM     F232001   6.400   6.712   1.426  0.0573 -0.0477 -0.1620
    5BIM     O132002   5.953   6.258   1.296  0.0175 -0.1227  0.2331
    5BIM     N532003   6.507   6.337   1.731  0.2640  0.0516 -0.1130
    5BIM     N632004   6.273   5.969   1.736  0.2964  0.0341  0.1329
    5BIM    C1932005   6.054   6.066   1.492  0.1466 -0.0563  0.2317
    5BIM    C2032006   6.109   6.187   1.471  0.1249 -0.0582  0.1637
    5BIM    C2132007   6.051   6.280   1.368  0.0579 -0.0931  0.1694
    5BIM    C2232008   6.134   6.402   1.371  0.0498 -0.0855  0.0849
    5BIM    C2332009   6.119   6.517   1.294 -0.0041 -0.1097  0.0592
    5BIM    C2432010   6.210   6.620   1.315 -0.0003 -0.0962 -0.0242
    5BIM    C2532011   6.312   6.607   1.410  0.0562 -0.0596 -0.0798
    5BIM    C2632012   6.327   6.493   1.488  0.1101 -0.0353 -0.0547
    5BIM    C2732013   6.236   6.388   1.468  0.1073 -0.0486  0.0296
    5BIM    C2832014   6.225   6.255   1.533  0.1556 -0.0302  0.0758
    5BIM    C2932015   6.306   6.205   1.632  0.2170  0.0057  0.0433
    5BIM    C3032016   6.417   6.278   1.686  0.2426  0.0309 -0.0426
    5BIM    C3132017   6.288   6.075   1.689  0.2602  0.0212  0.0928
    1BTD     S232018   1.164   3.430   7.917  0.1411  0.2104  0.0932
    1BTD     N132019   1.304   3.445   8.028  0.1220  0.0659  0.1383
    1BTD     N232020   1.161   3.250   7.922 -0.0128  0.2108  0.0519
    1BTD     N332021   1.410   2.912   8.133 -0.3608 -0.0491  0.0482
    1BTD     N432022   1.586   3.153   8.264 -0.1947 -0.2277  0.1550
    1BTD     C532023   1.449   3.290   8.150 -0.0453 -0.0852  0.1457
    1BTD     C632024   1.340   3.322   8.062  0.0078  0.0274  0.1209
    1BTD     C732025   1.260   3.213   8.002 -0.0676  0.1085  0.0727
    1BTD     C832026   1.294   3.076   8.034 -0.1924  0.0730  0.0510
    1BTD    C1532027   1.401   3.050   8.120 -0.2406 -0.0383  0.0767
    1BTD    C1632028   1.478   3.155   8.178 -0.1680 -0.1163  0.1237
    1BTD    C4332029   1.697   3.053   8.254 -0.0697  0.3403 -0.1577
    1BTD    C4432030   1.803   3.033   8.369  0.2403  0.0645 -0.2969
    1BTD    C4532031   1.922   2.944   8.321 -0.3335 -0.3665 -0.9002
    1BTD    C4632032   1.988   2.981   8.196 -0.0923 -0.4206  0.3611
    1BTD    C4732033   1.728   2.981   8.491 -0.1037 -0.3565 -0.0243
    1BTD    C4832034   1.808   2.944   8.615  0.3212 -0.0478 -0.5947
    1BTD    C4932035   1.725   2.914   8.744 -0.1739  0.0894 -0.4247
    1BTD    C5032036   1.808   2.877   8.866 -0.2064 -0.1654  0.1720
    1BTD    C7532037   1.462   2.837   8.243 -0.4436  0.7345 -0.9303
    1BTD    C7632038   1.524   2.691   8.226  0.7108 -0.5495  0.4502
    1BTD    C7732039   1.627   2.701   8.109 -0.1463  0.1805 -0.4443
    1BTD    C7832040   1.665   2.565   8.045 -0.0835  0.3149  0.3611
    1BTD    C7932041   1.571   2.600   8.346 -0.3548 -0.3632  0.4420
    1BTD    C8032042   1.481   2.580   8.466 -0.2466 -0.2640 -1.0437
    1BTD    C8132043   1.456   2.701   8.561  0.4701 -0.4194  0.0410
    1BTD    C8232044   1.329   2.685   8.642 -0.0436 -0.5367  0.2543
    2TTP     S132045   1.549   3.543   8.277  0.2436  0.1373 -0.1508
    2TTP     S532046   1.800   3.317   8.543 -0.0575  0.0018  0.0188
    2TTP     C132047   1.808   3.492   8.590 -0.0608 -0.0138  0.0775
    2TTP     C232048   1.731   3.573   8.511  0.0320  0.0271  0.0284
    2TTP     C332049   1.663   3.499   8.410  0.1090  0.0722 -0.0570
    2TTP     C432050   1.540   3.368   8.229  0.2469  0.1529 -0.2096
    2TTP    C1732051   1.617   3.288   8.308  0.1541  0.1121 -0.1602
    2TTP    C1832052   1.686   3.362   8.410  0.0770  0.0669 -0.0749
    2TTP    C3232053   1.697   3.719   8.521 -0.1404 -0.0539  0.9704
    2TTP    C3332054   1.752   3.819   8.417  0.0085 -0.1508 -0.1884
    2TTP    C3432055   1.728   3.961   8.461  0.4469 -0.0138 -0.1230
    2TTP    C3532056   1.749   4.074   8.355  0.0145  0.4957  0.2252
    2TTP    C3632057   1.692   4.216   8.394 -0.9983  0.4885  0.1457
    2TTP    C3732058   1.711   4.315   8.282 -0.7471 -0.7870 -0.8927
    2TTP    C3832059   1.645   4.452   8.321 -0.6152  0.0234  0.3251
    2TTP    C3932060   1.670   4.559   8.203  0.2183 -0.0083 -0.7581
    2TTP    C4032061   1.625   4.703   8.212 -0.6047  0.2800  0.6205
    2TTP    C4132062   1.486   4.725   8.257  0.0516 -0.5169  1.0560
    2TTP    C4232063   1.385   4.715   8.139 -0.2478  0.2165 -0.3433
    3TTP     S132064   1.103   2.906   7.890  0.0162 -0.0173  0.1437
    3TTP     S532065   1.298   2.557   8.048 -0.0136  0.0786  0.3929
    3TTP     C132066   1.163   2.503   7.939 -0.0456  0.0121  0.4651
    3TTP     C232067   1.095   2.608   7.884 -0.0382 -0.0215  0.3924
    3TTP     C332068   1.147   2.734   7.926 -0.0072  0.0042  0.2770
    3TTP     C432069   1.238   2.960   7.999  0.0482  0.0491  0.0715
    3TTP    C1732070   1.306   2.855   8.054  0.0408  0.0827  0.1440
    3TTP    C1832071   1.254   2.729   8.013  0.0097  0.0572  0.2594
    3TTP    C3232072   0.975   2.601   7.791 -0.4254  0.5556 -0.3804
    3TTP    C3332073   0.843   2.625   7.861  0.0463 -0.1101 -0.6085
    3TTP    C3432074   0.721   2.655   7.773 -0.0231  0.3538  0.3714
    3TTP    C3532075   0.667   2.546   7.677 -0.7705 -0.3891 -0.3244
    3TTP    C3632076   0.540   2.590   7.602 -0.1598 -0.7242  0.4295
    3TTP    C3732077   0.569   2.709   7.500  0.8403 -0.4548 -0.0617
    3TTP    C3832078   0.466   2.700   7.389  0.8653 -0.0430  0.0731
    3TTP    C3932079   0.486   2.802   7.276 -1.0019 -0.3389 -0.0478
    3TTP    C4032080   0.421   2.772   7.145  0.9439 -0.3260 -0.2282
    3TTP    C4132081   0.268   2.745   7.139 -0.1865  0.1834 -0.2796
    3TTP    C4232082   0.220   2.747   6.996  0.5162  1.0783  0.0823
    4BIM     F132083   2.090   3.165   9.295 -0.0468  0.0667  0.3340
    4BIM     F232084   2.205   3.405   9.352  0.2996  0.0095 -0.1092
    4BIM     O132085   1.852   3.275   8.821 -0.2803 -0.3315  0.3574
    4BIM     N532086   2.200   3.829   9.097  0.6312 -0.3565 -0.7296
    4BIM     N632087   1.991   3.867   8.715  0.3790 -0.6561 -0.6220
    4BIM    C1932088   1.877   3.544   8.708 -0.0322 -0.5274 -0.0577
    4BIM    C2032089   1.932   3.507   8.825  0.0130 -0.4250 -0.0460
    4BIM    C2132090   1.915   3.367   8.876 -0.1220 -0.3283  0.1733
    4BIM    C2232091   1.987   3.360   9.005 -0.0293 -0.2303  0.1261
    4BIM    C2332092   2.000   3.251   9.090 -0.0997 -0.1215  0.2775
    4BIM    C2432093   2.074   3.269   9.206  0.0142 -0.0425  0.1935
    4BIM    C2532094   2.133   3.393   9.235  0.1924 -0.0722 -0.0348
    4BIM    C2632095   2.121   3.502   9.151  0.2636 -0.1805 -0.1867
    4BIM    C2732096   2.046   3.486   9.033  0.1505 -0.2617 -0.1049
    4BIM    C2832097   2.015   3.581   8.923  0.1836 -0.3826 -0.2201
    4BIM    C2932098   2.055   3.712   8.915  0.3420 -0.4434 -0.4447
    4BIM    C3032099   2.135   3.776   9.015  0.5004 -0.3954 -0.6006
    4BIM    C3132100   2.019   3.797   8.805  0.3614 -0.5599 -0.5410
    5BIM     F132101   1.566   1.788   7.921 -0.0725 -0.0950  0.6028
    5BIM     F232102   1.332   1.665   7.855  0.0888 -0.1329  0.0955
    5BIM     O132103   1.405   2.304   7.950 -0.2607 -0.1450  0.4534
    5BIM     N532104   0.882   1.856   7.780  0.1866 -0.2230 -0.7405
    5BIM     N632105   0.804   2.284   7.816  0.0071 -0.2545 -0.7550
    5BIM    C1932106   1.125   2.370   7.897 -0.1734 -0.1990 -0.0846
    5BIM    C2032107   1.175   2.245   7.892 -0.1324 -0.1849 -0.0271
    5BIM    C2132108   1.320   2.219   7.921 -0.1817 -0.1572  0.2543
    5BIM    C2232109   1.340   2.074   7.907 -0.1179 -0.1478  0.2463
    5BIM    C2332110   1.458   2.002   7.924 -0.1330 -0.1233  0.4586
    5BIM    C2432111   1.453   1.865   7.906 -0.0622 -0.1188  0.4021
    5BIM    C2532112   1.332   1.802   7.872  0.0208 -0.1383  0.1406
    5BIM    C2632113   1.214   1.872   7.855  0.0364 -0.1628 -0.0724
    5BIM    C2732114   1.217   2.012   7.873 -0.0345 -0.1677 -0.0191
    5BIM    C2832115   1.111   2.114   7.862 -0.0401 -0.1913 -0.1975
    5BIM    C2932116   0.979   2.093   7.830  0.0274 -0.2146 -0.4684
    5BIM    C3032117   0.926   1.963   7.803  0.1147 -0.2191 -0.6171
    5BIM    C3132118   0.883   2.198   7.823  0.0158 -0.2364 -0.6245
    1BTD     S232119   5.759   2.696   9.094 -0.0863 -0.0855  0.0880
    1BTD     N132120   5.733   2.539   9.176 -0.0057 -0.1487 -0.0064
    1BTD     N232121   5.622   2.676   8.980 -0.1274 -0.0498  0.1314
    1BTD     N332122   5.294   2.351   8.897 -0.0657 -0.0912  0.0494
    1BTD     N432123   5.431   2.181   9.139  0.0843 -0.2132 -0.1199
    1BTD     C532124   5.573   2.354   9.154  0.0393 -0.1810 -0.0637
    1BTD     C632125   5.628   2.482   9.118 -0.0132 -0.1405 -0.0007
    1BTD     C732126   5.566   2.559   9.008 -0.0813 -0.0851  0.0761
    1BTD     C832127   5.452   2.504   8.939 -0.0933 -0.0729  0.0865
    1BTD    C1532128   5.402   2.378   8.978 -0.0403 -0.1138  0.0233
    1BTD    C1632129   5.462   2.304   9.084  0.0253 -0.1673 -0.0511
    1BTD    C4332130   5.334   2.080   9.092  0.3362 -0.1106  0.5156
    1BTD    C4432131   5.354   1.933   9.129  0.4003  0.3008  0.0285
    1BTD    C4532132   5.483   1.879   9.073 -0.4571  0.9824  0.8943
    1BTD    C4632133   5.494   1.847   8.923 -0.2759  0.2701 -0.2880
    1BTD    C4732134   5.222   1.861   9.087  0.0104 -0.9073  0.2774
    1BTD    C4832135   5.206   1.719   9.140  0.5492 -0.4911 -0.6462
    1BTD    C4932136   5.112   1.638   9.052  0.2133 -0.1507  1.1344
    1BTD    C5032137   5.064   1.509   9.118  0.1263  0.1222 -0.0937
    1BTD    C7532138   5.161   2.317   8.956  0.2762  0.1566 -0.4475
    1BTD    C7632139   5.042   2.265   8.875 -0.4788 -0.2399  0.1009
    1BTD    C7732140   5.072   2.141   8.797 -0.9418 -0.4716  0.4235
    1BTD    C7832141   4.961   2.064   8.722  0.3756  0.0271 -0.1401
    1BTD    C7932142   4.926   2.265   8.969 -0.7373  0.4301  0.7443
    1BTD    C8032143   4.906   2.175   9.092  0.2103 -0.1609  0.7193
    1BTD    C8132144   4.868   2.023   9.074 -1.1380 -0.3151 -0.3484
    1BTD    C8232145   4.847   1.945   9.204 -0.3364  0.3179 -0.4182
    2TTP     S132146   5.713   2.255   9.403  0.0736 -0.1396 -0.0818
    2TTP     S532147   5.430   1.932   9.423 -0.1887  0.1202  0.4656
    2TTP     C132148   5.540   1.922   9.568 -0.2449  0.3201  0.5229
    2TTP     C232149   5.634   2.021   9.570 -0.1671  0.2517  0.3569
    2TTP     C332150   5.622   2.109   9.458 -0.0606  0.0389  0.1791
    2TTP     C432151   5.604   2.265   9.258  0.1299 -0.3395 -0.1390
    2TTP    C1732152   5.510   2.166   9.256  0.0521 -0.2711  0.0271
    2TTP    C1832153   5.521   2.079   9.368 -0.0546 -0.0582  0.2048
    2TTP    C3232154   5.742   2.052   9.673  0.1478 -0.1173 -0.1260
    2TTP    C3332155   5.868   1.960   9.660  0.9147 -0.0258 -0.3020
    2TTP    C3432156   5.993   2.024   9.726 -0.0828  0.7354  0.5632
    2TTP    C3532157   6.035   2.150   9.650 -0.4388 -0.8224 -0.5139
    2TTP    C3632158   6.144   2.233   9.728  0.5067 -0.1918 -0.3461
    2TTP    C3732159   6.214   2.343   9.647 -0.3316 -0.5904  0.0873
    2TTP    C3832160   6.360   2.379   9.693 -0.0004 -0.0406 -0.0074
    2TTP    C3932161   6.428   2.491   9.617 -0.0897 -0.4947  0.1014
    2TTP    C4032162   6.571   2.509   9.663 -0.1528 -0.7569 -0.3058
    2TTP    C4132163   6.644   2.616   9.589 -0.2818 -0.2103  0.2666
    2TTP    C4232164   6.765   2.647   9.669 -0.8594 -0.1498 -0.2031
    3TTP     S132165   5.382   2.683   8.705  0.3036 -0.2452 -0.1378
    3TTP     S532166   5.057   2.418   8.607  0.1243 -0.0072 -0.1874
    3TTP     C132167   5.060   2.554   8.485  0.1559  0.0663 -0.1047
    3TTP     C232168   5.161   2.643   8.508  0.2130 -0.0029 -0.0844
    3TTP     C332169   5.239   2.608   8.623  0.2341 -0.1163 -0.1335
    3TTP     C432170   5.379   2.547   8.826  0.2722 -0.3186 -0.2203
    3TTP    C1732171   5.279   2.458   8.803  0.2149 -0.2496 -0.2405
    3TTP    C1832172   5.200   2.493   8.689  0.1940 -0.1361 -0.1917
    3TTP    C3232173   5.208   2.769   8.429  0.4436  0.1259 -0.3249
    3TTP    C3332174   5.335   2.764   8.352 -0.6529 -0.1624 -0.1621
    3TTP    C3432175   5.344   2.671   8.240  0.4910  0.4314  0.3163
    3TTP    C3532176   5.471   2.685   8.143 -0.5396  0.3468 -0.4233
    3TTP    C3632177   5.464   2.583   8.031 -0.2347  1.0693  0.2560
    3TTP    C3732178   5.585   2.599   7.938 -0.1703  0.0264  0.4429
    3TTP    C3832179   5.604   2.487   7.840 -0.1617  0.1990  0.3627
    3TTP    C3932180   5.718   2.492   7.734  0.2925  0.6299  0.1455
    3TTP    C4032181   5.717   2.598   7.631  0.2238  0.4616  0.4902
    3TTP    C4132182   5.618   2.561   7.521 -0.0952 -0.0206 -0.0181
    3TTP    C4232183   5.628   2.656   7.409 -0.0512  0.1542 -0.1023
    4BIM     F132184   5.169   1.198   9.683  0.3262 -0.2528 -0.1552
    4BIM     F232185   5.244   1.209   9.945 -0.1615  0.0298 -0.0254
    4BIM     O132186   5.391   1.655   9.494  0.4858 -0.3424 -0.1843
    4BIM     N532187   5.509   1.550  10.186 -0.7490  0.3724  0.1402
    4BIM     N632188   5.667   1.905   9.986 -0.5260  0.2454  0.0912
    4BIM    C1932189   5.541   1.827   9.677  0.0764 -0.1042 -0.0709
    4BIM    C2032190   5.482   1.712   9.714  0.0556 -0.0927 -0.0686
    4BIM    C2132191   5.407   1.629   9.615  0.2743 -0.2200 -0.1291
    4BIM    C2232192   5.356   1.511   9.688  0.1876 -0.1706 -0.1094
    4BIM    C2332193   5.280   1.406   9.638  0.3245 -0.2505 -0.1488
    4BIM    C2432194   5.244   1.305   9.726  0.2022 -0.1802 -0.1192
    4BIM    C2532195   5.282   1.311   9.861 -0.0492 -0.0346 -0.0523
    4BIM    C2632196   5.358   1.416   9.912 -0.1868  0.0458 -0.0128
    4BIM    C2732197   5.396   1.519   9.824 -0.0662 -0.0235 -0.0419
    4BIM    C2832198   5.475   1.642   9.845 -0.1574  0.0302 -0.0141
    4BIM    C2932199   5.530   1.684   9.964 -0.3940  0.1675  0.0499
    4BIM    C3032200   5.518   1.610  10.086 -0.5884  0.2796  0.0993
    4BIM    C3132201   5.605   1.805   9.975 -0.4652  0.2095  0.0722
    5BIM     F132202   4.369   2.214   8.208  0.2989 -0.1030 -0.1197
    5BIM     F232203   4.367   2.395   8.006  0.4508 -0.1863 -0.1960
    5BIM     O132204   4.817   2.361   8.475  0.0539  0.0589  0.2041
    5BIM     N532205   4.685   2.761   7.904  0.4947 -0.1907 -0.0747
    5BIM     N632206   5.035   2.840   8.153  0.2726 -0.0474  0.1936
    5BIM    C1932207   4.974   2.587   8.375  0.1121  0.0368  0.2462
    5BIM    C2032208   4.862   2.543   8.316  0.1677 -0.0007  0.1676
    5BIM    C2132209   4.786   2.426   8.373  0.1327  0.0137  0.1514
    5BIM    C2232210   4.670   2.405   8.285  0.2105 -0.0360  0.0601
    5BIM    C2332211   4.571   2.308   8.298  0.2114 -0.0426  0.0153
    5BIM    C2432212   4.470   2.307   8.202  0.2931 -0.0937 -0.0709
    5BIM    C2532213   4.470   2.400   8.098  0.3712 -0.1364 -0.1101
    5BIM    C2632214   4.568   2.497   8.085  0.3710 -0.1302 -0.0656
    5BIM    C2732215   4.671   2.500   8.181  0.2888 -0.0789  0.0215
    5BIM    C2832216   4.789   2.588   8.196  0.2657 -0.0588  0.0861
    5BIM    C2932217   4.824   2.693   8.113  0.3238 -0.0886  0.0730
    5BIM    C3032218   4.747   2.730   7.998  0.4175 -0.1447 -0.0079
    5BIM    C3132219   4.940   2.773   8.135  0.2952 -0.0658  0.1395
    1BTD     S232220   2.270   1.005   3.484 -0.0904 -0.0352  0.0795
    1BTD     N132221   2.212   0.841   3.441 -0.1051 -0.0301  0.0801
    1BTD     N232222   2.145   1.091   3.388  0.0295 -0.0257 -0.0698
    1BTD     N332223   1.783   0.968   3.115  0.2475  0.0028 -0.3731
    1BTD     N432224   1.865   0.660   3.181  0.0816 -0.0026 -0.1883
    1BTD     C532225   2.030   0.750   3.305 -0.0056 -0.0157 -0.0623
    1BTD     C632226   2.107   0.857   3.362 -0.0240 -0.0220 -0.0256
    1BTD     C732227   2.069   0.997   3.332  0.0514 -0.0195 -0.1096
    1BTD     C832228   1.957   1.023   3.246  0.1413 -0.0108 -0.2260
    1BTD    C1532229   1.884   0.915   3.193  0.1561 -0.0049 -0.2580
    1BTD    C1632230   1.920   0.780   3.221  0.0836 -0.0073 -0.1772
    1BTD    C4332231   1.716   0.634   3.173 -0.2793  0.7902  0.1434
    1BTD    C4432232   1.645   0.510   3.110 -0.1099 -0.4261 -0.3576
    1BTD    C4532233   1.502   0.488   3.161 -0.5947 -0.4167  0.1519
    1BTD    C4632234   1.472   0.486   3.308 -0.0678 -0.2209 -0.2420
    1BTD    C4732235   1.661   0.525   2.963 -0.5949 -0.3643  0.0374
    1BTD    C4832236   1.638   0.402   2.873  0.1219 -0.3225 -0.1726
    1BTD    C4932237   1.649   0.415   2.720 -0.0952  0.6334  0.0212
    1BTD    C5032238   1.571   0.523   2.656 -0.2272  0.1086  0.4867
    1BTD    C7532239   1.715   0.908   2.998  0.1897  0.1118 -0.1151
    1BTD    C7632240   1.578   0.948   2.947  0.6247  0.8836  0.5150
    1BTD    C7732241   1.469   0.932   3.059 -0.1704  0.2177  0.1090
    1BTD    C7832242   1.329   0.978   3.029 -0.2832  0.0778 -0.2671
    1BTD    C7932243   1.544   0.904   2.799 -0.6395 -0.1659  0.5872
    1BTD    C8032244   1.656   0.933   2.699 -0.2900  0.3377 -0.2643
    1BTD    C8132245   1.637   0.874   2.561 -0.2181 -0.0078  0.1503
    1BTD    C8232246   1.737   0.924   2.454 -0.0799 -0.1890  0.3331
    2TTP     S132247   2.173   0.486   3.359 -0.0438 -0.2722  0.1750
    2TTP     S532248   1.898   0.294   3.089 -0.1562 -0.0342  0.1198
    2TTP     C132249   2.028   0.175   3.133 -0.1921 -0.1041  0.0379
    2TTP     C232250   2.121   0.227   3.219 -0.1596 -0.1818  0.0501
    2TTP     C332251   2.092   0.363   3.253 -0.1050 -0.1888  0.1246
    2TTP     C432252   2.042   0.604   3.315 -0.0080 -0.2023  0.2570
    2TTP    C1732253   1.950   0.552   3.229 -0.0405 -0.1246  0.2447
    2TTP    C1832254   1.978   0.416   3.195 -0.0950 -0.1176  0.1703
    2TTP    C3232255   2.252   0.160   3.267 -0.5385  0.3738 -0.4707
    2TTP    C3332256   2.249   0.102   3.410 -0.0379 -0.3886  0.1190
    2TTP    C3432257   2.379   0.033   3.431 -0.0338  0.7628  0.0386
    2TTP    C3532258   2.397  -0.030   3.567 -0.6400 -0.0482 -0.6696
    2TTP    C3632259   2.539  -0.080   3.595  0.4446  0.3771  0.0174
    2TTP    C3732260   2.595  -0.093   3.738 -0.7184 -0.1229 -0.3633
    2TTP    C3832261   2.582   0.034   3.824 -0.1821  0.3279  0.4403
    2TTP    C3932262   2.676   0.011   3.951  0.2006 -0.0978  0.4578
    2TTP    C4032263   2.722   0.133   4.025 -0.1593  0.3388  0.1056
    2TTP    C4132264   2.607   0.222   4.059 -0.8979  0.3720 -0.1257
    2TTP    C4232265   2.646   0.356   4.118  0.3744  0.0040  0.0097
    3TTP     S132266   1.896   1.324   3.246 -0.1100 -0.0614  0.1719
    3TTP     S532267   1.550   1.257   2.999  0.2441  0.0540 -0.3594
    3TTP     C132268   1.561   1.434   3.037 -0.0043 -0.0109  0.0289
    3TTP     C232269   1.668   1.465   3.115 -0.1283 -0.0504  0.2159
    3TTP     C332270   1.746   1.350   3.149 -0.0316 -0.0308  0.0592
    3TTP     C432271   1.885   1.146   3.208  0.1385  0.0035 -0.2164
    3TTP    C1732272   1.778   1.115   3.130  0.2625  0.0430 -0.4033
    3TTP    C1832273   1.700   1.230   3.097  0.1657  0.0234 -0.2466
    3TTP    C3232274   1.716   1.603   3.159  0.4718 -0.0949 -0.1950
    3TTP    C3332275   1.826   1.663   3.075  0.1317 -0.1285  0.0709
    3TTP    C3432276   1.925   1.760   3.147  0.2923 -0.2752  0.4229
    3TTP    C3532277   1.994   1.725   3.273  0.1455 -0.4321  0.8371
    3TTP    C3632278   2.112   1.634   3.262  0.1586  0.3324 -0.1716
    3TTP    C3732279   2.153   1.583   3.396  0.3502  0.8798 -0.9652
    3TTP    C3832280   2.255   1.471   3.380  0.2617 -0.5096  0.2592
    3TTP    C3932281   2.333   1.448   3.509 -0.3565  0.1471  0.8446
    3TTP    C4032282   2.457   1.541   3.523  0.3423  0.1937  0.1700
    3TTP    C4132283   2.570   1.483   3.604  0.1397 -0.0200  0.0329
    3TTP    C4232284   2.703   1.558   3.575 -0.2316  0.1706  0.7088
    4BIM     F132285   1.613  -0.254   2.571 -0.0972  0.1121  0.0273
    4BIM     F232286   1.706  -0.482   2.686 -0.0094  0.0517 -0.1622
    4BIM     O132287   1.857   0.121   2.875 -0.0443 -0.0476  0.1819
    4BIM     N532288   2.013  -0.543   3.070  0.1543 -0.1490 -0.3243
    4BIM     N632289   2.184  -0.203   3.284  0.1779 -0.2618 -0.1653
    4BIM    C1932290   2.032   0.037   3.094  0.0583 -0.1621  0.0559
    4BIM    C2032291   1.967  -0.049   3.013  0.0415 -0.1194  0.0243
    4BIM    C2132292   1.879   0.002   2.903 -0.0117 -0.0620  0.0936
    4BIM    C2232293   1.824  -0.116   2.834 -0.0173 -0.0260  0.0359
    4BIM    C2332294   1.737  -0.119   2.726 -0.0601  0.0310  0.0684
    4BIM    C2432295   1.699  -0.244   2.678 -0.0563  0.0560  0.0001
    4BIM    C2532296   1.747  -0.361   2.738 -0.0111  0.0248 -0.0975
    4BIM    C2632297   1.834  -0.359   2.846  0.0317 -0.0319 -0.1304
    4BIM    C2732298   1.873  -0.234   2.896  0.0286 -0.0582 -0.0624
    4BIM    C2832299   1.963  -0.197   3.008  0.0666 -0.1168 -0.0734
    4BIM    C2932300   2.030  -0.284   3.091  0.1156 -0.1605 -0.1578
    4BIM    C3032301   2.020  -0.426   3.079  0.1367 -0.1540 -0.2492
    4BIM    C3132302   2.114  -0.239   3.197  0.1496 -0.2158 -0.1615
    5BIM     F132303   0.750   1.410   2.902 -0.0917  0.0241  0.1746
    5BIM     F232304   0.770   1.652   2.779  0.0499 -0.2043 -0.2557
    5BIM     O132305   1.262   1.332   3.060 -0.1267 -0.0175  0.2675
    5BIM     N532306   1.164   1.944   2.715  0.2284 -0.5623 -0.8082
    5BIM     N632307   1.560   1.835   2.864  0.1725 -0.5487 -0.6488
    5BIM    C1932308   1.463   1.536   2.999 -0.0039 -0.2505 -0.1106
    5BIM    C2032309   1.333   1.546   2.964 -0.0006 -0.2311 -0.1172
    5BIM    C2132310   1.236   1.437   2.999 -0.0661 -0.1088  0.0842
    5BIM    C2232311   1.105   1.480   2.947 -0.0439 -0.1191  0.0201
    5BIM    C2332312   0.984   1.411   2.955 -0.0861 -0.0292  0.1515
    5BIM    C2432313   0.873   1.472   2.898 -0.0531 -0.0605  0.0542
    5BIM    C2532314   0.884   1.596   2.834  0.0198 -0.1782 -0.1675
    5BIM    C2632315   1.004   1.665   2.826  0.0623 -0.2683 -0.2995
    5BIM    C2732316   1.117   1.605   2.883  0.0298 -0.2384 -0.2040
    5BIM    C2832317   1.258   1.651   2.891  0.0593 -0.3119 -0.2972
    5BIM    C2932318   1.309   1.769   2.841  0.1288 -0.4319 -0.5096
    5BIM    C3032319   1.229   1.865   2.772  0.1834 -0.5032 -0.6730
    5BIM    C3132320   1.447   1.804   2.854  0.1525 -0.4955 -0.5850
    1BTD     S232321   0.094   3.558   2.800  0.1516  0.1336 -0.0832
    1BTD     N132322   0.067   3.736   2.813  0.2468  0.1636 -0.2802
    1BTD     N232323   0.253   3.562   2.884  0.0211  0.1014  0.1657
    1BTD     N332324   0.527   3.889   3.080 -0.0730  0.0899  0.3169
    1BTD     N432325   0.297   4.103   2.992  0.2051  0.1667 -0.2326
    1BTD     C532326   0.190   3.925   2.907  0.2217  0.1643 -0.2487
    1BTD     C632327   0.172   3.786   2.876  0.1799  0.1489 -0.1568
    1BTD     C732328   0.276   3.688   2.916  0.0535  0.1140  0.0928
    1BTD     C832329   0.393   3.735   2.985 -0.0247  0.0964  0.2381
    1BTD    C1532330   0.406   3.873   3.014  0.0202  0.1123  0.1404
    1BTD    C1632331   0.306   3.966   2.975  0.1419  0.1460 -0.1000
    1BTD    C4332332   0.347   4.167   3.114 -0.4934  0.5243 -0.4746
    1BTD    C4432333   0.368   4.315   3.139  0.0087 -0.7106 -0.1972
    1BTD    C4532334   0.481   4.379   3.054 -0.1566  0.3743 -0.4849
    1BTD    C4632335   0.508   4.530   3.071  0.6313  0.1081  0.0119
    1BTD    C4732336   0.387   4.346   3.293  0.4931  0.1425  0.7263
    1BTD    C4832337   0.302   4.274   3.392  0.2231  0.1807 -0.2765
    1BTD    C4932338   0.290   4.359   3.519  0.7646  0.2441  0.0026
    1BTD    C5032339   0.203   4.291   3.627 -0.2694 -0.2757 -0.0541
    1BTD    C7532340   0.617   4.007   3.071 -0.0093 -0.5639 -0.4438
    1BTD    C7632341   0.717   4.052   3.181  0.0022 -0.3055 -0.6146
    1BTD    C7732342   0.640   4.099   3.306  0.1760 -0.4385 -0.4544
    1BTD    C7832343   0.724   4.165   3.416  0.6033  0.3304 -0.2432
    1BTD    C7932344   0.820   4.145   3.116  0.5268 -0.2929 -0.1845
    1BTD    C8032345   0.917   4.091   3.013 -0.6823 -0.1651  0.3443
    1BTD    C8132346   1.021   3.979   3.054  0.3102 -0.6922 -0.2549
    1BTD    C8232347   1.123   4.010   3.163 -0.1745 -0.5022  0.0352
    2TTP     S132348  -0.058   4.069   2.823 -0.2745  0.0475  0.2454
    2TTP     S532349   0.100   4.429   2.998  0.4845 -0.0613 -0.2082
    2TTP     C132350  -0.068   4.463   2.937  0.3997  0.1045  0.1147
    2TTP     C232351  -0.127   4.354   2.879  0.1605  0.1478  0.2738
    2TTP     C332352  -0.041   4.239   2.881  0.0355  0.0516  0.1466
    2TTP     C432353   0.110   4.035   2.884 -0.1895 -0.1183 -0.0774
    2TTP    C1732354   0.169   4.144   2.941  0.0500 -0.1616 -0.2364
    2TTP    C1832355   0.083   4.258   2.939  0.1748 -0.0656 -0.1091
    2TTP    C3232356  -0.269   4.348   2.809  0.0453 -0.2178  0.2230
    2TTP    C3332357  -0.364   4.249   2.868 -0.0400  0.1404  0.1501
    2TTP    C3432358  -0.477   4.228   2.772 -0.5347 -0.2308  0.3690
    2TTP    C3532359  -0.582   4.130   2.807 -0.5693 -0.8471  0.2721
    2TTP    C3632360  -0.556   3.982   2.822 -0.2996  0.5031  0.1522
    2TTP    C3732361  -0.497   3.914   2.701  0.3075  0.9513  0.2055
    2TTP    C3832362  -0.469   3.768   2.735  0.1056 -0.1428  0.0884
    2TTP    C3932363  -0.436   3.669   2.619 -0.0629  0.1937  0.4342
    2TTP    C4032364  -0.546   3.610   2.535  0.7979  0.7821  0.5604
    2TTP    C4132365  -0.516   3.492   2.445 -0.5341  0.0316  0.0836
    2TTP    C4232366  -0.635   3.432   2.369  0.4428 -0.6925  0.1795
    3TTP     S132367   0.574   3.504   3.053  0.3230 -0.1371  0.2952
    3TTP     S532368   0.812   3.766   3.297  0.4108  0.2407 -0.1911
    3TTP     C132369   0.876   3.596   3.315  0.5368  0.2969 -0.1006
    3TTP     C232370   0.806   3.505   3.240  0.5172  0.1836  0.0550
    3TTP     C332371   0.699   3.566   3.167  0.4018  0.0482  0.1082
    3TTP     C432372   0.510   3.674   3.035  0.1969 -0.1934  0.2046
    3TTP    C1732373   0.580   3.764   3.110  0.2166 -0.0801  0.0492
    3TTP    C1832374   0.686   3.703   3.183  0.3320  0.0553 -0.0041
    3TTP    C3232375   0.831   3.363   3.215  0.1903  0.8857 -0.0076
    3TTP    C3332376   0.887   3.311   3.080  0.0891  0.4058 -0.2398
    3TTP    C3432377   1.042   3.307   3.071  1.1497 -0.2129  0.2118
    3TTP    C3532378   1.100   3.258   2.933  0.0083 -0.3842  0.0924
    3TTP    C3632379   1.056   3.117   2.887  0.7325 -0.1960  0.6044
    3TTP    C3732380   1.067   3.099   2.742 -0.4834 -0.0454  0.2794
    3TTP    C3832381   1.019   2.961   2.702  0.0485 -0.2175 -0.0465
    3TTP    C3932382   0.996   2.935   2.556 -0.1258 -0.2136 -0.1910
    3TTP    C4032383   0.885   3.014   2.479 -0.8702 -0.2653 -0.0514
    3TTP    C4132384   0.842   2.942   2.356 -0.0333  0.0091 -0.2517
    3TTP    C4232385   0.718   3.003   2.292 -0.2613  0.7721  0.6295
    4BIM     F132386   0.144   5.241   3.113 -0.1347 -0.0045 -0.0857
    4BIM     F232387  -0.100   5.322   3.022 -0.0679 -0.0896 -0.3436
    4BIM     O132388   0.106   4.705   3.044  0.0417 -0.0387  0.0817
    4BIM     N532389  -0.477   5.056   2.843  0.1540 -0.2369 -0.5952
    4BIM     N632390  -0.457   4.621   2.807  0.2787 -0.2465 -0.4124
    4BIM    C1932391  -0.140   4.592   2.933  0.1683 -0.1324 -0.1052
    4BIM    C2032392  -0.121   4.724   2.954  0.1211 -0.1205 -0.1373
    4BIM    C2132393   0.008   4.774   3.011  0.0575 -0.0715 -0.0357
    4BIM    C2232394  -0.005   4.921   3.021  0.0176 -0.0705 -0.1031
    4BIM    C2332395   0.090   5.011   3.068 -0.0451 -0.0329 -0.0492
    4BIM    C2432396   0.055   5.146   3.067 -0.0729 -0.0404 -0.1325
    4BIM    C2532397  -0.071   5.187   3.021 -0.0380 -0.0843 -0.2653
    4BIM    C2632398  -0.165   5.097   2.973  0.0246 -0.1222 -0.3197
    4BIM    C2732399  -0.132   4.961   2.973  0.0536 -0.1152 -0.2370
    4BIM    C2832400  -0.208   4.841   2.930  0.1185 -0.1477 -0.2632
    4BIM    C2932401  -0.336   4.840   2.878  0.1664 -0.1940 -0.3818
    4BIM    C3032402  -0.413   4.959   2.859  0.1595 -0.2173 -0.4987
    4BIM    C3132403  -0.402   4.720   2.839  0.2279 -0.2226 -0.3979
    5BIM     F132404   1.438   3.941   3.811 -0.2304  0.0214  0.3213
    5BIM     F232405   1.516   3.690   3.883 -0.2314  0.0126  0.2922
    5BIM     O132406   1.047   3.826   3.455  0.0206  0.0623  0.0314
    5BIM     N532407   1.350   3.249   3.734 -0.0539  0.0293  0.0435
    5BIM     N632408   1.028   3.210   3.441  0.1424  0.0631 -0.1772
    5BIM    C1932409   0.982   3.547   3.398  0.1088  0.0685 -0.0995
    5BIM    C2032410   1.078   3.585   3.484  0.0457  0.0586 -0.0255
    5BIM    C2132411   1.105   3.731   3.508  0.0034  0.0560  0.0387
    5BIM    C2232412   1.214   3.737   3.608 -0.0619  0.0446  0.1112
    5BIM    C2332413   1.273   3.851   3.661 -0.1173  0.0384  0.1861
    5BIM    C2432414   1.375   3.832   3.754 -0.1738  0.0278  0.2458
    5BIM    C2532415   1.415   3.703   3.791 -0.1741  0.0233  0.2307
    5BIM    C2632416   1.356   3.589   3.738 -0.1189  0.0293  0.1561
    5BIM    C2732417   1.253   3.606   3.644 -0.0614  0.0401  0.0949
    5BIM    C2832418   1.171   3.508   3.570  0.0047  0.0486  0.0103
    5BIM    C2932419   1.180   3.371   3.579  0.0241  0.0474 -0.0277
    5BIM    C3032420   1.273   3.304   3.664 -0.0189  0.0375  0.0116
    5BIM    C3132421   1.096   3.283   3.503  0.0891  0.0560 -0.1097
    1BTD     S232422   8.743   1.201   7.890 -0.0174  0.0826  0.0151
    1BTD     N132423   8.571   1.182   7.840 -0.1311  0.0848  0.3954
    1BTD     N232424   8.751   1.376   7.848 -0.0048  0.0019 -0.3185
    1BTD     N332425   8.458   1.696   7.670 -0.1845 -0.1586 -0.3119
    1BTD     N432426   8.236   1.457   7.660 -0.3405 -0.0563  0.5679
    1BTD     C532427   8.399   1.329   7.746 -0.2387  0.0099  0.4747
    1BTD     C632428   8.531   1.300   7.796 -0.1528  0.0282  0.2609
    1BTD     C732429   8.632   1.409   7.801 -0.0823 -0.0182 -0.1385
    1BTD     C832430   8.595   1.540   7.755 -0.1004 -0.0807 -0.3043
    1BTD    C1532431   8.465   1.563   7.707 -0.1854 -0.0965 -0.0844
    1BTD    C1632432   8.368   1.459   7.702 -0.2540 -0.0518  0.3007
    1BTD    C4332433   8.193   1.529   7.542  1.1552 -0.3822 -0.2508
    1BTD    C4432434   8.039   1.552   7.514  0.7783 -0.6142 -0.0071
    1BTD    C4532435   8.006   1.578   7.365  0.4482  0.3790 -0.3082
    1BTD    C4632436   8.015   1.451   7.280 -0.0212  0.6332 -0.4532
    1BTD    C4732437   7.997   1.664   7.614 -0.1538  0.0562 -0.8657
    1BTD    C4832438   7.851   1.677   7.646  0.2645 -0.0851  0.0886
    1BTD    C4932439   7.833   1.799   7.742 -0.0168  1.0781  0.4995
    1BTD    C5032440   7.703   1.812   7.813 -0.0559  0.2431  0.4423
    1BTD    C7532441   8.340   1.783   7.688 -0.6617  0.4221 -0.4156
    1BTD    C7632442   8.308   1.919   7.633  0.3733 -0.1360 -0.1716
    1BTD    C7732443   8.299   1.912   7.478  0.0472  0.5536  0.0182
    1BTD    C7832444   8.286   2.050   7.409  0.1196  0.2514  0.0042
    1BTD    C7932445   8.186   1.993   7.688  0.7801 -0.1745 -0.2562
    1BTD    C8032446   8.177   2.021   7.839 -0.1681 -0.2549 -0.1678
    1BTD    C8132447   8.048   2.077   7.884 -0.0140  0.7642 -1.0639
    1BTD    C8232448   8.053   2.109   8.036  0.4799 -0.0281  0.3782
    2TTP     S132449   8.244   1.098   7.804  0.2836  0.1100 -0.1302
    2TTP     S532450   7.888   1.329   7.738  0.1304 -0.1564 -0.2422
    2TTP     C132451   7.842   1.176   7.825  0.2166 -0.1939 -0.2632
    2TTP     C232452   7.950   1.095   7.851  0.2689 -0.1138 -0.2296
    2TTP     C332453   8.072   1.152   7.802  0.2429 -0.0200 -0.1866
    2TTP     C432454   8.290   1.251   7.717  0.1976  0.1476 -0.1093
    2TTP    C1732455   8.182   1.331   7.691  0.1451  0.0675 -0.1428
    2TTP    C1832456   8.060   1.275   7.740  0.1709 -0.0264 -0.1861
    2TTP    C3232457   7.955   0.959   7.928 -0.7387 -0.0027  0.1518
    2TTP    C3332458   7.983   0.829   7.854  0.5570 -0.1018 -0.2225
    2TTP    C3432459   7.892   0.789   7.740  0.5929 -0.7820 -0.2792
    2TTP    C3532460   7.748   0.757   7.791 -0.2265  0.3600  0.5385
    2TTP    C3632461   7.645   0.743   7.679  0.4063 -0.1237  0.5639
    2TTP    C3732462   7.497   0.733   7.733  0.0543  0.2424 -0.1312
    2TTP    C3832463   7.431   0.604   7.791 -0.0384 -0.1340 -0.5176
    2TTP    C3932464   7.445   0.474   7.703 -0.0064 -0.6547 -0.0808
    2TTP    C4032465   7.396   0.344   7.770 -0.6714  0.0153  0.0282
    2TTP    C4132466   7.490   0.329   7.889  0.0242 -0.3005 -0.4524
    2TTP    C4232467   7.439   0.210   7.976  0.2418 -0.4141 -0.5811
    3TTP     S132468   8.827   1.733   7.792  0.2087 -0.2557 -0.0685
    3TTP     S532469   8.600   2.036   7.588  0.2708 -0.3033 -0.2087
    3TTP     C132470   8.763   2.104   7.630  0.2566 -0.2924 -0.1720
    3TTP     C232471   8.843   2.015   7.696  0.2367 -0.2770 -0.1266
    3TTP     C332472   8.778   1.889   7.715  0.2315 -0.2734 -0.1191
    3TTP     C432473   8.664   1.664   7.750  0.2229 -0.2666 -0.1053
    3TTP    C1732474   8.584   1.754   7.685  0.2424 -0.2820 -0.1507
    3TTP    C1832475   8.649   1.880   7.665  0.2477 -0.2857 -0.1582
    3TTP    C3232476   8.983   2.031   7.752 -0.1126  0.1786  0.2922
    3TTP    C3332477   8.984   2.044   7.905  0.0362  0.0503  0.1604
    3TTP    C3432478   9.128   2.052   7.953  0.1966 -0.0910  0.0809
    3TTP    C3532479   9.126   2.042   8.109 -0.9138  0.0701  0.8961
    3TTP    C3632480   9.262   2.037   8.176 -0.6440  0.7116 -0.9209
    3TTP    C3732481   9.256   2.034   8.334  0.4204 -0.6355  0.2052
    3TTP    C3832482   9.386   2.081   8.393 -0.7279 -0.4828  0.4798
    3TTP    C3932483   9.464   2.203   8.340 -0.5739 -0.7034  0.3471
    3TTP    C4032484   9.409   2.344   8.368 -0.2812  0.3096 -0.0064
    3TTP    C4132485   9.503   2.461   8.340 -0.4723  0.5093  0.3256
    3TTP    C4232486   9.455   2.586   8.404  0.2113 -0.3510 -0.4153
    4BIM     F132487   7.114   1.305   7.473  0.0446  0.0720  0.0628
    4BIM     F232488   6.995   1.195   7.691 -0.0621  0.2061  0.0732
    4BIM     O132489   7.637   1.252   7.604 -0.0131 -0.1187  0.2162
    4BIM     N532490   7.196   0.997   8.098 -0.2563  0.2632  0.1979
    4BIM     N632491   7.628   0.977   8.156 -0.2798  0.0871  0.3157
    4BIM    C1932492   7.708   1.127   7.858 -0.1354 -0.0582  0.2806
    4BIM    C2032493   7.581   1.145   7.817 -0.1167 -0.0155  0.2416
    4BIM    C2132494   7.553   1.210   7.685 -0.0530 -0.0507  0.2104
    4BIM    C2232495   7.406   1.213   7.671 -0.0480  0.0112  0.1714
    4BIM    C2332496   7.332   1.264   7.565  0.0024  0.0063  0.1336
    4BIM    C2432497   7.193   1.257   7.574 -0.0036  0.0728  0.1012
    4BIM    C2532498   7.132   1.200   7.687 -0.0583  0.1418  0.1066
    4BIM    C2632499   7.206   1.149   7.793 -0.1090  0.1472  0.1442
    4BIM    C2732500   7.346   1.155   7.785 -0.1038  0.0805  0.1775
    4BIM    C2832501   7.451   1.111   7.879 -0.1481  0.0668  0.2208
    4BIM    C2932502   7.432   1.050   8.001 -0.2071  0.1202  0.2387
    4BIM    C3032503   7.302   1.021   8.054 -0.2341  0.1986  0.2160
    4BIM    C3132504   7.540   1.010   8.086 -0.2470  0.1017  0.2806
    5BIM     F132505   8.436   2.818   7.395 -0.0112  0.0423  0.2959
    5BIM     F232506   8.682   2.932   7.411  0.0999 -0.1433 -0.0633
    5BIM     O132507   8.547   2.310   7.546 -0.2124  0.0108  0.3383
    5BIM     N532508   9.116   2.733   7.542  0.1166 -0.4326 -0.5492
    5BIM     N632509   9.153   2.313   7.657 -0.0632 -0.4199 -0.4435
    5BIM    C1932510   8.822   2.238   7.615 -0.1775 -0.1777  0.0102
    5BIM    C2032511   8.784   2.362   7.577 -0.1314 -0.1625  0.0137
    5BIM    C2132512   8.641   2.391   7.543 -0.1531 -0.0635  0.1876
    5BIM    C2232513   8.635   2.533   7.505 -0.0906 -0.0726  0.1434
    5BIM    C2332514   8.523   2.606   7.466 -0.0851  0.0001  0.2606
    5BIM    C2432515   8.542   2.740   7.435 -0.0202 -0.0258  0.1875
    5BIM    C2532516   8.669   2.798   7.443  0.0366 -0.1216  0.0023
    5BIM    C2632517   8.781   2.726   7.482  0.0319 -0.1943 -0.1154
    5BIM    C2732518   8.764   2.591   7.514 -0.0334 -0.1695 -0.0439
    5BIM    C2832519   8.861   2.488   7.559 -0.0563 -0.2286 -0.1308
    5BIM    C2932520   8.996   2.505   7.579 -0.0153 -0.3259 -0.3109
    5BIM    C3032521   9.062   2.631   7.559  0.0572 -0.3842 -0.4416
    5BIM    C3132522   9.082   2.400   7.622 -0.0420 -0.3770 -0.3830
    1BTD     S232523   0.206   5.851   8.930  0.0490 -0.0074  0.0187
    1BTD     N132524   0.163   6.021   8.888  0.1077 -0.0407 -0.1767
    1BTD     N232525   0.037   5.791   8.920 -0.0002  0.0812  0.2906
    1BTD     N332526  -0.384   5.974   8.823  0.0057  0.2021  0.4935
    1BTD     N432527  -0.228   6.257   8.784  0.1385  0.0519 -0.0823
    1BTD     C532528  -0.043   6.141   8.834  0.1221  0.0094 -0.1202
    1BTD     C632529   0.032   6.023   8.870  0.0886  0.0132 -0.0358
    1BTD     C732530  -0.039   5.895   8.887  0.0281  0.0814  0.2255
    1BTD     C832531  -0.181   5.890   8.869  0.0045  0.1425  0.3896
    1BTD    C1532532  -0.251   6.007   8.834  0.0389  0.1361  0.2987
    1BTD    C1632533  -0.182   6.131   8.817  0.0972  0.0706  0.0467
    1BTD    C4332534  -0.348   6.277   8.700 -0.1398 -0.3473 -0.0136
    1BTD    C4432535  -0.414   6.414   8.671 -0.3992  1.2781  0.2071
    1BTD    C4532536  -0.520   6.449   8.774  0.0911  0.1547  0.0649
    1BTD    C4632537  -0.655   6.373   8.775 -0.2390  1.0982 -0.2412
    1BTD    C4732538  -0.463   6.440   8.531  0.5036  0.0134  0.0358
    1BTD    C4832539  -0.381   6.425   8.408  0.0433  0.7782  0.3887
    1BTD    C4932540  -0.237   6.479   8.423  0.3471  0.8744  0.4823
    1BTD    C5032541  -0.154   6.474   8.302 -0.6435 -0.4846  0.7734
    1BTD    C7532542  -0.497   6.055   8.865  0.2605 -0.4186  0.8004
    1BTD    C7632543  -0.568   6.031   8.998  0.1475  0.1565 -0.2964
    1BTD    C7732544  -0.483   6.012   9.129 -0.1691  0.2034  0.0929
    1BTD    C7832545  -0.430   6.138   9.197 -0.2956 -0.6011  0.4012
    1BTD    C7932546  -0.697   6.105   8.999  0.1373 -0.7085  0.3946
    1BTD    C8032547  -0.794   6.070   9.102  0.5650 -0.0023  0.3256
    1BTD    C8132548  -0.921   6.151   9.070  0.0299 -0.3524  0.9026
    1BTD    C8232549  -1.042   6.125   9.151 -0.1751  0.2494  0.5305
    2TTP     S132550   0.131   6.382   8.868 -0.1268  0.0879  0.1954
    2TTP     S532551  -0.198   6.639   8.765  0.2835  0.4332 -0.2620
    2TTP     C132552  -0.055   6.743   8.808  0.3186  0.2844 -0.0182
    2TTP     C232553   0.055   6.669   8.843  0.1942  0.1688  0.1371
    2TTP     C332554   0.031   6.529   8.836  0.0663  0.1938  0.0699
    2TTP     C432555  -0.011   6.278   8.825 -0.1622  0.2366 -0.0482
    2TTP    C1732556  -0.122   6.351   8.790 -0.0377  0.3524 -0.2035
    2TTP    C1832557  -0.097   6.492   8.797  0.0904  0.3273 -0.1364
    2TTP    C3232558   0.188   6.724   8.892  0.0613  0.0908  0.0996
    2TTP    C3332559   0.184   6.731   9.046  0.3628  0.1809 -0.2859
    2TTP    C3432560   0.315   6.794   9.090 -0.1239 -0.1719  0.2752
    2TTP    C3532561   0.327   6.800   9.239 -0.1440  0.3869  0.4618
    2TTP    C3632562   0.463   6.850   9.291 -0.2505  0.5615 -0.5025
    2TTP    C3732563   0.457   6.852   9.450 -0.2378  0.0769  0.1259
    2TTP    C3832564   0.580   6.913   9.506 -0.3049  0.1824 -0.3853
    2TTP    C3932565   0.589   7.066   9.492 -0.9728 -0.0640  0.3487
    2TTP    C4032566   0.711   7.138   9.550 -0.3350 -0.5349  0.4168
    2TTP    C4132567   0.748   7.114   9.697 -0.3961  0.4476  0.1869
    2TTP    C4232568   0.851   7.212   9.733  0.1659 -0.4153 -0.1003
    3TTP     S132569  -0.281   5.604   8.882 -0.0941  0.1882 -0.1543
    3TTP     S532570  -0.667   5.734   8.745 -0.2286 -0.0607 -0.0134
    3TTP     C132571  -0.667   5.552   8.755 -0.0214 -0.0761 -0.2691
    3TTP     C232572  -0.548   5.502   8.798  0.0322 -0.0001 -0.3278
    3TTP     C332573  -0.452   5.604   8.824 -0.0880  0.0730 -0.1724
    3TTP     C432574  -0.281   5.786   8.872 -0.3014  0.2034  0.1013
    3TTP    C1732575  -0.400   5.837   8.829 -0.3548  0.1274  0.1601
    3TTP    C1832576  -0.496   5.734   8.803 -0.2344  0.0545  0.0052
    3TTP    C3232577  -0.500   5.359   8.814  0.5028 -0.0321 -0.4911
    3TTP    C3332578  -0.486   5.299   8.955 -0.3846  0.3988 -0.0244
    3TTP    C3432579  -0.436   5.156   8.955  0.8638 -0.2499 -0.3576
    3TTP    C3532580  -0.462   5.102   9.094  0.2702  0.3128  0.1876
    3TTP    C3632581  -0.421   4.956   9.115 -0.1017 -0.4188  0.3313
    3TTP    C3732582  -0.462   4.883   9.240  0.2818 -0.1724 -0.3286
    3TTP    C3832583  -0.444   4.734   9.256 -0.3778  0.1280  1.1295
    3TTP    C3932584  -0.295   4.692   9.253  0.3040 -0.4957  0.3215
    3TTP    C4032585  -0.295   4.547   9.287 -0.5932  0.2901  0.3280
    3TTP    C4132586  -0.163   4.468   9.282 -0.2130 -1.0850  0.2947
    3TTP    C4232587  -0.184   4.322   9.299 -0.1863  0.6123 -0.2045
    4BIM     F132588  -0.538   7.330   8.490  0.2067  0.0560 -0.3343
    4BIM     F232589  -0.374   7.517   8.600  0.0255  0.0216 -0.0041
    4BIM     O132590  -0.291   6.873   8.645  0.1106  0.0106 -0.3138
    4BIM     N532591   0.037   7.461   8.869 -0.3037 -0.0603  0.4854
    4BIM     N632592   0.198   7.067   8.968 -0.3424 -0.0886  0.4351
    4BIM    C1932593  -0.046   6.890   8.805 -0.0967 -0.0382  0.0093
    4BIM    C2032594  -0.115   6.998   8.762 -0.0656 -0.0255 -0.0088
    4BIM    C2132595  -0.240   6.981   8.680  0.0424 -0.0006 -0.1791
    4BIM    C2232596  -0.289   7.117   8.650  0.0505  0.0082 -0.1538
    4BIM    C2332597  -0.402   7.152   8.576  0.1361  0.0303 -0.2749
    4BIM    C2432598  -0.428   7.288   8.561  0.1254  0.0344 -0.2210
    4BIM    C2532599  -0.343   7.384   8.618  0.0318  0.0165 -0.0509
    4BIM    C2632600  -0.231   7.349   8.692 -0.0536 -0.0056  0.0708
    4BIM    C2732601  -0.202   7.213   8.708 -0.0443 -0.0101  0.0186
    4BIM    C2832602  -0.092   7.143   8.779 -0.1194 -0.0314  0.1147
    4BIM    C2932603   0.011   7.203   8.848 -0.2196 -0.0526  0.2849
    4BIM    C3032604   0.025   7.345   8.859 -0.2654 -0.0567  0.3948
    4BIM    C3132605   0.113   7.128   8.914 -0.2866 -0.0722  0.3667
    5BIM     F132606  -1.420   5.652   8.438  0.0021 -0.1717 -0.1509
    5BIM     F232607  -1.492   5.416   8.553  0.1552 -0.3064 -0.3307
    5BIM     O132608  -0.899   5.682   8.580 -0.0167  0.0565 -0.1314
    5BIM     N532609  -1.223   5.098   8.821  0.3622 -0.3377 -0.5741
    5BIM     N632610  -0.801   5.169   8.909  0.3164 -0.1323 -0.5226
    5BIM    C1932611  -0.782   5.467   8.741  0.1230  0.0087 -0.2954
    5BIM    C2032612  -0.910   5.469   8.701  0.1216 -0.0436 -0.2935
    5BIM    C2132613  -0.963   5.583   8.618  0.0477 -0.0144 -0.2065
    5BIM    C2232614  -1.105   5.553   8.592  0.0665 -0.0861 -0.2284
    5BIM    C2332615  -1.196   5.630   8.519  0.0169 -0.0890 -0.1693
    5BIM    C2432616  -1.325   5.581   8.508  0.0482 -0.1642 -0.2054
    5BIM    C2532617  -1.362   5.459   8.567  0.1268 -0.2335 -0.2982
    5BIM    C2632618  -1.272   5.382   8.640  0.1774 -0.2308 -0.3572
    5BIM    C2732619  -1.140   5.430   8.653  0.1466 -0.1556 -0.3219
    5BIM    C2832620  -1.022   5.373   8.722  0.1836 -0.1321 -0.3657
    5BIM    C2932621  -1.017   5.255   8.792  0.2604 -0.1829 -0.4556
    5BIM    C3032622  -1.130   5.169   8.808  0.3159 -0.2679 -0.5207
    5BIM    C3132623  -0.898   5.209   8.856  0.2909 -0.1549 -0.4921
    1BTD     S232624   7.975   3.954   8.327 -0.2557 -0.1617 -0.0454
    1BTD     N132625   7.831   3.911   8.228 -0.0936 -0.2701 -0.2353
    1BTD     N232626   7.985   3.794   8.408 -0.3165 -0.1125  0.0606
    1BTD     N332627   7.748   3.389   8.394 -0.1475 -0.2079 -0.0679
    1BTD     N432628   7.557   3.533   8.173  0.1272 -0.4019 -0.4323
    1BTD     C532629   7.690   3.712   8.202  0.0182 -0.3366 -0.3338
    1BTD     C632630   7.800   3.785   8.259 -0.0932 -0.2642 -0.2117
    1BTD     C732631   7.886   3.720   8.359 -0.2178 -0.1761 -0.0460
    1BTD     C832632   7.859   3.584   8.398 -0.2249 -0.1647 -0.0112
    1BTD    C1532633   7.750   3.516   8.340 -0.1133 -0.2374 -0.1343
    1BTD    C1632634   7.667   3.579   8.243  0.0068 -0.3222 -0.2940
    1BTD    C4332635   7.456   3.447   8.235  0.4872  0.0944  0.3948
    1BTD    C4432636   7.352   3.361   8.161  0.1857  0.3891  0.2097
    1BTD    C4532637   7.255   3.290   8.266 -0.1239 -0.3671 -0.0676
    1BTD    C4632638   7.167   3.394   8.341  0.0374 -0.8044  0.2808
    1BTD    C4732639   7.420   3.254   8.067  0.1707 -0.4952 -0.1909
    1BTD    C4832640   7.323   3.176   7.974 -0.7231 -0.1610 -0.1612
    1BTD    C4932641   7.382   3.065   7.898 -0.0300 -0.2013  0.1091
    1BTD    C5032642   7.461   3.114   7.781  0.3201  0.4118 -0.5025
    1BTD    C7532643   7.707   3.274   8.313  0.5948 -0.3331 -0.8390
    1BTD    C7632644   7.672   3.128   8.368 -0.5634 -0.7288 -0.5248
    1BTD    C7732645   7.672   3.012   8.269 -0.2215  0.5136 -0.3182
    1BTD    C7832646   7.766   3.007   8.149  0.2407 -0.2708  0.2950
    1BTD    C7932647   7.549   3.141   8.454  0.6863  0.1003  0.4718
    1BTD    C8032648   7.470   3.024   8.519 -0.9006  0.7120 -0.1553
    1BTD    C8132649   7.546   2.941   8.626  0.3581 -0.1433  0.3820
    1BTD    C8232650   7.453   2.830   8.670  0.4698  0.1620 -0.2801
    2TTP     S132651   7.571   3.867   7.974  0.0440 -0.0301 -0.1519
    2TTP     S532652   7.336   3.522   7.870 -0.1569 -0.0048  0.2160
    2TTP     C132653   7.310   3.650   7.743 -0.2526 -0.0444  0.1950
    2TTP     C232654   7.381   3.764   7.768 -0.1962 -0.0545  0.0802
    2TTP     C332655   7.459   3.754   7.888 -0.0753 -0.0315  0.0045
    2TTP     C432656   7.597   3.739   8.101  0.1398  0.0095 -0.1311
    2TTP    C1732657   7.525   3.625   8.076  0.0833  0.0195 -0.0165
    2TTP    C1832658   7.448   3.635   7.956 -0.0376 -0.0035  0.0594
    2TTP    C3232659   7.387   3.896   7.690  0.4630  0.0680  0.6975
    2TTP    C3332660   7.336   4.015   7.767  0.2387 -0.7074  0.0096
    2TTP    C3432661   7.292   4.139   7.689 -0.0592  0.1306 -0.2062
    2TTP    C3532662   7.387   4.189   7.576  0.4351  1.0045  0.1722
    2TTP    C3632663   7.334   4.313   7.499  0.0064  0.0063 -0.3367
    2TTP    C3732664   7.413   4.358   7.374  0.0266 -0.5510  0.8349
    2TTP    C3832665   7.372   4.502   7.329  0.3571 -1.2099 -0.2474
    2TTP    C3932666   7.398   4.616   7.433  0.3610 -0.9390  0.3716
    2TTP    C4032667   7.362   4.753   7.377  0.3286 -0.0477  0.0660
    2TTP    C4132668   7.220   4.780   7.332 -0.2199  0.1423 -0.1475
    2TTP    C4232669   7.202   4.925   7.297  0.1068  0.1422 -0.0789
    3TTP     S132670   8.056   3.490   8.618 -0.0051  0.1297  0.0841
    3TTP     S532671   7.858   3.109   8.617  0.1491  0.0494  0.0973
    3TTP     C132672   7.994   3.103   8.738 -0.1438  0.2618  0.4410
    3TTP     C232673   8.063   3.221   8.746 -0.2086  0.2990  0.4570
    3TTP     C332674   8.011   3.319   8.656 -0.0293  0.1613  0.1984
    3TTP     C432675   7.920   3.496   8.497  0.2879 -0.0826 -0.2594
    3TTP    C1732676   7.851   3.378   8.490  0.3530 -0.1199 -0.2755
    3TTP    C1832677   7.902   3.280   8.580  0.1737  0.0179 -0.0172
    3TTP    C3232678   8.178   3.258   8.834  0.3318 -0.3938  0.0826
    3TTP    C3332679   8.149   3.348   8.959 -0.3908  0.5053  0.2811
    3TTP    C3432680   8.285   3.389   9.018 -0.3656  0.3318  0.4759
    3TTP    C3532681   8.318   3.304   9.142  0.1061  0.0788 -0.1843
    3TTP    C3632682   8.456   3.331   9.210 -0.1588 -0.0176  0.2214
    3TTP    C3732683   8.491   3.476   9.256 -0.0380  0.1087  0.0622
    3TTP    C3832684   8.634   3.505   9.298  0.2521 -0.5290 -0.0342
    3TTP    C3932685   8.687   3.436   9.426  0.1091 -0.4461 -0.3900
    3TTP    C4032686   8.839   3.445   9.446  0.3100  0.2940 -0.0772
    3TTP    C4132687   8.879   3.425   9.588 -0.3052 -0.4288 -0.2728
    3TTP    C4232688   8.853   3.541   9.687 -0.5302  0.1276 -0.2017
    4BIM     F132689   6.804   3.085   7.436  0.0103  0.0863  0.1411
    4BIM     F232690   6.699   3.277   7.274  0.1755 -0.0165 -0.0879
    4BIM     O132691   7.190   3.367   7.691 -0.0178  0.1613  0.1009
    4BIM     N532692   6.824   3.754   7.223  0.3930 -0.1108 -0.4461
    4BIM     N632693   7.146   3.935   7.455  0.3380 -0.0315 -0.4317
    4BIM    C1932694   7.227   3.650   7.627  0.1302  0.0897 -0.1325
    4BIM    C2032695   7.134   3.572   7.569  0.1309  0.0748 -0.1135
    4BIM    C2132696   7.121   3.427   7.608  0.0521  0.1139  0.0092
    4BIM    C2232697   7.011   3.372   7.526  0.0749  0.0851 -0.0017
    4BIM    C2332698   6.962   3.241   7.527  0.0226  0.1046  0.0883
    4BIM    C2432699   6.857   3.212   7.441  0.0582  0.0696  0.0568
    4BIM    C2532700   6.803   3.311   7.358  0.1432  0.0166 -0.0614
    4BIM    C2632701   6.852   3.442   7.357  0.1956 -0.0032 -0.1515
    4BIM    C2732702   6.958   3.473   7.443  0.1609  0.0317 -0.1212
    4BIM    C2832703   7.031   3.600   7.466  0.1986  0.0234 -0.1945
    4BIM    C2932704   7.008   3.720   7.404  0.2807 -0.0233 -0.3150
    4BIM    C3032705   6.907   3.738   7.305  0.3421 -0.0712 -0.3867
    4BIM    C3132706   7.084   3.837   7.432  0.3117 -0.0275 -0.3785
    5BIM     F132707   7.940   2.311   8.546 -0.4008 -0.1179  0.0656
    5BIM     F232708   8.039   2.249   8.792  0.2561 -0.0789 -0.1850
    5BIM     O132709   7.946   2.852   8.566 -0.6888 -0.1151  0.0951
    5BIM     N532710   8.186   2.546   9.160  0.9954 -0.0209 -0.5238
    5BIM     N632711   8.171   2.981   9.126  0.6380 -0.0265 -0.4499
    5BIM    C1932712   8.043   2.985   8.808 -0.1635 -0.0769 -0.1334
    5BIM    C2032713   8.038   2.852   8.794 -0.1168 -0.0791 -0.1314
    5BIM    C2132714   7.987   2.791   8.666 -0.3991 -0.0992 -0.0098
    5BIM    C2232715   7.994   2.644   8.684 -0.2635 -0.0964 -0.0408
    5BIM    C2332716   7.958   2.546   8.592 -0.4314 -0.1107  0.0410
    5BIM    C2432717   7.974   2.414   8.631 -0.2502 -0.1044 -0.0103
    5BIM    C2532718   8.025   2.382   8.758  0.0880 -0.0843 -0.1394
    5BIM    C2632719   8.061   2.480   8.850  0.2575 -0.0699 -0.2210
    5BIM    C2732720   8.046   2.614   8.812  0.0782 -0.0759 -0.1712
    5BIM    C2832721   8.075   2.740   8.885  0.1819 -0.0646 -0.2320
    5BIM    C2932722   8.126   2.752   9.012  0.4947 -0.0445 -0.3574
    5BIM    C3032723   8.158   2.638   9.093  0.7689 -0.0316 -0.4485
    5BIM    C3132724   8.150   2.878   9.074  0.5715 -0.0347 -0.4075
    1BTD     S232725   1.884   7.802   6.091  0.2429 -0.1007 -0.0059
    1BTD     N132726   1.757   7.851   5.974  0.0749  0.1321  0.2706
    1BTD     N232727   1.799   7.652   6.143  0.3988 -0.2928 -0.3054
    1BTD     N332728   1.397   7.435   6.035  0.4131 -0.2642 -0.4169
    1BTD     N432729   1.345   7.680   5.827  0.0140  0.2593  0.2929
    1BTD     C532730   1.542   7.759   5.900  0.0480  0.1922  0.2737
    1BTD     C632731   1.662   7.758   5.979  0.1403  0.0584  0.1324
    1BTD     C732732   1.686   7.647   6.073  0.3216 -0.1794 -0.1899
    1BTD     C832733   1.588   7.542   6.084  0.4014 -0.2717 -0.3550
    1BTD    C1532734   1.472   7.547   6.005  0.3061 -0.1342 -0.2074
    1BTD    C1632735   1.449   7.654   5.914  0.1313  0.0948  0.1033
    1BTD    C4332736   1.200   7.648   5.849  0.1563  0.2886 -0.1153
    1BTD    C4432737   1.097   7.617   5.730 -0.4291  0.2295 -1.2792
    1BTD    C4532738   0.949   7.646   5.779 -0.6025 -0.0603 -0.5666
    1BTD    C4632739   0.843   7.674   5.676 -0.6725 -0.4392 -0.1760
    1BTD    C4732740   1.106   7.483   5.649 -0.2633 -0.1266  0.4799
    1BTD    C4832741   1.236   7.427   5.592  0.0203 -0.0806  0.3899
    1BTD    C4932742   1.220   7.310   5.494 -0.8102  0.4181  0.3902
    1BTD    C5032743   1.359   7.257   5.456  0.2988 -0.1979 -0.1632
    1BTD    C7532744   1.319   7.357   5.936 -0.4361  0.1305 -0.2887
    1BTD    C7632745   1.207   7.257   5.984  0.1709 -0.1325 -0.2443
    1BTD    C7732746   1.152   7.171   5.870  0.0705  0.0671  0.0548
    1BTD    C7832747   1.247   7.081   5.794  0.0573 -0.5101  0.3127
    1BTD    C7932748   1.098   7.335   6.059  0.3971  0.3236 -0.6129
    1BTD    C8032749   0.983   7.260   6.129 -0.3854 -0.1094  0.0067
    1BTD    C8132750   0.875   7.349   6.181  0.0046 -0.7952  0.9112
    1BTD    C8232751   0.741   7.285   6.184  0.2754 -1.0754  0.1019
    2TTP     S132752   1.555   7.984   5.694  0.1443  0.1036  0.1765
    2TTP     S532753   1.175   7.858   5.537  0.0620  0.1247  0.3577
    2TTP     C132754   1.230   8.005   5.445  0.0679  0.0699  0.2732
    2TTP     C232755   1.350   8.053   5.488  0.0938  0.0601  0.2122
    2TTP     C332756   1.404   7.975   5.595  0.1097  0.0956  0.2301
    2TTP     C432757   1.500   7.837   5.786  0.1383  0.1584  0.2611
    2TTP    C1732758   1.380   7.789   5.743  0.1126  0.1681  0.3221
    2TTP    C1832759   1.326   7.868   5.635  0.0966  0.1328  0.3041
    2TTP    C3232760   1.423   8.174   5.435 -0.0635  0.5081 -0.0724
    2TTP    C3332761   1.562   8.163   5.384 -0.4926  0.2512 -0.1147
    2TTP    C3432762   1.637   8.299   5.351  0.5074  0.6436  0.7877
    2TTP    C3532763   1.777   8.275   5.302 -0.2249 -0.5397 -0.1362
    2TTP    C3632764   1.854   8.400   5.269 -0.2289 -0.3328  0.3968
    2TTP    C3732765   1.992   8.378   5.211  0.0461  0.2237  0.2011
    2TTP    C3832766   2.071   8.502   5.159 -0.0788 -0.1623 -0.7930
    2TTP    C3932767   2.005   8.571   5.036  0.0380  0.0253 -0.0000
    2TTP    C4032768   2.025   8.716   5.013  0.0042 -0.4643  0.2861
    2TTP    C4132769   1.949   8.809   5.101 -0.0036  0.0342 -0.4932
    2TTP    C4232770   1.940   8.955   5.040  0.4894  0.5744 -0.4052
    3TTP     S132771   1.669   7.369   6.310 -0.0659 -0.3221 -0.1858
    3TTP     S532772   1.296   7.159   6.272 -0.1461 -0.2040 -0.0510
    3TTP     C132773   1.376   7.107   6.427 -0.0711 -0.2855 -0.1172
    3TTP     C232774   1.496   7.169   6.448 -0.0418 -0.3270 -0.1628
    3TTP     C332775   1.529   7.259   6.342 -0.0777 -0.2955 -0.1470
    3TTP     C432776   1.589   7.421   6.155 -0.1409 -0.2403 -0.1197
    3TTP    C1732777   1.469   7.359   6.134 -0.1701 -0.1990 -0.0741
    3TTP    C1832778   1.436   7.269   6.240 -0.1342 -0.2304 -0.0898
    3TTP    C3232779   1.581   7.159   6.570 -0.3276  0.0784 -0.9601
    3TTP    C3332780   1.566   7.280   6.668 -0.2638  0.5044 -0.1301
    3TTP    C3432781   1.651   7.280   6.796 -0.3273 -0.2188 -0.4381
    3TTP    C3532782   1.619   7.177   6.904  0.3851  0.1802  0.4283
    3TTP    C3632783   1.478   7.182   6.955 -0.7830  0.3937  0.1876
    3TTP    C3732784   1.471   7.135   7.102  0.1261  0.1136 -0.1955
    3TTP    C3832785   1.330   7.122   7.162 -0.5192 -0.5313  0.3929
    3TTP    C3932786   1.257   7.000   7.108 -0.8502 -0.2193  0.3553
    3TTP    C4032787   1.113   7.004   7.145  0.3728  0.9204  0.1573
    3TTP    C4132788   1.056   6.867   7.097 -0.5280  0.7862 -0.1542
    3TTP    C4232789   0.903   6.866   7.101 -0.2627  0.1285  0.6848
    4BIM     F132790   0.505   7.883   5.072  0.0550 -0.0211 -0.0360
    4BIM     F232791   0.563   8.091   4.907  0.1066 -0.0577 -0.0637
    4BIM     O132792   0.947   7.876   5.384  0.0978 -0.1515 -0.0995
    4BIM     N532793   0.960   8.386   4.891  0.2113 -0.2036 -0.1489
    4BIM     N632794   1.294   8.338   5.169  0.2343 -0.2980 -0.1929
    4BIM    C1932795   1.159   8.072   5.337  0.1623 -0.2331 -0.1486
    4BIM    C2032796   1.046   8.066   5.265  0.1495 -0.1986 -0.1316
    4BIM    C2132797   0.941   7.962   5.295  0.1162 -0.1580 -0.1068
    4BIM    C2232798   0.832   7.983   5.199  0.1099 -0.1276 -0.0929
    4BIM    C2332799   0.713   7.911   5.188  0.0821 -0.0856 -0.0689
    4BIM    C2432800   0.624   7.950   5.089  0.0817 -0.0627 -0.0595
    4BIM    C2532801   0.654   8.057   5.003  0.1083 -0.0816 -0.0740
    4BIM    C2632802   0.772   8.129   5.014  0.1361 -0.1237 -0.0979
    4BIM    C2732803   0.864   8.092   5.114  0.1369 -0.1473 -0.1075
    4BIM    C2832804   0.996   8.147   5.151  0.1624 -0.1915 -0.1320
    4BIM    C2932805   1.060   8.253   5.092  0.1921 -0.2208 -0.1510
    4BIM    C3032806   1.005   8.326   4.982  0.2026 -0.2110 -0.1498
    4BIM    C3132807   1.189   8.299   5.134  0.2152 -0.2630 -0.1739
    5BIM     F132808   0.641   6.765   6.556 -0.2842 -0.2146 -0.3610
    5BIM     F232809   0.751   6.620   6.758 -0.4959  0.1434  0.0129
    5BIM     O132810   1.070   7.049   6.388 -0.1222 -0.4672 -0.3747
    5BIM     N532811   1.215   6.614   6.929 -0.6847  0.4784  0.5405
    5BIM     N632812   1.528   6.865   6.757 -0.5154  0.2086  0.4543
    5BIM    C1932813   1.327   7.011   6.522 -0.2669 -0.2149 -0.0226
    5BIM    C2032814   1.215   6.946   6.556 -0.2994 -0.1652 -0.0337
    5BIM    C2132815   1.086   6.970   6.482 -0.2202 -0.3029 -0.2198
    5BIM    C2232816   0.985   6.883   6.545 -0.2819 -0.2041 -0.1817
    5BIM    C2332817   0.851   6.871   6.511 -0.2432 -0.2743 -0.3105
    5BIM    C2432818   0.774   6.782   6.584 -0.3170 -0.1542 -0.2412
    5BIM    C2532819   0.831   6.707   6.688 -0.4260  0.0302 -0.0485
    5BIM    C2632820   0.965   6.719   6.723 -0.4652  0.1012  0.0809
    5BIM    C2732821   1.044   6.809   6.650 -0.3916 -0.0184  0.0134
    5BIM    C2832822   1.188   6.844   6.661 -0.4067  0.0129  0.1118
    5BIM    C2932823   1.278   6.793   6.751 -0.5020  0.1758  0.3017
    5BIM    C3032824   1.243   6.695   6.849 -0.6022  0.3415  0.4324
    5BIM    C3132825   1.415   6.833   6.754 -0.5088  0.1930  0.3847
    1BTD     S232826   6.964   4.274   7.451  0.2194 -0.0275  0.2779
    1BTD     N132827   6.869   4.412   7.385  0.3060 -0.2073 -0.2301
    1BTD     N232828   6.819   4.173   7.489  0.1544  0.2155  0.6871
    1BTD     N332829   6.354   4.218   7.446  0.1779  0.3867  0.6038
    1BTD     N432830   6.415   4.511   7.319  0.3648 -0.1343 -0.5265
    1BTD     C532831   6.631   4.460   7.352  0.3345 -0.1628 -0.3712
    1BTD     C632832   6.741   4.377   7.394  0.2830 -0.0832 -0.0763
    1BTD     C732833   6.713   4.244   7.452  0.1981  0.1535  0.4370
    1BTD     C832834   6.577   4.200   7.465  0.1688  0.2986  0.6300
    1BTD    C1532835   6.472   4.284   7.422  0.2213  0.2132  0.3280
    1BTD    C1632836   6.499   4.413   7.366  0.3031 -0.0147 -0.1668
    1BTD    C4332837   6.286   4.490   7.242  0.0204  0.1958 -0.2558
    1BTD    C4432838   6.178   4.597   7.231 -0.3793  0.3404 -0.5284
    1BTD    C4532839   6.068   4.554   7.130  0.2053 -0.5270 -0.5101
    1BTD    C4632840   5.976   4.429   7.129  0.1853 -0.0822  0.2501
    1BTD    C4732841   6.115   4.626   7.373 -0.2221  0.8720 -0.0189
    1BTD    C4832842   6.017   4.730   7.396  0.5023 -0.6388 -0.4847
    1BTD    C4932843   5.946   4.734   7.535 -0.1318  0.3078 -0.1772
    1BTD    C5032844   5.850   4.847   7.537 -0.0354 -0.0452  0.1206
    1BTD    C7532845   6.210   4.263   7.461  0.1238 -0.3861 -0.0698
    1BTD    C7632846   6.137   4.293   7.595 -0.1074  0.4151  0.3716
    1BTD    C7732847   6.217   4.379   7.692 -0.1898  0.2136 -0.4466
    1BTD    C7832848   6.174   4.390   7.838 -0.2097 -0.9793  0.4217
    1BTD    C7932849   5.994   4.337   7.573 -0.0645 -0.2281 -0.0820
    1BTD    C8032850   5.896   4.244   7.491  0.0370  0.5155  0.1546
    1BTD    C8132851   5.817   4.145   7.576  0.6299 -0.6294  0.4993
    1BTD    C8232852   5.732   4.067   7.478 -0.3439  0.2130 -0.3028
    2TTP     S132853   6.736   4.732   7.270 -0.2340 -0.0345  0.1787
    2TTP     S532854   6.331   4.871   7.229 -0.1322  0.2328  0.0764
    2TTP     C132855   6.444   5.010   7.194 -0.0314  0.1454  0.0547
    2TTP     C232856   6.575   4.975   7.205 -0.0567  0.0578  0.0850
    2TTP     C332857   6.592   4.838   7.241 -0.1570  0.0564  0.1264
    2TTP     C432858   6.623   4.594   7.305 -0.3349  0.0529  0.2005
    2TTP    C1732859   6.492   4.628   7.294 -0.3095  0.1406  0.1702
    2TTP    C1832860   6.475   4.766   7.258 -0.2093  0.1419  0.1286
    2TTP    C3232861   6.703   5.060   7.179  0.4715 -0.4641 -0.6746
    2TTP    C3332862   6.816   5.054   7.284  0.2571 -0.8102  0.0172
    2TTP    C3432863   6.780   5.072   7.433  0.2656  0.1026  0.5037
    2TTP    C3532864   6.710   5.199   7.477  0.4540  0.5531 -0.2407
    2TTP    C3632865   6.650   5.192   7.617 -0.4477  0.3915 -0.5442
    2TTP    C3732866   6.520   5.271   7.622 -0.8157  0.3569  0.0218
    2TTP    C3832867   6.399   5.222   7.543 -0.6449 -0.0991 -0.4570
    2TTP    C3932868   6.329   5.084   7.576 -0.3525 -0.4058 -0.1789
    2TTP    C4032869   6.419   4.960   7.572 -0.2128  0.7029  0.1258
    2TTP    C4132870   6.348   4.842   7.640  0.1611 -0.3358  0.0604
    2TTP    C4232871   6.449   4.729   7.674 -0.0148 -0.5895  0.2361
    3TTP     S132872   6.564   3.919   7.592 -0.1194 -0.3031 -0.1900
    3TTP     S532873   6.135   3.928   7.559 -0.1118  0.1776 -0.1777
    3TTP     C132874   6.185   3.770   7.635 -0.2883  0.1337 -0.1540
    3TTP     C232875   6.320   3.758   7.650 -0.3010 -0.0174 -0.1563
    3TTP     C332876   6.390   3.873   7.602 -0.1719 -0.1039 -0.1769
    3TTP     C432877   6.515   4.077   7.516  0.0572 -0.2593 -0.2136
    3TTP    C1732878   6.380   4.089   7.501  0.0699 -0.1081 -0.2115
    3TTP    C1832879   6.310   3.974   7.550 -0.0594 -0.0216 -0.1907
    3TTP    C3232880   6.394   3.637   7.709 -0.1417  0.3318 -0.0275
    3TTP    C3332881   6.515   3.574   7.629  0.4144 -0.1256 -0.3396
    3TTP    C3432882   6.562   3.438   7.674 -0.4338 -0.0262  0.3609
    3TTP    C3532883   6.451   3.336   7.695 -0.4053 -0.2096 -0.1009
    3TTP    C3632884   6.356   3.294   7.585 -0.2163 -0.1352  0.0249
    3TTP    C3732885   6.427   3.209   7.471  0.5541  0.3504  0.1648
    3TTP    C3832886   6.315   3.141   7.391 -0.3331 -0.0640  0.7356
    3TTP    C3932887   6.372   3.050   7.280  0.7183 -0.5557  0.2071
    3TTP    C4032888   6.253   3.012   7.190  0.6090 -0.0582  0.0345
    3TTP    C4132889   6.287   2.891   7.117 -0.4043  0.2076 -0.2836
    3TTP    C4232890   6.175   2.867   7.022  0.4932 -0.9470  0.0287
    4BIM     F132891   5.735   5.379   7.024  0.0606  0.0750  0.0027
    4BIM     F232892   5.859   5.617   7.067  0.2626  0.0601 -0.4921
    4BIM     O132893   6.147   5.035   7.100 -0.1271 -0.0908  0.2733
    4BIM     N532894   6.330   5.716   7.181  0.4195 -0.0795 -1.0105
    4BIM     N632895   6.627   5.399   7.232  0.2320 -0.2060 -0.6993
    4BIM    C1932896   6.411   5.141   7.168 -0.0008 -0.1639 -0.1033
    4BIM    C2032897   6.303   5.218   7.147  0.0385 -0.1216 -0.1519
    4BIM    C2132898   6.170   5.156   7.113 -0.0315 -0.0858  0.0516
    4BIM    C2232899   6.075   5.268   7.097  0.0361 -0.0442 -0.0646
    4BIM    C2332900   5.939   5.260   7.065  0.0066 -0.0020  0.0499
    4BIM    C2432901   5.869   5.379   7.056  0.0844  0.0324 -0.0984
    4BIM    C2532902   5.933   5.502   7.077  0.1884  0.0246 -0.3532
    4BIM    C2632903   6.068   5.511   7.109  0.2185 -0.0173 -0.4689
    4BIM    C2732904   6.141   5.391   7.119  0.1409 -0.0525 -0.3215
    4BIM    C2832905   6.284   5.365   7.151  0.1465 -0.1005 -0.3854
    4BIM    C2932906   6.379   5.460   7.178  0.2348 -0.1214 -0.6168
    4BIM    C3032907   6.352   5.600   7.180  0.3359 -0.0981 -0.8324
    4BIM    C3132908   6.515   5.426   7.208  0.2328 -0.1677 -0.6608
    5BIM     F132909   5.406   3.566   7.458 -0.2786  0.2301  0.3642
    5BIM     F232910   5.422   3.364   7.640 -0.1242 -0.0189  0.0767
    5BIM     O132911   5.902   3.779   7.496 -0.2320  0.1510  0.2068
    5BIM     N532912   5.799   3.226   7.929  0.1305 -0.4333 -0.4489
    5BIM     N632913   6.184   3.434   7.923  0.1357 -0.4451 -0.5141
    5BIM    C1932914   6.094   3.662   7.684 -0.0682 -0.1151 -0.1237
    5BIM    C2032915   5.968   3.616   7.667 -0.0859 -0.0855 -0.0730
    5BIM    C2132916   5.875   3.682   7.569 -0.1717  0.0538  0.0988
    5BIM    C2232917   5.748   3.608   7.576 -0.1694  0.0512  0.1131
    5BIM    C2332918   5.632   3.631   7.503 -0.2341  0.1568  0.2497
    5BIM    C2432919   5.524   3.548   7.526 -0.2171  0.1303  0.2339
    5BIM    C2532920   5.532   3.444   7.620 -0.1377  0.0019  0.0855
    5BIM    C2632921   5.648   3.420   7.693 -0.0727 -0.1039 -0.0511
    5BIM    C2732922   5.759   3.503   7.671 -0.0888 -0.0790 -0.0376
    5BIM    C2832923   5.894   3.505   7.731 -0.0343 -0.1681 -0.1578
    5BIM    C2932924   5.942   3.419   7.827  0.0483 -0.3017 -0.3173
    5BIM    C3032925   5.863   3.313   7.883  0.0932 -0.3736 -0.3890
    5BIM    C3132926   6.075   3.428   7.879  0.0960 -0.3797 -0.4245
    1BTD     S232927   7.887   7.666   2.193  0.0558  0.3024 -0.1773
    1BTD     N132928   7.822   7.796   2.087 -0.3471  0.4699  0.2661
    1BTD     N232929   7.751   7.553   2.162  0.3890 -0.0033 -0.5365
    1BTD     N332930   7.357   7.557   1.906  0.3408 -0.3240 -0.4680
    1BTD     N432931   7.445   7.857   1.814 -0.5661  0.2589  0.5209
    1BTD     C532932   7.624   7.824   1.946 -0.4505  0.3527  0.3873
    1BTD     C632933   7.709   7.751   2.036 -0.2190  0.2981  0.1306
    1BTD     C732934   7.669   7.615   2.078  0.1930  0.0333 -0.3187
    1BTD     C832935   7.546   7.559   2.027  0.3530 -0.1637 -0.4888
    1BTD    C1532936   7.467   7.634   1.939  0.1154 -0.1014 -0.2257
    1BTD    C1632937   7.505   7.765   1.898 -0.2815  0.1537  0.2072
    1BTD    C4332938   7.374   7.820   1.687  0.1681 -0.5048 -0.6852
    1BTD    C4432939   7.277   7.909   1.612 -0.2861  0.2701 -0.1425
    1BTD    C4532940   7.257   7.861   1.472 -0.1509  0.1239  0.8462
    1BTD    C4632941   7.378   7.836   1.372  0.1105 -0.7234 -0.6249
    1BTD    C4732942   7.140   7.933   1.684 -0.0595 -0.5515  0.2895
    1BTD    C4832943   7.030   8.012   1.614 -0.7237  0.5173 -0.2385
    1BTD    C4932944   6.892   7.992   1.667  0.5650  0.4360 -0.2821
    1BTD    C5032945   6.795   8.085   1.595  0.4573 -0.0071 -0.6859
    1BTD    C7532946   7.228   7.586   1.846 -0.5959 -0.6685  0.1050
    1BTD    C7632947   7.107   7.632   1.922 -0.2075  0.1374 -0.8535
    1BTD    C7732948   6.972   7.638   1.851  0.2453 -0.5557  0.3280
    1BTD    C7832949   6.913   7.515   1.784 -0.1262 -0.9576 -0.2041
    1BTD    C7932950   7.135   7.754   2.014  0.2949  0.4445  0.3717
    1BTD    C8032951   7.029   7.810   2.108  0.1624 -0.0532 -0.7452
    1BTD    C8132952   6.966   7.706   2.201 -0.0312  0.1248  0.2615
    1BTD    C8232953   6.880   7.771   2.309 -0.3690  0.0390 -0.2745
    2TTP     S132954   7.731   8.102   1.916  0.1272  0.0285  0.0569
    2TTP     S532955   7.378   8.214   1.698  0.3172  0.0749 -0.2276
    2TTP     C132956   7.479   8.363   1.724  0.2943  0.0694 -0.1067
    2TTP     C232957   7.594   8.337   1.793  0.2342  0.0548 -0.0117
    2TTP     C332958   7.606   8.199   1.828  0.2043  0.0474 -0.0310
    2TTP     C432959   7.630   7.954   1.890  0.1503  0.0339 -0.0641
    2TTP    C1732960   7.514   7.979   1.821  0.2103  0.0486 -0.1591
    2TTP    C1832961   7.502   8.117   1.787  0.2403  0.0560 -0.1397
    2TTP    C3232962   7.701   8.434   1.833 -0.5051  0.1695 -0.3516
    2TTP    C3332963   7.823   8.417   1.746 -0.2410 -0.6766 -0.0520
    2TTP    C3432964   7.927   8.529   1.758 -0.0942  0.5311  0.3897
    2TTP    C3532965   8.013   8.528   1.879 -0.1898  0.1834  0.4748
    2TTP    C3632966   8.111   8.645   1.887  0.1609 -0.1063  0.5217
    2TTP    C3732967   8.207   8.645   2.007 -0.3909 -0.3714 -0.0127
    2TTP    C3832968   8.314   8.749   1.974  0.2728 -0.0499 -0.0987
    2TTP    C3932969   8.371   8.810   2.101  0.1497 -1.0306  0.3642
    2TTP    C4032970   8.467   8.931   2.091  0.4791  0.1349 -0.3705
    2TTP    C4132971   8.488   9.013   2.222  1.1727 -0.7065  1.1558
    2TTP    C4232972   8.364   9.101   2.265  0.4231 -0.0474 -0.1378
    3TTP     S132973   7.500   7.268   2.130  0.0171 -0.2168 -0.1139
    3TTP     S532974   7.141   7.249   1.895 -0.2815 -0.0880  0.3284
    3TTP     C132975   7.163   7.090   1.979 -0.1650 -0.1402  0.1998
    3TTP     C232976   7.276   7.086   2.057 -0.0659 -0.1831  0.0556
    3TTP     C332977   7.348   7.209   2.053 -0.0784 -0.1763  0.0416
    3TTP     C432978   7.478   7.427   2.046 -0.0993 -0.1646  0.0148
    3TTP    C1732979   7.366   7.431   1.968 -0.1984 -0.1217  0.1589
    3TTP    C1832980   7.293   7.308   1.972 -0.1858 -0.1285  0.1731
    3TTP    C3232981   7.331   6.980   2.153 -0.1391 -0.1454  0.1586
    3TTP    C3332982   7.293   7.017   2.295 -0.9416 -1.0191  0.4484
    3TTP    C3432983   7.384   6.964   2.404 -0.7472  0.5787  0.1844
    3TTP    C3532984   7.500   7.057   2.447  0.1130  0.4158 -0.1994
    3TTP    C3632985   7.600   6.998   2.549 -0.3542  0.3505  0.4919
    3TTP    C3732986   7.669   6.862   2.515  0.3486 -0.2356  0.5584
    3TTP    C3832987   7.779   6.817   2.601  0.1323 -0.2323  0.4865
    3TTP    C3932988   7.853   6.685   2.570  0.4056 -0.0590  0.7260
    3TTP    C4032989   7.968   6.673   2.666  0.0537  0.4596  0.1929
    3TTP    C4132990   8.052   6.551   2.631 -0.7153  0.0392 -0.0817
    3TTP    C4232991   8.160   6.528   2.734 -0.1622 -0.0367  0.0926
    4BIM     F132992   6.969   8.698   1.167 -0.1081  0.1419  0.0998
    4BIM     F232993   7.099   8.935   1.200  0.0080  0.1020 -0.0606
    4BIM     O132994   7.238   8.384   1.517  0.0278  0.1366 -0.0093
    4BIM     N532995   7.476   9.053   1.498  0.2716  0.0410 -0.3690
    4BIM     N632996   7.660   8.760   1.765  0.3542  0.0448 -0.4220
    4BIM    C1932997   7.457   8.500   1.673  0.1867  0.0965 -0.2013
    4BIM    C2032998   7.385   8.569   1.584  0.1479  0.0994 -0.1676
    4BIM    C2132999   7.274   8.503   1.507  0.0664  0.1206 -0.0681
    4BIM    C2233000   7.216   8.606   1.419  0.0418  0.1183 -0.0546
    4BIM    C2333001   7.110   8.592   1.330 -0.0293  0.1335  0.0263
    4BIM    C2433002   7.073   8.705   1.257 -0.0391  0.1276  0.0223
    4BIM    C2533003   7.140   8.827   1.274  0.0207  0.1070 -0.0605
    4BIM    C2633004   7.245   8.841   1.364  0.0919  0.0918 -0.1415
    4BIM    C2733005   7.284   8.729   1.438  0.1029  0.0975 -0.1387
    4BIM    C2833006   7.391   8.711   1.540  0.1706  0.0851 -0.2114
    4BIM    C2933007   7.478   8.807   1.585  0.2407  0.0641 -0.3021
    4BIM    C3033008   7.477   8.942   1.537  0.2573  0.0515 -0.3386
    4BIM    C3133009   7.578   8.781   1.683  0.3027  0.0539 -0.3675
    5BIM     F133010   6.435   6.897   1.650 -0.1099  0.0117  0.2559
    5BIM     F233011   6.462   6.646   1.752  0.0265 -0.1198 -0.1020
    5BIM     O133012   6.891   7.130   1.826 -0.1584 -0.0398  0.4502
    5BIM     N533013   6.827   6.451   2.024  0.1878 -0.3457 -0.4783
    5BIM     N633014   7.178   6.684   2.141  0.1221 -0.3594 -0.2545
    5BIM    C1933015   7.079   6.973   1.986 -0.0457 -0.1837  0.1771
    5BIM    C2033016   6.963   6.924   1.938 -0.0386 -0.1656  0.1422
    5BIM    C2133017   6.872   7.011   1.856 -0.0993 -0.0905  0.2898
    5BIM    C2233018   6.756   6.927   1.820 -0.0739 -0.0894  0.2062
    5BIM    C2333019   6.644   6.964   1.745 -0.1112 -0.0314  0.2894
    5BIM    C2433020   6.547   6.868   1.724 -0.0759 -0.0432  0.1824
    5BIM    C2533021   6.562   6.738   1.776 -0.0058 -0.1112 -0.0021
    5BIM    C2633022   6.672   6.701   1.851  0.0317 -0.1692 -0.0859
    5BIM    C2733023   6.772   6.797   1.874 -0.0030 -0.1582  0.0202
    5BIM    C2833024   6.900   6.790   1.948  0.0215 -0.2077 -0.0265
    5BIM    C2933025   6.950   6.680   2.014  0.0873 -0.2791 -0.1939
    5BIM    C3033026   6.882   6.555   2.019  0.1422 -0.3155 -0.3498
    5BIM    C3133027   7.075   6.683   2.083  0.1061 -0.3228 -0.2262
    1BTD     S233028   2.985   0.698   5.235  0.0500  0.0181 -0.2235
    1BTD     N133029   2.848   0.583   5.250  0.0297  0.0702  0.0060
    1BTD     N233030   3.106   0.585   5.305  0.0983  0.0172 -0.3084
    1BTD     N333031   3.105   0.147   5.474  0.1601  0.1095 -0.0675
    1BTD     N433032   2.787   0.144   5.406  0.0755  0.1748  0.3198
    1BTD     C533033   2.820   0.354   5.332  0.0546  0.1241  0.1651
    1BTD     C633034   2.897   0.472   5.303  0.0585  0.0836  0.0072
    1BTD     C733035   3.041   0.473   5.334  0.0969  0.0539 -0.1687
    1BTD     C833036   3.102   0.356   5.392  0.1296  0.0662 -0.1779
    1BTD    C1533037   3.023   0.243   5.419  0.1244  0.1061 -0.0199
    1BTD    C1633038   2.883   0.242   5.389  0.0875  0.1347  0.1497
    1BTD    C4333039   2.775   0.058   5.524  0.4889  0.4096  0.5754
    1BTD    C4433040   2.704  -0.080   5.529  0.0380 -0.0881 -0.5348
    1BTD    C4533041   2.754  -0.176   5.416  0.2507  0.2619  0.5914
    1BTD    C4633042   2.654  -0.282   5.363  0.2228 -0.8530 -0.1416
    1BTD    C4733043   2.687  -0.140   5.671 -0.0539 -0.0140 -0.0662
    1BTD    C4833044   2.639  -0.049   5.791  0.6531 -0.2028 -0.0886
    1BTD    C4933045   2.637  -0.131   5.918 -0.1613 -0.0071 -0.3003
    1BTD    C5033046   2.570  -0.069   6.041  0.0364 -0.4191  0.0451
    1BTD    C7533047   3.089  -0.001   5.472 -0.4398 -0.1154  0.0417
    1BTD    C7633048   3.110  -0.068   5.333 -0.7309  0.6653 -0.4326
    1BTD    C7733049   3.020  -0.022   5.223 -0.0829  0.1404  0.2018
    1BTD    C7833050   3.026  -0.087   5.085  0.1246 -0.4229 -0.2351
    1BTD    C7933051   3.114  -0.227   5.345 -0.2789  0.5714 -0.9169
    1BTD    C8033052   3.217  -0.288   5.449  0.0609  0.7768 -0.4044
    1BTD    C8133053   3.198  -0.444   5.463  0.5182 -0.0537 -0.3476
    1BTD    C8233054   3.296  -0.514   5.561  0.4997  0.1885  0.1746
    2TTP     S133055   2.541   0.403   5.240  0.0036  0.0634  0.0768
    2TTP     S533056   2.430   0.017   5.394 -0.1976  0.1393  0.1223
    2TTP     C133057   2.280   0.099   5.331 -0.1153  0.1075 -0.1152
    2TTP     C233058   2.306   0.223   5.279 -0.0483  0.0822 -0.1434
    2TTP     C333059   2.444   0.258   5.288 -0.0596  0.0870  0.0218
    2TTP     C433060   2.690   0.320   5.303 -0.0788  0.0953  0.3145
    2TTP    C1733061   2.665   0.197   5.354 -0.1458  0.1206  0.3425
    2TTP    C1833062   2.526   0.162   5.346 -0.1345  0.1158  0.1775
    2TTP    C3233063   2.201   0.330   5.233 -0.3313 -1.0330  0.1667
    2TTP    C3333064   2.126   0.308   5.095 -0.4075 -0.5306  0.4856
    2TTP    C3433065   2.214   0.324   4.969 -0.3608  0.4482 -0.6705
    2TTP    C3533066   2.248   0.472   4.936 -0.4187  0.3193 -0.5201
    2TTP    C3633067   2.347   0.476   4.816  0.3979 -0.3240  0.4532
    2TTP    C3733068   2.380   0.616   4.775  0.7310 -0.4831 -0.5111
    2TTP    C3833069   2.448   0.624   4.642  0.3069 -0.2599  0.1054
    2TTP    C3933070   2.431   0.765   4.582 -0.6487  0.2484 -0.1934
    2TTP    C4033071   2.516   0.793   4.456  0.1290  0.4228 -0.0122
    2TTP    C4133072   2.668   0.748   4.459 -0.2821 -0.9634  0.6162
    2TTP    C4233073   2.727   0.787   4.321 -0.2764  0.1173 -0.1505
    3TTP     S133074   3.394   0.406   5.456 -0.0302 -0.0894  0.1107
    3TTP     S533075   3.412   0.026   5.656 -0.6608 -0.1579  0.0412
    3TTP     C133076   3.569   0.114   5.684 -0.4851 -0.4544 -0.0052
    3TTP     C233077   3.573   0.236   5.624 -0.2800 -0.4507  0.0135
    3TTP     C333078   3.452   0.265   5.553 -0.2542 -0.2136  0.0652
    3TTP     C433079   3.237   0.318   5.428 -0.2059  0.2071  0.1575
    3TTP    C1733080   3.234   0.196   5.488 -0.4110  0.2034  0.1385
    3TTP    C1833081   3.355   0.167   5.558 -0.4368 -0.0337  0.0869
    3TTP    C3233082   3.692   0.334   5.624  0.0362  0.4758  0.9082
    3TTP    C3333083   3.662   0.481   5.635 -0.2101  0.0060 -0.0812
    3TTP    C3433084   3.643   0.531   5.780  0.2579 -0.1813 -0.4069
    3TTP    C3533085   3.661   0.676   5.797 -0.3010 -0.2835 -0.3844
    3TTP    C3633086   3.654   0.740   5.938 -0.2421 -0.7688  0.4874
    3TTP    C3733087   3.662   0.895   5.946  0.6754  0.1847  0.4544
    3TTP    C3833088   3.532   0.953   5.878  0.4462  0.1056 -0.4144
    3TTP    C3933089   3.491   1.090   5.912 -0.5654  0.0343  0.0232
    3TTP    C4033090   3.371   1.144   5.831 -0.1660  0.0810 -0.2053
    3TTP    C4133091   3.226   1.099   5.834  0.0881  0.3143  0.2149
    3TTP    C4233092   3.149   1.126   5.967 -0.2095  0.1432 -0.6650
    4BIM     F133093   1.992  -0.664   5.422  0.2019  0.1147  0.6224
    4BIM     F233094   1.745  -0.559   5.472 -0.1171 -0.0231 -0.5940
    4BIM     O133095   2.277  -0.213   5.329  0.2220  0.2272  1.2193
    4BIM     N533096   1.595  -0.087   5.478 -0.5616 -0.1404 -1.9174
    4BIM     N633097   1.868   0.243   5.395 -0.4816 -0.0248 -1.2056
    4BIM    C1933098   2.143   0.047   5.344 -0.0757  0.1357  0.2692
    4BIM    C2033099   2.081  -0.071   5.365 -0.0683  0.1128  0.1668
    4BIM    C2133100   2.157  -0.200   5.356  0.0893  0.1631  0.6787
    4BIM    C2233101   2.060  -0.307   5.385  0.0545  0.1211  0.4109
    4BIM    C2333102   2.083  -0.445   5.388  0.1627  0.1445  0.7076
    4BIM    C2433103   1.975  -0.527   5.418  0.1016  0.0951  0.3581
    4BIM    C2533104   1.849  -0.473   5.443 -0.0628  0.0243 -0.2684
    4BIM    C2633105   1.825  -0.336   5.441 -0.1715  0.0002 -0.5676
    4BIM    C2733106   1.932  -0.251   5.411 -0.1119  0.0498 -0.2213
    4BIM    C2833107   1.941  -0.103   5.400 -0.1938  0.0420 -0.3964
    4BIM    C2933108   1.837  -0.014   5.418 -0.3553 -0.0196 -0.9704
    4BIM    C3033109   1.704  -0.055   5.451 -0.4681 -0.0858 -1.4889
    4BIM    C3133110   1.855   0.127   5.405 -0.4238 -0.0220 -1.0965
    5BIM     F133111   3.817  -0.635   5.905 -0.2058  0.0958  0.1398
    5BIM     F233112   4.026  -0.520   6.036  0.3984 -0.0665 -0.6686
    5BIM     O133113   3.570  -0.198   5.702 -0.5112  0.2704  0.8823
    5BIM     N533114   4.151  -0.044   6.079  1.0495 -0.1748 -1.3020
    5BIM     N633115   3.916   0.275   5.894  0.6891 -0.0055 -0.5590
    5BIM    C1933116   3.682   0.067   5.755 -0.0424  0.1778  0.3734
    5BIM    C2033117   3.736  -0.047   5.801  0.0108  0.1402  0.2183
    5BIM    C2133118   3.673  -0.180   5.770 -0.2419  0.1922  0.4997
    5BIM    C2233119   3.756  -0.283   5.834 -0.1068  0.1318  0.2320
    5BIM    C2333120   3.737  -0.421   5.833 -0.2521  0.1502  0.3524
    5BIM    C2433121   3.829  -0.498   5.902 -0.0765  0.0822  0.0426
    5BIM    C2533122   3.937  -0.439   5.969  0.2347 -0.0014 -0.3737
    5BIM    C2633123   3.957  -0.301   5.971  0.3814 -0.0200 -0.4960
    5BIM    C2733124   3.864  -0.221   5.902  0.2074  0.0479 -0.1869
    5BIM    C2833125   3.856  -0.074   5.884  0.2919  0.0498 -0.2118
    5BIM    C2933126   3.944   0.019   5.935  0.5764 -0.0192 -0.5660
    5BIM    C3033127   4.057  -0.016   6.014  0.8355 -0.1044 -0.9694
    5BIM    C3133128   3.928   0.159   5.912  0.6368 -0.0113 -0.5600
    1BTD     S233129   1.305   5.216   0.204  0.1136  0.3228 -0.1364
    1BTD     N133130   1.183   5.088   0.239  0.2349  0.2190 -0.0900
    1BTD     N233131   1.188   5.325   0.121  0.0181  0.1653 -0.2099
    1BTD     N333132   0.731   5.316   0.013  0.0425 -0.3425 -0.2759
    1BTD     N433133   0.725   5.024   0.158  0.3096 -0.2762 -0.1282
    1BTD     C533134   0.944   5.058   0.195  0.2706 -0.0403 -0.1117
    1BTD     C633135   1.068   5.131   0.189  0.1998  0.0798 -0.1296
    1BTD     C733136   1.071   5.263   0.123  0.0784  0.0497 -0.1967
    1BTD     C833137   0.950   5.316   0.066  0.0341 -0.0988 -0.2426
    1BTD    C1533138   0.831   5.242   0.074  0.1067 -0.2131 -0.2228
    1BTD    C1633139   0.828   5.114   0.138  0.2235 -0.1840 -0.1582
    1BTD    C4333140   0.595   5.072   0.219  0.2603  0.0086  0.0537
    1BTD    C4433141   0.458   5.003   0.233  0.2301 -0.3162  0.0811
    1BTD    C4533142   0.354   5.066   0.342 -0.3873  0.9258  0.4863
    1BTD    C4633143   0.329   5.219   0.354  0.1103  0.0249  0.1188
    1BTD    C4733144   0.404   4.983   0.093 -0.5038 -0.0880 -0.0844
    1BTD    C4833145   0.273   4.896   0.069 -0.2112  0.6541  0.3749
    1BTD    C4933146   0.276   4.745   0.098  0.2905 -0.2865 -0.0255
    1BTD    C5033147   0.149   4.676   0.047 -0.5021 -0.1438 -0.5036
    1BTD    C7533148   0.593   5.277  -0.027  0.7380  0.4148  0.5388
    1BTD    C7633149   0.555   5.251  -0.177 -0.1726  0.2072 -0.4256
    1BTD    C7733150   0.637   5.149  -0.255 -0.2160 -0.0348 -0.0633
    1BTD    C7833151   0.651   5.000  -0.218 -0.3645  0.3225 -0.3873
    1BTD    C7933152   0.410   5.229  -0.206  0.3676  0.1769  0.5487
    1BTD    C8033153   0.314   5.327  -0.131  0.6740  0.3990  0.7365
    1BTD    C8133154   0.166   5.290  -0.140 -0.4212 -0.5769 -0.3166
    1BTD    C8233155   0.099   5.375  -0.031 -0.3203 -0.4887 -0.1369
    2TTP     S133156   0.996   4.791   0.324 -0.0139 -0.2833  0.0398
    2TTP     S533157   0.578   4.699   0.278 -0.1417  0.1172  0.3914
    2TTP     C133158   0.660   4.557   0.357 -0.2108  0.0354  0.3158
    2TTP     C233159   0.794   4.577   0.375 -0.1754 -0.0931  0.2027
    2TTP     C333160   0.836   4.706   0.329 -0.0924 -0.1317  0.1718
    2TTP     C433161   0.913   4.933   0.246  0.0553 -0.2015  0.1155
    2TTP    C1733162   0.779   4.913   0.227  0.0198 -0.0731  0.2285
    2TTP    C1833163   0.737   4.785   0.274 -0.0631 -0.0346  0.2595
    2TTP    C3233164   0.882   4.474   0.442 -0.3463  0.1331 -0.2585
    2TTP    C3333165   1.018   4.515   0.494 -0.0272 -0.1857 -0.2689
    2TTP    C3433166   1.096   4.398   0.544 -0.0831 -0.4948  0.1414
    2TTP    C3533167   1.244   4.435   0.576  0.0905 -0.0241 -0.5252
    2TTP    C3633168   1.328   4.318   0.600 -0.1467 -0.1220 -0.1568
    2TTP    C3733169   1.478   4.326   0.595 -0.0193 -0.1510  0.0713
    2TTP    C3833170   1.537   4.373   0.462 -0.6738  0.5001  0.3549
    2TTP    C3933171   1.695   4.377   0.450  0.0578  0.3394 -0.1391
    2TTP    C4033172   1.761   4.470   0.344  0.4782 -0.1716  0.4893
    2TTP    C4133173   1.730   4.425   0.202 -1.1518 -0.1318 -0.3394
    2TTP    C4233174   1.796   4.518   0.098 -0.0258  0.4716 -0.0957
    3TTP     S133175   0.988   5.603  -0.030  0.1146 -0.1045 -0.0001
    3TTP     S533176   0.567   5.623  -0.112  0.1785  0.2352 -0.2506
    3TTP     C133177   0.639   5.788  -0.139  0.3153  0.1935 -0.1416
    3TTP     C233178   0.773   5.792  -0.115  0.3036  0.0862 -0.0577
    3TTP     C333179   0.824   5.664  -0.075  0.1862  0.0330 -0.0765
    3TTP     C433180   0.916   5.438  -0.004 -0.0221 -0.0628 -0.1092
    3TTP    C1733181   0.782   5.435  -0.027 -0.0105  0.0447 -0.1929
    3TTP    C1833182   0.731   5.562  -0.068  0.1069  0.0976 -0.1740
    3TTP    C3233183   0.851   5.923  -0.126 -0.3058  0.3589 -0.7184
    3TTP    C3333184   0.968   5.945  -0.033 -0.2972 -0.0051  0.7033
    3TTP    C3433185   0.934   5.957   0.115 -0.9104  0.1025  0.2496
    3TTP    C3533186   0.873   6.083   0.168 -0.0786 -0.3865 -0.1307
    3TTP    C3633187   0.929   6.212   0.119  0.1635 -0.5119  0.4654
    3TTP    C3733188   0.853   6.317   0.189  0.4859 -0.5193  0.0319
    3TTP    C3833189   0.909   6.453   0.165  0.3281  0.6036  0.2920
    3TTP    C3933190   0.863   6.543   0.273  0.2645 -0.4227 -0.0527
    3TTP    C4033191   0.824   6.687   0.241  0.1259  0.3946 -0.4253
    3TTP    C4133192   0.772   6.774   0.355 -0.4087 -0.5378  0.0858
    3TTP    C4233193   0.634   6.742   0.415 -0.0898 -0.0747  0.4401
    4BIM     F133194  -0.130   4.315   0.427  0.0818  0.0592  0.2691
    4BIM     F233195  -0.043   4.057   0.438  0.0110  0.0068 -0.3217
    4BIM     O133196   0.340   4.580   0.390  0.1328 -0.0172  0.3664
    4BIM     N533197   0.417   3.876   0.428 -0.0551 -0.1231 -1.1016
    4BIM     N633198   0.767   4.135   0.397 -0.0011 -0.1724 -0.9065
    4BIM    C1933199   0.590   4.428   0.388  0.0830 -0.0944 -0.1634
    4BIM    C2033200   0.469   4.371   0.397  0.0729 -0.0732 -0.1648
    4BIM    C2133201   0.345   4.456   0.397  0.1001 -0.0336  0.1167
    4BIM    C2233202   0.231   4.363   0.408  0.0803 -0.0186  0.0366
    4BIM    C2333203   0.095   4.395   0.412  0.0941  0.0169  0.2236
    4BIM    C2433204   0.005   4.290   0.423  0.0701  0.0245  0.0970
    4BIM    C2533205   0.050   4.158   0.428  0.0334 -0.0024 -0.2074
    4BIM    C2633206   0.185   4.125   0.424  0.0195 -0.0379 -0.3953
    4BIM    C2733207   0.278   4.230   0.414  0.0434 -0.0463 -0.2711
    4BIM    C2833208   0.426   4.230   0.407  0.0374 -0.0809 -0.4070
    4BIM    C2933209   0.508   4.119   0.410  0.0052 -0.1138 -0.7011
    4BIM    C3033210   0.458   3.986   0.420 -0.0279 -0.1189 -0.9203
    4BIM    C3133211   0.650   4.129   0.403  0.0020 -0.1458 -0.8124
    5BIM     F133212  -0.139   5.988  -0.338  0.1297  0.0337  0.1347
    5BIM     F233213  -0.059   6.247  -0.358  0.1416  0.0178 -0.0281
    5BIM     O133214   0.328   5.745  -0.209  0.1942  0.0439 -0.0792
    5BIM     N533215   0.390   6.447  -0.294  0.2048  0.0020 -0.4153
    5BIM     N633216   0.738   6.205  -0.189  0.2529  0.0132 -0.5496
    5BIM    C1933217   0.570   5.907  -0.182  0.2285  0.0322 -0.3110
    5BIM    C2033218   0.450   5.958  -0.214  0.2118  0.0304 -0.2511
    5BIM    C2133219   0.330   5.868  -0.226  0.1948  0.0365 -0.1321
    5BIM    C2233220   0.216   5.955  -0.261  0.1791  0.0324 -0.0916
    5BIM    C2333221   0.084   5.918  -0.283  0.1605  0.0360  0.0136
    5BIM    C2433222  -0.006   6.018  -0.315  0.1483  0.0308  0.0323
    5BIM    C2533223   0.035   6.151  -0.325  0.1544  0.0225 -0.0518
    5BIM    C2633224   0.167   6.190  -0.304  0.1729  0.0191 -0.1569
    5BIM    C2733225   0.260   6.089  -0.271  0.1856  0.0242 -0.1776
    5BIM    C2833226   0.405   6.096  -0.242  0.2060  0.0225 -0.2787
    5BIM    C2933227   0.483   6.210  -0.242  0.2172  0.0150 -0.3793
    5BIM    C3033228   0.431   6.340  -0.270  0.2103  0.0081 -0.3986
    5BIM    C3133229   0.623   6.207  -0.213  0.2368  0.0141 -0.4725
    1BTD     S233230   7.278   7.516   2.341 -0.1946  0.0863  0.3364
    1BTD     N133231   7.433   7.491   2.429 -0.1985  0.1429  0.3586
    1BTD     N233232   7.310   7.689   2.304 -0.1266  0.0242  0.1000
    1BTD     N333233   7.654   7.997   2.389  0.0057 -0.0002 -0.3418
    1BTD     N433234   7.805   7.753   2.543 -0.0827  0.1460 -0.0232
    1BTD     C533235   7.625   7.631   2.487 -0.1369  0.1428  0.1555
    1BTD     C633236   7.497   7.607   2.427 -0.1512  0.1141  0.1970
    1BTD     C733237   7.428   7.718   2.357 -0.1109  0.0476  0.0523
    1BTD     C833238   7.492   7.847   2.350 -0.0585  0.0131 -0.1268
    1BTD    C1533239   7.618   7.866   2.410 -0.0466  0.0432 -0.1613
    1BTD    C1633240   7.684   7.759   2.478 -0.0852  0.1073 -0.0218
    1BTD    C4333241   7.887   7.859   2.597  0.0725 -0.4059 -0.2950
    1BTD    C4433242   7.850   7.887   2.749 -0.9806 -1.1030 -0.1918
    1BTD    C4533243   7.704   7.904   2.787  0.3026  0.1050 -0.2081
    1BTD    C4633244   7.671   7.880   2.931  0.4990  0.3609 -0.3966
    1BTD    C4733245   7.938   7.996   2.817 -0.3072  0.3056  0.8277
    1BTD    C4833246   8.088   7.982   2.843 -0.0530 -0.0548  1.2159
    1BTD    C4933247   8.143   8.122   2.881 -0.4205  0.0685 -0.0617
    1BTD    C5033248   8.287   8.103   2.922 -0.7530 -0.5014 -0.0442
    1BTD    C7533249   7.794   8.043   2.350  0.2025  0.3126  0.3425
    1BTD    C7633250   7.850   8.183   2.378  0.1410  0.4734 -0.6358
    1BTD    C7733251   7.856   8.196   2.528  0.2541  0.1281 -0.3015
    1BTD    C7833252   7.920   8.316   2.598  0.1528 -0.8204 -0.3889
    1BTD    C7933253   7.995   8.199   2.317  0.8020 -0.2132  0.1200
    1BTD    C8033254   8.017   8.187   2.172  0.1912  0.0543 -0.2085
    1BTD    C8133255   8.160   8.154   2.145 -0.2407 -0.2828 -0.1720
    1BTD    C8233256   8.189   8.131   1.997 -0.3826 -0.4902  0.0642
    2TTP     S133257   7.738   7.371   2.617 -0.3982  0.0843 -0.0246
    2TTP     S533258   8.071   7.598   2.767 -0.2553 -0.0256 -0.1734
    2TTP     C133259   8.084   7.428   2.830 -0.4302  0.0379  0.0398
    2TTP     C233260   7.982   7.348   2.787 -0.4842  0.0756  0.0983
    2TTP     C333261   7.890   7.418   2.703 -0.3902  0.0557 -0.0231
    2TTP     C433262   7.725   7.542   2.554 -0.2236  0.0206 -0.2378
    2TTP    C1733263   7.827   7.622   2.597 -0.1693 -0.0168 -0.2964
    2TTP    C1833264   7.919   7.552   2.681 -0.2636  0.0030 -0.1749
    2TTP    C3233265   7.958   7.201   2.818  0.1395 -0.1942 -0.3820
    2TTP    C3333266   7.828   7.172   2.903 -0.3507 -0.9252 -0.3651
    2TTP    C3433267   7.795   7.025   2.933 -0.2651 -0.4466 -0.0030
    2TTP    C3533268   7.906   6.927   2.992  0.0648 -0.1052  0.1414
    2TTP    C3633269   7.968   6.985   3.115  0.2961 -0.1115 -0.2948
    2TTP    C3733270   8.077   6.902   3.179  0.1845  0.3707 -0.0551
    2TTP    C3833271   8.150   6.950   3.303  0.0247 -0.0068  0.0689
    2TTP    C3933272   8.225   6.840   3.374 -0.0528 -0.6053 -0.3190
    2TTP    C4033273   8.204   6.852   3.530 -0.8561  0.7195 -0.3601
    2TTP    C4133274   8.287   6.738   3.603  0.2569 -0.2948 -0.5893
    2TTP    C4233275   8.281   6.758   3.753 -0.0327  0.2551 -0.5258
    3TTP     S133276   7.315   8.038   2.193 -0.0421  0.3603  0.0162
    3TTP     S533277   7.593   8.356   2.272  0.1174  0.1767  0.1962
    3TTP     C133278   7.452   8.424   2.179  0.1769  0.2894  0.1881
    3TTP     C233279   7.358   8.330   2.149  0.1311  0.3524  0.1320
    3TTP     C333280   7.394   8.200   2.199  0.0476  0.3142  0.0935
    3TTP     C433281   7.455   7.970   2.287 -0.1016  0.2477  0.0244
    3TTP    C1733282   7.550   8.064   2.317 -0.0558  0.1842  0.0804
    3TTP    C1833283   7.514   8.194   2.267  0.0278  0.2227  0.1190
    3TTP    C3233284   7.216   8.363   2.093  0.1742 -0.5988 -0.0324
    3TTP    C3333285   7.183   8.315   1.955 -0.0820 -0.0586  0.7501
    3TTP    C3433286   7.051   8.361   1.888 -0.2710 -0.3622  0.6238
    3TTP    C3533287   6.929   8.342   1.982  0.6273 -0.2882 -0.2863
    3TTP    C3633288   6.790   8.379   1.928 -0.1537 -0.3167  0.2856
    3TTP    C3733289   6.664   8.381   2.019 -0.2437 -0.1296 -0.3658
    3TTP    C3833290   6.624   8.258   2.109 -0.1692 -0.1171  0.3883
    3TTP    C3933291   6.610   8.127   2.042 -0.1046  0.2655  0.1784
    3TTP    C4033292   6.604   8.010   2.133 -0.3269 -0.1523  0.3829
    3TTP    C4133293   6.599   7.882   2.056  0.1210 -0.0043 -0.4625
    3TTP    C4233294   6.509   7.783   2.129  0.3287 -0.2935 -0.6444
    4BIM     F133295   8.731   7.742   3.229  0.1359 -0.0578  0.0825
    4BIM     F233296   8.834   7.490   3.244  0.0827 -0.0937 -0.1417
    4BIM     O133297   8.260   7.645   2.979 -0.0632  0.2139  0.3511
    4BIM     N533298   8.646   7.059   3.089 -0.1352  0.0484 -0.2725
    4BIM     N633299   8.257   7.035   2.890 -0.2801  0.2676 -0.0175
    4BIM    C1933300   8.191   7.370   2.905 -0.1844  0.2760  0.2322
    4BIM    C2033301   8.306   7.405   2.967 -0.1323  0.2090  0.1734
    4BIM    C2133302   8.334   7.548   3.002 -0.0715  0.1810  0.2409
    4BIM    C2233303   8.466   7.550   3.068 -0.0250  0.1070  0.1503
    4BIM    C2333304   8.534   7.660   3.118  0.0381  0.0594  0.1697
    4BIM    C2433305   8.658   7.637   3.177  0.0733 -0.0080  0.0698
    4BIM    C2533306   8.710   7.507   3.185  0.0456 -0.0263 -0.0455
    4BIM    C2633307   8.643   7.397   3.135 -0.0172  0.0211 -0.0656
    4BIM    C2733308   8.517   7.418   3.075 -0.0534  0.0894  0.0343
    4BIM    C2833309   8.421   7.324   3.014 -0.1204  0.1513  0.0440
    4BIM    C2933310   8.436   7.187   3.002 -0.1633  0.1545 -0.0491
    4BIM    C3033311   8.551   7.118   3.050 -0.1478  0.0961 -0.1717
    4BIM    C3133312   8.338   7.104   2.941 -0.2275  0.2170 -0.0312
    5BIM     F133313   8.001   9.015   2.037  0.0265  0.2434  0.5747
    5BIM     F233314   7.794   9.187   1.997 -0.0552 -0.0787 -0.4418
    5BIM     O133315   7.734   8.554   2.131  0.2687  0.1612  0.8627
    5BIM     N533316   7.306   9.106   2.006  0.0001 -0.5999 -1.6981
    5BIM     N633317   7.139   8.710   2.088  0.2059 -0.5989 -1.2683
    5BIM    C1933318   7.441   8.554   2.126  0.2766 -0.1754 -0.0063
    5BIM    C2033319   7.517   8.663   2.104  0.2189 -0.1421 -0.0390
    5BIM    C2133320   7.667   8.655   2.108  0.2189  0.0346  0.4249
    5BIM    C2233321   7.717   8.791   2.080  0.1484  0.0260  0.2558
    5BIM    C2333322   7.849   8.833   2.073  0.1235  0.1578  0.5509
    5BIM    C2433323   7.872   8.967   2.045  0.0547  0.1188  0.3058
    5BIM    C2533324   7.765   9.055   2.025  0.0126 -0.0466 -0.2178
    5BIM    C2633325   7.633   9.014   2.031  0.0372 -0.1793 -0.5144
    5BIM    C2733326   7.608   8.879   2.060  0.1068 -0.1423 -0.2733
    5BIM    C2833327   7.480   8.804   2.073  0.1484 -0.2522 -0.4754
    5BIM    C2933328   7.353   8.855   2.060  0.1260 -0.4232 -0.9719
    5BIM    C3033329   7.328   8.993   2.031  0.0567 -0.5195 -1.3695
    5BIM    C3133330   7.236   8.775   2.076  0.1700 -0.5188 -1.1321
    1BTD     S233331   0.739   1.539   9.190  0.3256  0.0524  0.0207
    1BTD     N133332   0.812   1.443   9.324  0.1281  0.2076  0.2406
    1BTD     N233333   0.593   1.434   9.175  0.4202 -0.0522 -0.1760
    1BTD     N333334   0.429   1.048   9.386  0.2566  0.0151 -0.1802
    1BTD     N433335   0.698   1.060   9.570 -0.1033  0.3352  0.3331
    1BTD     C533336   0.749   1.243   9.450  0.0117  0.2703  0.2825
    1BTD     C633337   0.728   1.344   9.349  0.1422  0.1752  0.1600
    1BTD     C733338   0.606   1.338   9.266  0.3057  0.0298 -0.0732
    1BTD     C833339   0.511   1.233   9.288  0.3305 -0.0132 -0.1719
    1BTD    C1533340   0.535   1.137   9.387  0.1991  0.0835 -0.0456
    1BTD    C1633341   0.653   1.142   9.468  0.0416  0.2237  0.1788
    1BTD    C4333342   0.615   1.006   9.677  0.5024  0.0491 -0.0467
    1BTD    C4433343   0.657   0.873   9.752  0.1031 -0.5737 -0.1744
    1BTD    C4533344   0.683   0.749   9.663  0.0015 -0.4975  0.5730
    1BTD    C4633345   0.760   0.626   9.719  0.3385 -0.7527 -0.1714
    1BTD    C4733346   0.546   0.840   9.861  0.3988  0.2460  1.2972
    1BTD    C4833347   0.531   0.932   9.973  0.9533 -0.6693 -0.3187
    1BTD    C4933348   0.417   0.885  10.069 -0.4273 -0.3405 -0.1832
    1BTD    C5033349   0.416   0.977  10.195  0.6148  0.7130 -0.7931
    1BTD    C7533350   0.424   0.905   9.432  0.2263 -0.2900 -0.0188
    1BTD    C7633351   0.294   0.845   9.490  0.8860 -0.1769 -0.3530
    1BTD    C7733352   0.283   0.691   9.494  0.4375  0.6645 -0.5388
    1BTD    C7833353   0.301   0.620   9.364  0.1107  0.4457  0.4709
    1BTD    C7933354   0.245   0.914   9.620  0.2237  0.0074  0.2809
    1BTD    C8033355   0.094   0.896   9.644  0.0426 -0.3795  0.4163
    1BTD    C8133356   0.052   0.931   9.787 -0.2444  0.2368  0.2268
    1BTD    C8233357  -0.083   0.881   9.838  0.1375 -0.4224  0.4366
    2TTP     S133358   1.016   1.289   9.575 -0.2957 -0.1180 -0.1413
    2TTP     S533359   0.961   0.935   9.813 -0.4223 -0.1155 -0.1665
    2TTP     C133360   1.125   1.005   9.850 -0.5000 -0.0347  0.0263
    2TTP     C233361   1.151   1.119   9.779 -0.4655 -0.0307  0.0455
    2TTP     C333362   1.043   1.154   9.692 -0.3764 -0.0913 -0.0914
    2TTP     C433363   0.852   1.219   9.538 -0.2180 -0.1988 -0.3340
    2TTP    C1733364   0.825   1.106   9.609 -0.2525 -0.2028 -0.3533
    2TTP    C1833365   0.934   1.070   9.696 -0.3415 -0.1422 -0.2163
    2TTP    C3233366   1.277   1.208   9.781 -0.3212 -0.0323  0.1767
    2TTP    C3333367   1.266   1.310   9.887  0.2964 -0.4531 -0.4559
    2TTP    C3433368   1.390   1.393   9.898 -0.0482 -0.5534  0.2046
    2TTP    C3533369   1.529   1.334   9.921  0.1880 -0.7835  0.2548
    2TTP    C3633370   1.619   1.447   9.976 -0.2360 -0.1846 -0.2209
    2TTP    C3733371   1.767   1.413  10.002  0.1083  0.0296 -0.3635
    2TTP    C3833372   1.835   1.530  10.080  0.0275 -0.1546  0.7971
    2TTP    C3933373   1.978   1.507  10.141  0.2534 -0.0742  0.0981
    2TTP    C4033374   2.093   1.491  10.038 -0.0022 -0.0033 -0.1994
    2TTP    C4133375   2.124   1.618   9.951 -0.0339  0.6213 -0.5461
    2TTP    C4233376   2.249   1.601   9.874 -0.9306 -0.1539  0.2169
    3TTP     S133377   0.273   1.275   9.103  0.1694 -0.0598 -0.0210
    3TTP     S533378   0.085   0.929   9.276  0.0803  0.1199  0.2429
    3TTP     C133379  -0.024   0.996   9.146  0.1587 -0.0303  0.1014
    3TTP     C233380   0.028   1.106   9.085  0.1907 -0.0947  0.0110
    3TTP     C333381   0.155   1.143   9.139  0.1547 -0.0277  0.0513
    3TTP     C433382   0.382   1.209   9.234  0.0911  0.0903  0.1209
    3TTP    C1733383   0.330   1.098   9.295  0.0589  0.1547  0.2110
    3TTP    C1833384   0.202   1.062   9.241  0.0950  0.0877  0.1709
    3TTP    C3233385  -0.039   1.201   8.979 -0.1067  0.1804  0.7138
    3TTP    C3333386  -0.037   1.140   8.838  0.2136  0.5796  0.3381
    3TTP    C3433387  -0.099   1.221   8.721  0.2895  1.0233  0.0028
    3TTP    C3533388  -0.068   1.365   8.722 -0.0176 -0.5704  0.4873
    3TTP    C3633389  -0.122   1.429   8.596  0.9523  0.6128  0.4464
    3TTP    C3733390  -0.102   1.573   8.570 -0.1206 -0.5899  0.2207
    3TTP    C3833391   0.047   1.632   8.575 -0.1533  0.3426  0.3095
    3TTP    C3933392   0.071   1.766   8.516 -0.3498 -0.2829  0.0023
    3TTP    C4033393   0.220   1.807   8.545 -0.5491  0.3713  0.0404
    3TTP    C4133394   0.270   1.927   8.470  0.1083  0.0985 -0.4291
    3TTP    C4233395   0.409   1.978   8.514 -0.0989 -0.0623  0.3156
    4BIM     F133396   1.356   0.224   9.916 -0.3341 -0.0740  0.1405
    4BIM     F233397   1.525   0.296  10.117  0.2206 -0.1030 -0.3078
    4BIM     O133398   1.148   0.706   9.780 -0.3325  0.0131  0.4468
    4BIM     N533399   1.619   0.742  10.311  1.0193 -0.0827 -0.7338
    4BIM     N633400   1.422   1.103  10.164  0.9087 -0.0087 -0.4041
    4BIM    C1933401   1.235   0.945   9.925  0.1981  0.0163  0.1274
    4BIM    C2033402   1.281   0.821   9.951  0.1760 -0.0045  0.0678
    4BIM    C2133403   1.232   0.703   9.872 -0.1042 -0.0046  0.2418
    4BIM    C2233404   1.301   0.585   9.926 -0.0532 -0.0300  0.1207
    4BIM    C2333405   1.288   0.452   9.885 -0.2495 -0.0391  0.2108
    4BIM    C2433406   1.364   0.357   9.951 -0.1514 -0.0638  0.0627
    4BIM    C2533407   1.451   0.394  10.055  0.1345 -0.0787 -0.1682
    4BIM    C2633408   1.465   0.526  10.096  0.3315 -0.0697 -0.2593
    4BIM    C2733409   1.388   0.624  10.031  0.2362 -0.0448 -0.1119
    4BIM    C2833410   1.379   0.771  10.050  0.3884 -0.0297 -0.1536
    4BIM    C2933411   1.449   0.845  10.143  0.6719 -0.0376 -0.3583
    4BIM    C3033412   1.542   0.788  10.235  0.8619 -0.0624 -0.5641
    4BIM    C3133413   1.434   0.987  10.154  0.8005 -0.0217 -0.3823
    5BIM     F133414  -0.398   0.271   9.217  0.1416  0.0419  0.0336
    5BIM     F233415  -0.617   0.380   9.097  0.1969 -0.0993 -0.1967
    5BIM     O133416  -0.057   0.692   9.208 -0.0935  0.2394  0.3240
    5BIM     N533417  -0.689   0.835   8.918  0.1090 -0.1616 -0.3195
    5BIM     N633418  -0.379   1.142   8.935 -0.0858  0.0211 -0.0463
    5BIM    C1933419  -0.146   0.945   9.090 -0.1241  0.1746  0.2075
    5BIM    C2033420  -0.223   0.835   9.097 -0.0670  0.1305  0.1435
    5BIM    C2133421  -0.170   0.709   9.159 -0.0548  0.1681  0.2100
    5BIM    C2233422  -0.279   0.609   9.150  0.0112  0.1037  0.1130
    5BIM    C2333423  -0.277   0.477   9.195  0.0439  0.1097  0.1297
    5BIM    C2433424  -0.393   0.402   9.176  0.1063  0.0404  0.0238
    5BIM    C2533425  -0.505   0.459   9.114  0.1348 -0.0323 -0.0942
    5BIM    C2633426  -0.508   0.590   9.069  0.1023 -0.0387 -0.1113
    5BIM    C2733427  -0.392   0.667   9.088  0.0391  0.0308 -0.0055
    5BIM    C2833428  -0.362   0.808   9.052 -0.0079  0.0443  0.0083
    5BIM    C2933429  -0.447   0.897   8.990  0.0017 -0.0121 -0.0861
    5BIM    C3033430  -0.580   0.863   8.951  0.0603 -0.0941 -0.2141
    5BIM    C3133431  -0.409   1.031   8.960 -0.0465  0.0065 -0.0634
    1BTD     S233432   3.777   4.016   7.812 -0.3737 -0.2064  0.1701
    1BTD     N133433   3.892   3.933   7.924 -0.2661 -0.1275  0.1179
    1BTD     N233434   3.843   4.180   7.842 -0.4224 -0.1705  0.0805
    1BTD     N333435   4.186   4.366   8.104 -0.3271  0.0452 -0.1965
    1BTD     N433436   4.245   4.062   8.204 -0.1345  0.0982 -0.1502
    1BTD     C533437   4.076   4.004   8.069 -0.1997 -0.0103 -0.0226
    1BTD     C633438   3.969   4.028   7.975 -0.2717 -0.0808  0.0404
    1BTD     C733439   3.943   4.166   7.929 -0.3592 -0.1049  0.0196
    1BTD     C833440   4.023   4.274   7.980 -0.3703 -0.0572 -0.0634
    1BTD    C1533441   4.126   4.246   8.072 -0.2980  0.0113 -0.1234
    1BTD    C1633442   4.152   4.113   8.116 -0.2137  0.0345 -0.1029
    1BTD    C4333443   4.388   4.111   8.211  0.3933 -0.8113 -0.1670
    1BTD    C4433444   4.479   4.079   8.330 -0.8724 -0.5985  0.7477
    1BTD    C4533445   4.631   4.080   8.301 -0.1379  0.1870 -0.5666
    1BTD    C4633446   4.710   4.205   8.268  0.3655 -0.2312 -0.2751
    1BTD    C4733447   4.422   4.150   8.452  0.0455  0.0848 -0.1852
    1BTD    C4833448   4.483   4.113   8.588 -0.6299  0.0689  0.4979
    1BTD    C4933449   4.398   4.168   8.707  0.3646 -0.5181  0.7659
    1BTD    C5033450   4.449   4.140   8.847  0.5901  0.0024 -0.3923
    1BTD    C7533451   4.249   4.402   8.232  0.2574 -0.1651 -0.8309
    1BTD    C7633452   4.371   4.500   8.238  0.0346  0.1065  0.0591
    1BTD    C7733453   4.479   4.458   8.142  0.1866 -0.0993 -0.6215
    1BTD    C7833454   4.585   4.555   8.099  0.3712 -0.0080 -0.3557
    1BTD    C7933455   4.431   4.544   8.374 -0.5102  0.1789 -0.0195
    1BTD    C8033456   4.321   4.604   8.465 -0.8030 -0.0056 -0.6388
    1BTD    C8133457   4.392   4.668   8.584  0.3823  0.4815  0.2822
    1BTD    C8233458   4.421   4.573   8.703  0.0521 -0.5810 -0.2708
    2TTP     S133459   4.068   3.717   8.149  0.0743  0.0567  0.0745
    2TTP     S533460   4.339   3.805   8.471  0.1072  0.4237 -0.0520
    2TTP     C133461   4.275   3.636   8.493  0.3138  0.3523  0.0014
    2TTP     C233462   4.188   3.599   8.395  0.3158  0.2348  0.0436
    2TTP     C333463   4.168   3.703   8.299  0.1544  0.1968  0.0353
    2TTP     C433464   4.132   3.886   8.126 -0.1322  0.1280  0.0215
    2TTP    C1733465   4.219   3.923   8.225 -0.1343  0.2455 -0.0211
    2TTP    C1833466   4.239   3.820   8.321  0.0273  0.2835 -0.0129
    2TTP    C3233467   4.100   3.475   8.383 -0.2533  0.0507  0.1896
    2TTP    C3333468   4.163   3.352   8.305  0.2684 -0.2105 -0.2395
    2TTP    C3433469   4.065   3.248   8.261  0.1123 -0.1304 -0.0090
    2TTP    C3533470   4.112   3.113   8.219  0.7207 -0.0884 -0.1338
    2TTP    C3633471   3.999   3.006   8.228  0.3728 -0.1543 -0.7076
    2TTP    C3733472   4.018   2.882   8.147 -0.2120 -0.2402  0.3060
    2TTP    C3833473   3.896   2.803   8.141 -0.0176  0.2703 -0.1314
    2TTP    C3933474   3.917   2.662   8.079  0.2149  0.0026  0.2774
    2TTP    C4033475   3.799   2.573   8.109 -0.5060 -0.0835  0.1117
    2TTP    C4133476   3.824   2.431   8.077  0.1362  0.4816  0.0144
    2TTP    C4233477   3.704   2.348   8.114 -0.2373  0.3168 -0.7384
    3TTP     S133478   3.945   4.533   7.843  0.1106 -0.1314  0.0275
    3TTP     S533479   4.255   4.735   8.063 -0.2105  0.0930  0.2773
    3TTP     C133480   4.176   4.854   7.951 -0.2891  0.0654  0.3030
    3TTP     C233481   4.076   4.799   7.877 -0.1944 -0.0055  0.2273
    3TTP     C333482   4.057   4.661   7.905 -0.0566 -0.0405  0.1464
    3TTP     C433483   4.024   4.413   7.955  0.1892 -0.1038  0.0015
    3TTP    C1733484   4.124   4.469   8.029  0.0945 -0.0329  0.0774
    3TTP    C1833485   4.142   4.607   8.001 -0.0434  0.0021  0.1583
    3TTP    C3233486   3.997   4.883   7.768  0.1019  0.6474  0.4713
    3TTP    C3333487   3.846   4.848   7.758 -0.0470 -1.2605 -0.0729
    3TTP    C3433488   3.756   4.941   7.680  0.0826 -0.1991  0.4805
    3TTP    C3533489   3.802   4.981   7.543  0.1266 -0.4198 -0.2560
    3TTP    C3633490   3.692   5.067   7.466  0.3188  0.2620 -0.1064
    3TTP    C3733491   3.642   5.197   7.529  0.2661 -0.3424 -0.2986
    3TTP    C3833492   3.748   5.310   7.547 -0.3914  1.1474  0.5263
    3TTP    C3933493   3.785   5.377   7.416  0.0078 -0.3111 -0.3963
    3TTP    C4033494   3.897   5.479   7.469 -0.0473 -0.2243 -0.0341
    3TTP    C4133495   3.837   5.612   7.536  0.2248 -0.3314 -0.4990
    3TTP    C4233496   3.752   5.701   7.450  0.2846 -0.2594 -0.4956
    4BIM     F133497   4.651   3.731   9.223  0.2348 -0.2433 -0.0832
    4BIM     F233498   4.622   3.464   9.268  0.0334 -0.2010  0.0384
    4BIM     O133499   4.414   3.782   8.739  0.1662 -0.2648 -0.0517
    4BIM     N533500   4.410   3.117   8.987 -0.3051 -0.1554  0.2358
    4BIM     N633501   4.230   3.210   8.600 -0.3183 -0.1807  0.2360
    4BIM    C1933502   4.301   3.544   8.610 -0.0505 -0.2319  0.0760
    4BIM    C2033503   4.362   3.542   8.730 -0.0254 -0.2282  0.0632
    4BIM    C2133504   4.418   3.668   8.790  0.0877 -0.2460 -0.0036
    4BIM    C2233505   4.476   3.631   8.920  0.0870 -0.2364 -0.0007
    4BIM    C2333506   4.540   3.714   9.012  0.1734 -0.2466 -0.0503
    4BIM    C2433507   4.588   3.655   9.128  0.1529 -0.2344 -0.0363
    4BIM    C2533508   4.572   3.517   9.151  0.0491 -0.2125  0.0266
    4BIM    C2633509   4.509   3.434   9.059 -0.0374 -0.2022  0.0768
    4BIM    C2733510   4.460   3.492   8.941 -0.0184 -0.2145  0.0629
    4BIM    C2833511   4.389   3.432   8.825 -0.0918 -0.2085  0.1047
    4BIM    C2933512   4.355   3.299   8.810 -0.2000 -0.1886  0.1693
    4BIM    C3033513   4.385   3.199   8.907 -0.2574 -0.1705  0.2055
    4BIM    C3133514   4.286   3.251   8.694 -0.2644 -0.1844  0.2055
    5BIM     F133515   4.803   5.281   8.257 -0.0679 -0.0899 -0.0453
    5BIM     F233516   4.641   5.500   8.262 -0.0147 -0.0507 -0.0262
    5BIM     O133517   4.476   4.915   8.029 -0.1963 -0.0206  0.0284
    5BIM     N533518   4.174   5.553   8.106 -0.0296  0.0546  0.0534
    5BIM     N633519   3.951   5.223   7.927 -0.1406  0.1007  0.1072
    5BIM    C1933520   4.205   4.994   7.952 -0.1911  0.0410  0.0728
    5BIM    C2033521   4.293   5.078   8.009 -0.1608  0.0222  0.0534
    5BIM    C2133522   4.431   5.030   8.046 -0.1658 -0.0092  0.0312
    5BIM    C2233523   4.501   5.145   8.106 -0.1277 -0.0235  0.0141
    5BIM    C2333524   4.631   5.149   8.155 -0.1179 -0.0527 -0.0091
    5BIM    C2433525   4.675   5.270   8.207 -0.0796 -0.0614 -0.0225
    5BIM    C2533526   4.592   5.382   8.209 -0.0522 -0.0409 -0.0122
    5BIM    C2633527   4.462   5.379   8.161 -0.0618 -0.0120  0.0105
    5BIM    C2733528   4.415   5.258   8.107 -0.1003 -0.0030  0.0241
    5BIM    C2833529   4.284   5.221   8.048 -0.1196  0.0260  0.0489
    5BIM    C2933530   4.175   5.303   8.033 -0.1025  0.0514  0.0644
    5BIM    C3033531   4.175   5.440   8.073 -0.0625  0.0530  0.0582
    5BIM    C3133532   4.053   5.259   7.974 -0.1236  0.0783  0.0877
    1BTD     S233533   5.610   9.210   5.535 -0.1414  0.1584 -0.0051
    1BTD     N133534   5.711   9.347   5.593  0.1231  0.1028 -0.3306
    1BTD     N233535   5.717   9.082   5.604 -0.3135  0.1097  0.1765
    1BTD     N333536   6.118   9.070   5.848 -0.1866 -0.0887 -0.0414
    1BTD     N433537   6.111   9.395   5.835  0.3515 -0.0980 -0.6661
    1BTD     C533538   5.920   9.368   5.720  0.2360 -0.0024 -0.4984
    1BTD     C633539   5.814   9.293   5.657  0.0722  0.0534 -0.2894
    1BTD     C733540   5.817   9.145   5.663 -0.1721  0.0572 -0.0055
    1BTD     C833541   5.926   9.080   5.731 -0.2408  0.0060  0.0552
    1BTD    C1533542   6.027   9.157   5.791 -0.0745 -0.0475 -0.1560
    1BTD    C1633543   6.024   9.300   5.785  0.1610 -0.0514 -0.4294
    1BTD    C4333544   6.261   9.383   5.854  0.0220 -0.3533  0.4565
    1BTD    C4433545   6.348   9.477   5.945 -0.3771 -0.5504  0.6925
    1BTD    C4533546   6.500   9.448   5.928 -0.1149 -0.3806  0.3792
    1BTD    C4633547   6.539   9.515   5.791  0.6424 -0.3461 -0.4951
    1BTD    C4733548   6.302   9.463   6.089 -0.3361 -0.7165 -0.3630
    1BTD    C4833549   6.393   9.536   6.200  0.6304  0.1869  0.2009
    1BTD    C4933550   6.318   9.547   6.334  0.0558  0.0966 -0.4093
    1BTD    C5033551   6.414   9.598   6.438 -0.1835 -0.4526 -0.3404
    1BTD    C7533552   6.193   9.100   5.971  0.0291  0.3688  0.4537
    1BTD    C7633553   6.327   9.042   6.023  0.3831 -0.3877  0.1426
    1BTD    C7733554   6.372   9.078   6.161  0.2738  0.2005 -0.4119
    1BTD    C7833555   6.276   9.022   6.271  0.3753 -0.1999 -0.0288
    1BTD    C7933556   6.440   9.067   5.919 -0.0865 -0.0259 -0.8429
    1BTD    C8033557   6.578   8.989   5.931  0.5200  0.0151  0.0059
    1BTD    C8133558   6.685   9.040   5.836  0.0099 -0.5787  0.5054
    1BTD    C8233559   6.800   8.946   5.821 -0.1320 -0.0652  0.2356
    2TTP     S133560   5.841   9.659   5.726  0.1724 -0.1105 -0.3163
    2TTP     S533561   6.190   9.748   5.962 -0.4005 -0.3890  0.6478
    2TTP     C133562   6.090   9.900   5.946 -0.1362 -0.2586  0.1989
    2TTP     C233563   5.977   9.881   5.872  0.0566 -0.1649 -0.1252
    2TTP     C333564   5.964   9.746   5.826  0.0019 -0.1927 -0.0308
    2TTP     C433565   5.941   9.507   5.742 -0.0920 -0.2409  0.1328
    2TTP    C1733566   6.054   9.526   5.816 -0.2846 -0.3346  0.4567
    2TTP    C1833567   6.067   9.661   5.863 -0.2303 -0.3068  0.3623
    2TTP    C3233568   5.855   9.979   5.860 -0.4514  0.3545  0.1375
    2TTP    C3333569   5.869  10.083   5.749 -0.4909  0.5184  0.4836
    2TTP    C3433570   5.738  10.160   5.725 -0.6796  0.0115 -1.0534
    2TTP    C3533571   5.616  10.084   5.683  0.2153 -0.3993 -0.4133
    2TTP    C3633572   5.487  10.163   5.651 -0.5252  0.0250  0.3034
    2TTP    C3733573   5.501  10.262   5.538 -0.1022  0.1959  0.0989
    2TTP    C3833574   5.385  10.340   5.482 -0.1308  0.5276 -0.7392
    2TTP    C3933575   5.264  10.264   5.439  0.0138 -0.2744  0.2131
    2TTP    C4033576   5.137  10.348   5.421 -0.2087 -0.2612  0.3062
    2TTP    C4133577   5.023  10.260   5.371 -1.0844  0.1775 -0.1351
    2TTP    C4233578   4.909  10.342   5.328  0.4132  0.1705 -0.0733
    3TTP     S133579   5.913   8.776   5.686  0.1510  0.2429 -0.3096
    3TTP     S533580   6.303   8.746   5.865 -0.1385  0.2210  0.3239
    3TTP     C133581   6.256   8.582   5.801 -0.0501  0.2211  0.2570
    3TTP     C233582   6.132   8.582   5.742  0.0448  0.2279  0.0575
    3TTP     C333583   6.071   8.711   5.745  0.0505  0.2332 -0.0497
    3TTP     C433584   5.960   8.939   5.749  0.0623  0.2425 -0.2427
    3TTP    C1733585   6.083   8.940   5.808 -0.0323  0.2359 -0.0433
    3TTP    C1833586   6.145   8.811   5.805 -0.0384  0.2303  0.0641
    3TTP    C3233587   6.061   8.467   5.671  0.4612 -0.6350  0.1614
    3TTP    C3333588   5.984   8.372   5.760 -0.1946 -0.5361 -1.2723
    3TTP    C3433589   5.882   8.287   5.691  0.5784 -0.1903 -0.2014
    3TTP    C3533590   5.845   8.161   5.760 -0.2878  0.4121 -0.1003
    3TTP    C3633591   5.763   8.053   5.687 -0.0310 -0.3033  0.2572
    3TTP    C3733592   5.631   8.096   5.612 -0.7199 -0.1076 -0.3907
    3TTP    C3833593   5.509   8.086   5.701 -0.4539  0.1644  0.2867
    3TTP    C3933594   5.391   8.150   5.635  0.7555 -0.2431 -0.5102
    3TTP    C4033595   5.267   8.159   5.735  0.3789 -0.2055  0.1913
    3TTP    C4133596   5.201   8.032   5.792  0.0808 -0.0207 -0.0486
    3TTP    C4233597   5.086   8.056   5.887  0.1152 -0.2063  0.6574
    4BIM     F133598   6.435  10.096   6.658 -0.1194  0.0103  0.0679
    4BIM     F233599   6.438  10.357   6.580  0.2788 -0.0053  0.0278
    4BIM     O133600   6.196   9.864   6.232 -0.3133  0.2841  0.0271
    4BIM     N533601   6.272  10.566   6.163  0.7132  0.1674 -0.0592
    4BIM     N633602   6.085  10.332   5.846  0.4815  0.3844 -0.0832
    4BIM    C1933603   6.114  10.030   6.005 -0.0016  0.3664 -0.0260
    4BIM    C2033604   6.174  10.078   6.116  0.0316  0.2981 -0.0142
    4BIM    C2133605   6.213   9.987   6.228 -0.1364  0.2594  0.0132
    4BIM    C2233606   6.275  10.071   6.331 -0.0491  0.1868  0.0200
    4BIM    C2333607   6.328  10.031   6.454 -0.1466  0.1314  0.0434
    4BIM    C2433608   6.382  10.129   6.536 -0.0325  0.0674  0.0456
    4BIM    C2533609   6.383  10.263   6.495  0.1726  0.0595  0.0246
    4BIM    C2633610   6.331  10.304   6.373  0.2708  0.1145  0.0013
    4BIM    C2733611   6.276  10.206   6.289  0.1578  0.1797 -0.0011
    4BIM    C2833612   6.214  10.216   6.155  0.2155  0.2479 -0.0229
    4BIM    C2933613   6.196  10.331   6.081  0.4036  0.2616 -0.0466
    4BIM    C3033614   6.238  10.460   6.126  0.5732  0.2097 -0.0536
    4BIM    C3133615   6.135  10.331   5.952  0.4454  0.3291 -0.0668
    5BIM     F133616   7.068   8.484   5.770  0.0026  0.1204  0.6288
    5BIM     F233617   7.032   8.221   5.830  0.0204 -0.0780 -0.2092
    5BIM     O133618   6.556   8.657   5.747 -0.0318  0.0026  0.5010
    5BIM     N533619   6.613   7.966   5.899  0.0217 -0.4473 -1.5053
    5BIM     N633620   6.220   8.154   5.869 -0.0087 -0.4992 -1.4362
    5BIM    C1933621   6.338   8.467   5.796 -0.0269 -0.2291 -0.3451
    5BIM    C2033622   6.469   8.434   5.799 -0.0190 -0.1915 -0.2800
    5BIM    C2133623   6.575   8.537   5.773 -0.0221 -0.0713  0.1646
    5BIM    C2233624   6.705   8.468   5.785 -0.0116 -0.0589  0.1200
    5BIM    C2333625   6.832   8.522   5.769 -0.0101  0.0372  0.4445
    5BIM    C2433626   6.940   8.437   5.784  0.0006  0.0285  0.3242
    5BIM    C2533627   6.921   8.301   5.815  0.0098 -0.0739 -0.1075
    5BIM    C2633628   6.794   8.246   5.831  0.0086 -0.1700 -0.4331
    5BIM    C2733629   6.683   8.331   5.816 -0.0024 -0.1631 -0.3177
    5BIM    C2833630   6.538   8.305   5.826 -0.0066 -0.2484 -0.5808
    5BIM    C2933631   6.478   8.184   5.855 -0.0001 -0.3591 -1.0192
    5BIM    C3033632   6.553   8.065   5.879  0.0118 -0.4070 -1.2851
    5BIM    C3133633   6.336   8.168   5.863 -0.0049 -0.4356 -1.2462
    1BTD     S233634   5.370   4.938   5.836  0.2362  0.2527  0.0502
    1BTD     N133635   5.278   4.790   5.882  0.0912  0.2364 -0.2872
    1BTD     N233636   5.531   4.858   5.841  0.2168  0.2381  0.4728
    1BTD     N333637   5.693   4.427   5.935 -0.0851  0.1788  0.7246
    1BTD     N433638   5.382   4.344   5.985 -0.2398  0.1767 -0.2121
    1BTD     C533639   5.336   4.558   5.935 -0.0796  0.2052 -0.2369
    1BTD     C633640   5.368   4.694   5.898  0.0384  0.2214 -0.0784
    1BTD     C733641   5.509   4.731   5.875  0.1087  0.2226  0.3470
    1BTD     C833642   5.612   4.632   5.891  0.0573  0.2071  0.5929
    1BTD    C1533643   5.576   4.501   5.927 -0.0586  0.1914  0.4251
    1BTD    C1633644   5.440   4.464   5.949 -0.1263  0.1904  0.0151
    1BTD    C4333645   5.454   4.240   6.062  0.1383  0.1389 -0.0597
    1BTD    C4433646   5.409   4.103   6.110  0.3246 -0.1110  0.3649
    1BTD    C4533647   5.291   4.089   6.213 -1.0396 -0.1557  0.1268
    1BTD    C4633648   5.291   4.143   6.358  0.0522  0.3796  0.2346
    1BTD    C4733649   5.533   4.018   6.137  0.1997  0.3312 -0.8167
    1BTD    C4833650   5.525   3.868   6.109 -0.1909 -0.4421  0.5116
    1BTD    C4933651   5.451   3.827   5.977  0.5696 -0.2017 -0.7688
    1BTD    C5033652   5.457   3.675   5.956  0.1501 -0.3531  0.0272
    1BTD    C7533653   5.714   4.280   5.921 -0.3924 -0.1985 -0.0500
    1BTD    C7633654   5.741   4.225   5.782 -0.0862 -0.0034  0.1594
    1BTD    C7733655   5.772   4.073   5.796 -0.9035 -0.4276  0.4155
    1BTD    C7833656   5.899   4.032   5.871  0.5877 -0.0805 -0.5250
    1BTD    C7933657   5.644   4.253   5.672 -0.5024 -0.0421 -0.2870
    1BTD    C8033658   5.500   4.203   5.684  0.0396 -0.0745  0.5482
    1BTD    C8133659   5.426   4.201   5.545 -0.6054  0.2951 -0.3572
    1BTD    C8233660   5.274   4.172   5.553  0.0856 -0.0740  0.7360
    2TTP     S133661   5.051   4.522   5.894  0.1231  0.0817 -0.0922
    2TTP     S533662   5.105   4.096   5.918 -0.0181  0.1111  0.7801
    2TTP     C133663   4.939   4.129   5.852  0.0843  0.0296  0.4818
    2TTP     C233664   4.913   4.263   5.840  0.1340  0.0157  0.1948
    2TTP     C333665   5.023   4.343   5.883  0.0930  0.0690  0.2004
    2TTP     C433666   5.217   4.488   5.960  0.0207  0.1632  0.2061
    2TTP    C1733667   5.243   4.354   5.972 -0.0290  0.1772  0.4931
    2TTP    C1833668   5.134   4.274   5.929  0.0120  0.1239  0.4878
    2TTP    C3233669   4.790   4.334   5.777 -0.7734  0.3644 -0.4763
    2TTP    C3333670   4.805   4.381   5.632 -0.5165  0.6960  0.1466
    2TTP    C3433671   4.688   4.441   5.559  0.1006  0.7125  0.0298
    2TTP    C3533672   4.621   4.568   5.602  0.3134 -0.6734 -0.0630
    2TTP    C3633673   4.497   4.559   5.694  0.3063  0.2813  0.6921
    2TTP    C3733674   4.376   4.481   5.640  0.0774  0.4101 -0.4751
    2TTP    C3833675   4.286   4.567   5.548 -0.0088 -0.1853  0.5048
    2TTP    C3933676   4.142   4.505   5.518 -0.7822  0.0407  0.5861
    2TTP    C4033677   4.054   4.602   5.452  0.5695  0.5511 -0.0767
    2TTP    C4133678   3.908   4.559   5.440  0.0851  0.2252  0.0761
    2TTP    C4233679   3.830   4.657   5.359 -0.0378 -0.3648 -0.4114
    3TTP     S133680   5.890   4.750   5.833 -0.1035 -0.0117 -0.6942
    3TTP     S533681   6.065   4.380   5.966  0.1612  0.3424 -0.0503
    3TTP     C133682   6.199   4.496   5.923  0.0784  0.3557 -0.2782
    3TTP     C233683   6.152   4.617   5.880 -0.0082  0.2471 -0.4904
    3TTP     C333684   6.010   4.623   5.878 -0.0123  0.1495 -0.4807
    3TTP     C433685   5.756   4.634   5.875 -0.0207 -0.0250 -0.4662
    3TTP    C1733686   5.802   4.513   5.919  0.0660  0.0836 -0.2541
    3TTP    C1833687   5.945   4.508   5.920  0.0700  0.1811 -0.2637
    3TTP    C3233688   6.227   4.734   5.833 -0.4933 -1.2383  0.1791
    3TTP    C3333689   6.201   4.775   5.685 -0.1806  0.3044  0.0896
    3TTP    C3433690   6.250   4.916   5.641  0.2623  0.0965 -0.0431
    3TTP    C3533691   6.403   4.943   5.639 -0.5637  0.6120 -0.9449
    3TTP    C3633692   6.445   5.089   5.609  0.1191  0.2830 -0.5526
    3TTP    C3733693   6.396   5.201   5.703 -0.1303  0.3452  0.7795
    3TTP    C3833694   6.412   5.181   5.852  0.6944  0.6157 -0.8149
    3TTP    C3933695   6.322   5.266   5.947  0.0521  0.2115 -0.0071
    3TTP    C4033696   6.310   5.416   5.915  0.1531 -0.4498  0.4870
    3TTP    C4133697   6.440   5.494   5.915  0.1871  0.0273 -0.1637
    3TTP    C4233698   6.426   5.639   5.922  0.2424 -0.3249 -0.4500
    4BIM     F133699   4.871   3.329   6.024  0.1073  0.0415 -0.3326
    4BIM     F233700   4.642   3.322   5.878 -0.2642  0.2137  0.2370
    4BIM     O133701   5.004   3.852   5.980  0.2724 -0.0128 -0.4802
    4BIM     N533702   4.406   3.684   5.637 -0.6806  0.4227  0.9507
    4BIM     N633703   4.557   4.094   5.632 -0.4766  0.3455  0.7206
    4BIM    C1933704   4.832   4.031   5.825 -0.0238  0.1325  0.0116
    4BIM    C2033705   4.808   3.899   5.841 -0.0509  0.1394  0.0265
    4BIM    C2133706   4.901   3.814   5.923  0.1084  0.0617 -0.2358
    4BIM    C2233707   4.845   3.677   5.920  0.0310  0.0919 -0.1447
    4BIM    C2333708   4.897   3.564   5.982  0.1256  0.0430 -0.3129
    4BIM    C2433709   4.826   3.445   5.966  0.0226  0.0858 -0.1789
    4BIM    C2533710   4.708   3.442   5.891 -0.1688  0.1746  0.1148
    4BIM    C2633711   4.656   3.555   5.829 -0.2639  0.2237  0.2840
    4BIM    C2733712   4.726   3.676   5.844 -0.1620  0.1814  0.1519
    4BIM    C2833713   4.698   3.812   5.793 -0.2199  0.2143  0.2687
    4BIM    C2933714   4.591   3.850   5.715 -0.3966  0.2978  0.5480
    4BIM    C3033715   4.490   3.759   5.672 -0.5519  0.3663  0.7685
    4BIM    C3133716   4.573   3.984   5.669 -0.4396  0.3237  0.6413
    5BIM     F133717   6.678   3.869   6.167 -0.2304  0.1575  0.3374
    5BIM     F233718   6.875   4.050   6.216  0.0131  0.0353 -0.1794
    5BIM     O133719   6.290   4.190   5.969 -0.1771  0.2559  0.3927
    5BIM     N533720   6.882   4.540   6.144  0.4013 -0.0703 -0.8831
    5BIM     N633721   6.539   4.754   5.979  0.3937  0.0314 -0.7356
    5BIM    C1933722   6.341   4.478   5.945  0.0745  0.1742 -0.0815
    5BIM    C2033723   6.431   4.390   5.993  0.0516  0.1541 -0.0753
    5BIM    C2133724   6.397   4.244   6.002 -0.0805  0.1991  0.1762
    5BIM    C2233725   6.516   4.177   6.058 -0.0718  0.1620  0.1140
    5BIM    C2333726   6.533   4.041   6.085 -0.1696  0.1835  0.2841
    5BIM    C2433727   6.655   4.002   6.138 -0.1384  0.1397  0.1800
    5BIM    C2533728   6.756   4.095   6.163 -0.0127  0.0767 -0.0863
    5BIM    C2633729   6.740   4.231   6.136  0.0854  0.0552 -0.2574
    5BIM    C2733730   6.618   4.273   6.083  0.0557  0.0987 -0.1556
    5BIM    C2833731   6.569   4.407   6.043  0.1363  0.0914 -0.2823
    5BIM    C2933732   6.639   4.525   6.052  0.2650  0.0367 -0.5419
    5BIM    C3033733   6.772   4.533   6.103  0.3394 -0.0218 -0.7286
    5BIM    C3133734   6.584   4.651   6.012  0.3350  0.0340 -0.6471
    1BTD     S233735   1.938   5.299   7.648  0.0216  0.0402 -0.1123
    1BTD     N133736   1.773   5.357   7.607  0.0141 -0.0006 -0.1396
    1BTD     N233737   2.020   5.449   7.591 -0.0107  0.0825 -0.0486
    1BTD     N333738   1.889   5.857   7.399 -0.0899  0.0947  0.0314
    1BTD     N433739   1.584   5.744   7.419 -0.0594 -0.0079 -0.0806
    1BTD     C533740   1.678   5.560   7.508 -0.0246 -0.0030 -0.1074
    1BTD     C633741   1.787   5.478   7.555 -0.0108  0.0184 -0.1019
    1BTD     C733742   1.925   5.529   7.546 -0.0246  0.0648 -0.0511
    1BTD     C833743   1.948   5.660   7.491 -0.0517  0.0875 -0.0083
    1BTD    C1533744   1.839   5.737   7.447 -0.0644  0.0652 -0.0155
    1BTD    C1633745   1.705   5.688   7.455 -0.0511  0.0205 -0.0645
    1BTD    C4333746   1.551   5.884   7.439 -0.0754 -0.7210 -0.1871
    1BTD    C4433747   1.432   5.961   7.377 -0.1872 -0.6536  0.0050
    1BTD    C4533748   1.435   6.107   7.429  0.6721 -0.0319 -0.3442
    1BTD    C4633749   1.403   6.149   7.573 -0.0439  0.3456 -0.4782
    1BTD    C4733750   1.447   5.955   7.226 -0.1441 -0.2118 -0.0717
    1BTD    C4833751   1.375   6.047   7.127  0.8978  0.1972  0.4052
    1BTD    C4933752   1.221   6.045   7.133  0.0895  0.4078 -0.4045
    1BTD    C5033753   1.158   6.153   7.039  0.2371  0.6523  0.4025
    1BTD    C7533754   1.824   5.945   7.298  0.5247 -0.0015  0.7014
    1BTD    C7633755   1.829   6.101   7.296  0.6559 -0.1477  0.6347
    1BTD    C7733756   1.750   6.149   7.169  0.3104  0.5174  0.1277
    1BTD    C7833757   1.780   6.101   7.028 -0.0968 -0.1058  0.1533
    1BTD    C7933758   1.786   6.165   7.414  0.4908 -0.2876 -0.8652
    1BTD    C8033759   1.780   6.315   7.416 -0.1212 -0.5734  0.6071
    1BTD    C8133760   1.716   6.366   7.538 -0.3285 -0.2579 -0.3398
    1BTD    C8233761   1.693   6.515   7.541 -0.3402 -0.0375 -0.2519
    2TTP     S133762   1.414   5.400   7.524  0.0468 -0.1577  0.0858
    2TTP     S533763   1.210   5.730   7.339 -0.0331 -0.2944 -0.0713
    2TTP     C133764   1.090   5.597   7.369  0.0021 -0.3152 -0.0212
    2TTP     C233765   1.146   5.487   7.427  0.0288 -0.2742  0.0300
    2TTP     C333766   1.286   5.504   7.451  0.0225 -0.2248  0.0319
    2TTP     C433767   1.535   5.533   7.494  0.0116 -0.1370  0.0358
    2TTP    C1733768   1.479   5.643   7.436 -0.0152 -0.1779 -0.0155
    2TTP    C1833769   1.339   5.626   7.412 -0.0088 -0.2273 -0.0174
    2TTP    C3233770   1.084   5.356   7.462  0.3992  0.2044 -0.1669
    2TTP    C3333771   1.052   5.330   7.613 -1.1408  0.1080 -0.1087
    2TTP    C3433772   1.037   5.183   7.652 -0.0547 -0.6662  0.1647
    2TTP    C3533773   0.903   5.125   7.595 -0.3030 -0.9622  0.4536
    2TTP    C3633774   0.857   4.997   7.652  0.1459  0.0752  0.3011
    2TTP    C3733775   0.725   4.941   7.599  0.3370  0.1941  0.0669
    2TTP    C3833776   0.608   5.034   7.614  0.0765  0.2542 -0.5918
    2TTP    C3933777   0.478   4.981   7.550 -0.1930 -0.0448 -0.5872
    2TTP    C4033778   0.384   5.100   7.536  0.7418  1.0181 -0.1935
    2TTP    C4133779   0.246   5.064   7.479  0.4189 -0.4399  0.2109
    2TTP    C4233780   0.163   5.193   7.443  0.1373 -0.0707 -0.0845
    3TTP     S133781   2.239   5.736   7.535 -0.1646  0.2708 -0.0465
    3TTP     S533782   2.157   6.127   7.375 -0.2075  0.3914  0.2682
    3TTP     C133783   2.329   6.124   7.434 -0.1714  0.3265  0.1594
    3TTP     C233784   2.365   6.003   7.487 -0.1560  0.2855  0.0557
    3TTP     C333785   2.257   5.909   7.483 -0.1723  0.3036  0.0585
    3TTP     C433786   2.067   5.740   7.476 -0.2007  0.3358  0.0622
    3TTP    C1733787   2.032   5.861   7.423 -0.2162  0.3766  0.1660
    3TTP    C1833788   2.139   5.955   7.427 -0.2000  0.3583  0.1631
    3TTP    C3233789   2.491   5.959   7.550 -0.6172  0.2306 -0.2181
    3TTP    C3333790   2.581   5.857   7.473  0.3151 -0.4067  0.0643
    3TTP    C3433791   2.711   5.821   7.544 -0.2037  0.2495  0.1418
    3TTP    C3533792   2.705   5.765   7.683 -0.1419 -0.7897 -0.3938
    3TTP    C3633793   2.837   5.741   7.750 -0.8853 -0.6177  0.2490
    3TTP    C3733794   2.917   5.868   7.793  0.6540  0.3106  1.0451
    3TTP    C3833795   3.049   5.834   7.855  0.1213 -0.0460 -0.2995
    3TTP    C3933796   3.099   5.954   7.935  0.0858 -0.2578 -0.2038
    3TTP    C4033797   3.103   6.091   7.877  0.0805 -0.7634  0.4461
    3TTP    C4133798   3.112   6.210   7.977 -0.2950 -0.2105 -0.1263
    3TTP    C4233799   3.190   6.333   7.918 -0.0255  0.3614 -0.8793
    4BIM     F133800   0.644   6.020   6.827  0.1361  0.1774  0.0837
    4BIM     F233801   0.418   5.914   6.936  0.1217 -0.5553 -0.6418
    4BIM     O133802   1.026   5.782   7.127 -0.0167  0.7324  0.7241
    4BIM     N533803   0.367   5.590   7.307 -0.0080 -1.2130 -1.2286
    4BIM     N633804   0.711   5.425   7.520 -0.1245 -0.6315 -0.5821
    4BIM    C1933805   0.946   5.595   7.338 -0.0848  0.2297  0.2582
    4BIM    C2033806   0.859   5.659   7.258 -0.0458  0.1187  0.1255
    4BIM    C2133807   0.907   5.754   7.152 -0.0125  0.3936  0.3825
    4BIM    C2233808   0.787   5.806   7.084  0.0259  0.1818  0.1489
    4BIM    C2333809   0.782   5.897   6.979  0.0650  0.3170  0.2627
    4BIM    C2433810   0.656   5.931   6.931  0.0966  0.0626 -0.0094
    4BIM    C2533811   0.540   5.876   6.987  0.0892 -0.3147 -0.3828
    4BIM    C2633812   0.545   5.785   7.092  0.0502 -0.4517 -0.4985
    4BIM    C2733813   0.671   5.749   7.142  0.0178 -0.1984 -0.2271
    4BIM    C2833814   0.711   5.657   7.252 -0.0266 -0.2520 -0.2563
    4BIM    C2933815   0.626   5.584   7.331 -0.0461 -0.5822 -0.5761
    4BIM    C3033816   0.484   5.588   7.318 -0.0250 -0.9278 -0.9338
    4BIM    C3133817   0.673   5.497   7.434 -0.0891 -0.6074 -0.5774
    5BIM     F133818   2.346   6.918   7.211  0.1661 -0.2666 -0.2893
    5BIM     F233819   2.531   6.961   7.406 -0.0561 -0.1423 -0.1054
    5BIM     O133820   2.274   6.383   7.253  0.2505 -0.2671 -0.1509
    5BIM     N533821   2.745   6.641   7.717 -0.3155  0.0356  0.2577
    5BIM     N633822   2.651   6.214   7.711 -0.2047  0.0103  0.3288
    5BIM    C1933823   2.425   6.234   7.455  0.0681 -0.1487  0.0739
    5BIM    C2033824   2.436   6.367   7.436  0.0556 -0.1534  0.0319
    5BIM    C2133825   2.355   6.437   7.331  0.1534 -0.2160 -0.0844
    5BIM    C2233826   2.391   6.579   7.338  0.1109 -0.2044 -0.1032
    5BIM    C2333827   2.341   6.683   7.259  0.1705 -0.2482 -0.1991
    5BIM    C2433828   2.390   6.811   7.285  0.1122 -0.2259 -0.1974
    5BIM    C2533829   2.486   6.832   7.385 -0.0023 -0.1620 -0.1025
    5BIM    C2633830   2.535   6.729   7.464 -0.0625 -0.1180 -0.0067
    5BIM    C2733831   2.487   6.600   7.440 -0.0048 -0.1396 -0.0069
    5BIM    C2833832   2.518   6.470   7.504 -0.0433 -0.1056  0.0801
    5BIM    C2933833   2.607   6.449   7.607 -0.1501 -0.0424  0.1850
    5BIM    C3033834   2.682   6.555   7.667 -0.2407  0.0004  0.2246
    5BIM    C3133835   2.631   6.320   7.664 -0.1796 -0.0138  0.2635
    1BTD     S233836   7.548   4.573   0.969 -0.0192 -0.1768  0.0025
    1BTD     N133837   7.632   4.481   1.099 -0.3576 -0.0545  0.3125
    1BTD     N233838   7.640   4.725   0.998  0.1789 -0.2637 -0.1645
    1BTD     N333839   7.978   4.869   1.290 -0.0290 -0.2197  0.0552
    1BTD     N433840   7.969   4.568   1.415 -0.6902  0.0379  0.6430
    1BTD     C533841   7.808   4.530   1.262 -0.5233 -0.0094  0.4780
    1BTD     C633842   7.720   4.564   1.154 -0.3083 -0.0832  0.2775
    1BTD     C733843   7.724   4.701   1.097 -0.0079 -0.2002  0.0105
    1BTD     C833844   7.816   4.796   1.152  0.0625 -0.2376 -0.0427
    1BTD    C1533845   7.901   4.759   1.258 -0.1551 -0.1623  0.1597
    1BTD    C1633846   7.897   4.627   1.312 -0.4445 -0.0496  0.4170
    1BTD    C4333847   8.116   4.586   1.427  0.0071  0.1658  0.1475
    1BTD    C4433848   8.199   4.564   1.554 -0.5495  0.5434  0.1843
    1BTD    C4533849   8.349   4.594   1.542 -0.1401 -1.0832 -0.1161
    1BTD    C4633850   8.437   4.517   1.441  0.1177 -0.9724 -0.2140
    1BTD    C4733851   8.132   4.631   1.669  0.1581 -0.1090 -0.1050
    1BTD    C4833852   8.184   4.620   1.811 -0.6249  0.6289 -0.5522
    1BTD    C4933853   8.114   4.696   1.923  0.7666  0.0282 -0.2602
    1BTD    C5033854   8.185   4.666   2.050  0.0663 -0.5855  0.5043
    1BTD    C7533855   8.049   4.892   1.418 -0.4845 -0.1254  0.3119
    1BTD    C7633856   8.170   4.983   1.437 -0.7983  0.6632 -0.6706
    1BTD    C7733857   8.291   4.943   1.349  0.1475  0.1200  0.7297
    1BTD    C7833858   8.412   5.032   1.343 -0.2518 -0.3807  0.1668
    1BTD    C7933859   8.199   4.998   1.580  0.2500 -0.2231  0.0258
    1BTD    C8033860   8.087   5.071   1.657  0.1697 -0.6764  0.1049
    1BTD    C8133861   8.121   5.091   1.804  0.3779  0.1078 -0.0101
    1BTD    C8233862   8.247   5.160   1.847  0.5376 -0.6199 -0.3571
    2TTP     S133863   7.765   4.247   1.343 -0.1819  0.2393  0.1782
    2TTP     S533864   7.999   4.316   1.697  0.3840 -0.0061 -0.1456
    2TTP     C133865   7.915   4.156   1.714  0.4273 -0.0272 -0.1312
    2TTP     C233866   7.838   4.125   1.606  0.2551  0.0473 -0.0304
    2TTP     C333867   7.842   4.227   1.506  0.0829  0.1239  0.0392
    2TTP     C433868   7.849   4.407   1.327 -0.2251  0.2604  0.1639
    2TTP    C1733869   7.926   4.438   1.435 -0.0529  0.1860  0.0631
    2TTP    C1833870   7.922   4.336   1.535  0.1193  0.1093 -0.0065
    2TTP    C3233871   7.750   4.000   1.588 -0.1277 -0.2311  0.3738
    2TTP    C3333872   7.813   3.913   1.480 -0.4001  0.0154 -0.2787
    2TTP    C3433873   7.734   3.791   1.439 -0.2262  0.4537  0.1172
    2TTP    C3533874   7.802   3.704   1.334  0.3861 -0.3010  0.0218
    2TTP    C3633875   7.801   3.775   1.194 -0.4216 -0.2255  0.1537
    2TTP    C3733876   7.886   3.707   1.078  0.3467 -0.5710  0.0816
    2TTP    C3833877   7.838   3.559   1.062 -0.7476 -0.1733  0.4943
    2TTP    C3933878   7.941   3.513   0.955  0.3161 -0.7991 -0.2604
    2TTP    C4033879   7.916   3.374   0.912  0.3473  0.1412 -0.3313
    2TTP    C4133880   8.016   3.322   0.808  0.2560  0.4299 -0.6174
    2TTP    C4233881   7.983   3.181   0.786  0.0654 -0.4691  0.2511
    3TTP     S133882   7.802   5.065   0.996 -0.1910  0.1782  0.1561
    3TTP     S533883   8.053   5.242   1.297 -0.1385 -0.2984  0.3937
    3TTP     C133884   8.004   5.371   1.179  0.0049 -0.1519  0.4941
    3TTP     C233885   7.923   5.324   1.079 -0.0026  0.0039  0.4266
    3TTP     C333886   7.898   5.184   1.092 -0.1222  0.0131  0.2932
    3TTP     C433887   7.851   4.935   1.114 -0.3344  0.0316  0.0558
    3TTP    C1733888   7.932   4.982   1.214 -0.3266 -0.1242  0.1232
    3TTP    C1833889   7.957   5.122   1.201 -0.2073 -0.1335  0.2566
    3TTP    C3233890   7.870   5.393   0.961  1.0325 -0.5450  0.7163
    3TTP    C3333891   7.717   5.425   0.975  0.5108 -0.6226 -0.4807
    3TTP    C3433892   7.655   5.494   0.852 -0.0179  0.0917 -0.0380
    3TTP    C3533893   7.504   5.525   0.856  0.3862 -0.0401 -0.2884
    3TTP    C3633894   7.448   5.573   0.724 -0.1985 -0.1192  0.1478
    3TTP    C3733895   7.303   5.622   0.717 -0.0312 -0.0775 -1.0584
    3TTP    C3833896   7.185   5.534   0.760 -0.8727  0.0915 -0.0014
    3TTP    C3933897   7.170   5.414   0.668 -0.3467  0.4853 -0.1568
    3TTP    C4033898   7.027   5.367   0.655 -0.0149 -0.6378 -0.3663
    3TTP    C4133899   7.006   5.238   0.582  0.1861  0.1200  0.5105
    3TTP    C4233900   6.861   5.208   0.594 -0.0551  0.7202  0.2816
    4BIM     F133901   8.201   4.226   2.480 -0.0982 -0.0423  0.0333
    4BIM     F233902   8.158   3.959   2.516 -0.2296 -0.0182  0.0557
    4BIM     O133903   8.028   4.289   1.971 -0.0644  0.0004  0.0271
    4BIM     N533904   7.973   3.622   2.206 -0.3946  0.0466  0.0833
    4BIM     N633905   7.846   3.725   1.801 -0.3415  0.0751  0.0740
    4BIM    C1933906   7.925   4.057   1.825 -0.1779  0.0384  0.0462
    4BIM    C2033907   7.970   4.052   1.952 -0.1813  0.0267  0.0469
    4BIM    C2133908   8.022   4.175   2.020 -0.1206  0.0073  0.0367
    4BIM    C2233909   8.063   4.134   2.155 -0.1419 -0.0014  0.0404
    4BIM    C2333910   8.117   4.214   2.256 -0.1028 -0.0194  0.0339
    4BIM    C2433911   8.148   4.153   2.376 -0.1336 -0.0248  0.0393
    4BIM    C2533912   8.126   4.015   2.395 -0.2014 -0.0122  0.0508
    4BIM    C2633913   8.072   3.935   2.295 -0.2406  0.0057  0.0573
    4BIM    C2733914   8.040   3.995   2.172 -0.2100  0.0112  0.0520
    4BIM    C2833915   7.982   3.939   2.048 -0.2373  0.0291  0.0564
    4BIM    C2933916   7.946   3.808   2.026 -0.3017  0.0447  0.0674
    4BIM    C3033917   7.961   3.706   2.125 -0.3524  0.0457  0.0761
    4BIM    C3133918   7.891   3.763   1.902 -0.3232  0.0613  0.0710
    5BIM     F133919   8.659   5.758   1.481 -0.0830 -0.2593  0.1952
    5BIM     F233920   8.534   5.995   1.435  0.1926 -0.1588 -0.0432
    5BIM     O133921   8.293   5.409   1.288 -0.2866 -0.0023  0.1166
    5BIM     N533922   8.093   6.088   1.231  0.4447  0.1692 -0.4420
    5BIM     N633923   7.832   5.767   1.090  0.2300  0.3496 -0.4553
    5BIM    C1933924   8.043   5.512   1.175 -0.0953  0.1852 -0.1391
    5BIM    C2033925   8.140   5.590   1.226 -0.0546  0.1165 -0.1100
    5BIM    C2133926   8.266   5.530   1.282 -0.1593  0.0221  0.0237
    5BIM    C2233927   8.349   5.643   1.327 -0.0811 -0.0355  0.0220
    5BIM    C2333928   8.475   5.636   1.387 -0.1333 -0.1281  0.1237
    5BIM    C2433929   8.535   5.756   1.422 -0.0384 -0.1679  0.0990
    5BIM    C2533930   8.470   5.879   1.398  0.1035 -0.1158 -0.0240
    5BIM    C2633931   8.345   5.886   1.339  0.1564 -0.0234 -0.1259
    5BIM    C2733932   8.282   5.765   1.303  0.0622  0.0180 -0.1027
    5BIM    C2833933   8.151   5.738   1.239  0.0842  0.1135 -0.1887
    5BIM    C2933934   8.058   5.831   1.200  0.2089  0.1853 -0.3167
    5BIM    C3033935   8.078   5.972   1.217  0.3378  0.1761 -0.3852
    5BIM    C3133936   7.934   5.796   1.140  0.2197  0.2755 -0.3923
    1BTD     S233937   8.681   8.493   5.657 -0.1164  0.0543  0.0534
    1BTD     N133938   8.754   8.655   5.629 -0.1435  0.0532 -0.0250
    1BTD     N233939   8.521   8.538   5.588 -0.1915  0.0584  0.2291
    1BTD     N333940   8.328   8.921   5.397 -0.3924  0.0651  0.4451
    1BTD     N433941   8.615   9.065   5.448 -0.3335  0.0589  0.1318
    1BTD     C533942   8.678   8.867   5.534 -0.2437  0.0560  0.0607
    1BTD     C633943   8.661   8.730   5.573 -0.2036  0.0558  0.0783
    1BTD     C733944   8.530   8.664   5.550 -0.2303  0.0587  0.2205
    1BTD     C833945   8.423   8.739   5.489 -0.2959  0.0618  0.3381
    1BTD    C1533946   8.445   8.874   5.453 -0.3325  0.0622  0.3157
    1BTD    C1633947   8.571   8.937   5.475 -0.3068  0.0590  0.1786
    1BTD    C4333948   8.530   9.187   5.454  0.4716  0.4281 -0.0235
    1BTD    C4433949   8.559   9.323   5.394 -0.2291  0.9602  0.0865
    1BTD    C4533950   8.483   9.442   5.458  0.3024 -0.0356  0.4060
    1BTD    C4633951   8.488   9.457   5.609 -0.3366  0.1614 -0.1765
    1BTD    C4733952   8.560   9.314   5.243  0.0246  1.0219 -0.1852
    1BTD    C4833953   8.599   9.440   5.168 -1.0796 -0.9837 -1.0264
    1BTD    C4933954   8.534   9.449   5.032  0.1281  0.9311  0.1992
    1BTD    C5033955   8.518   9.583   4.970 -0.3439  0.6570 -0.0061
    1BTD    C7533956   8.334   9.011   5.279  0.1057 -0.2367  0.3929
    1BTD    C7633957   8.217   9.100   5.239  0.3021  0.2886  0.2633
    1BTD    C7733958   8.171   9.196   5.353  0.3583  0.0417  0.2932
    1BTD    C7833959   8.032   9.257   5.322  0.4479  0.0436 -0.3665
    1BTD    C7933960   8.241   9.170   5.099 -0.2777 -0.2211  0.4761
    1BTD    C8033961   8.274   9.087   4.976 -0.4647  0.1319  0.0031
    1BTD    C8133962   8.274   9.162   4.851  0.6994  0.2483  0.4445
    1BTD    C8233963   8.294   9.073   4.728  0.0048 -1.0195 -1.0071
    2TTP     S133964   8.966   8.948   5.575 -0.3444 -0.1947 -0.1709
    2TTP     S533965   8.872   9.343   5.433  0.2620  0.1531  0.3877
    2TTP     C133966   9.049   9.337   5.477  0.2575 -0.1838  0.3705
    2TTP     C233967   9.088   9.215   5.524  0.0699 -0.3111  0.1971
    2TTP     C333968   8.980   9.121   5.526 -0.0770 -0.1471  0.0714
    2TTP     C433969   8.789   8.953   5.530 -0.3397  0.1421 -0.1537
    2TTP    C1733970   8.750   9.075   5.484 -0.1518  0.2695  0.0195
    2TTP    C1833971   8.858   9.169   5.482 -0.0050  0.1054  0.1453
    2TTP    C3233972   9.224   9.178   5.569  0.0774  0.6477 -0.1543
    2TTP    C3333973   9.228   9.120   5.710 -0.2319 -0.3980 -0.1677
    2TTP    C3433974   9.358   9.044   5.738 -0.2585 -1.0853 -0.4473
    2TTP    C3533975   9.485   9.121   5.706 -0.8847  0.4140 -0.4254
    2TTP    C3633976   9.616   9.074   5.792  1.1596  0.3693  0.7146
    2TTP    C3733977   9.748   9.130   5.780  0.2399 -0.8174 -1.2120
    2TTP    C3833978   9.754   9.286   5.797  0.3301 -0.6976 -0.2730
    2TTP    C3933979   9.901   9.343   5.803 -0.1462 -0.9910  0.3541
    2TTP    C4033980   9.902   9.486   5.772 -0.1886  0.0531  0.1425
    2TTP    C4133981  10.040   9.555   5.754  0.2249 -0.5268  0.2614
    2TTP    C4233982  10.020   9.710   5.728  0.0975 -0.1778  0.0789
    3TTP     S133983   8.177   8.565   5.477  0.1013  0.0613  0.0878
    3TTP     S533984   7.957   8.903   5.328 -0.0234 -0.0591 -0.0017
    3TTP     C133985   7.842   8.764   5.349  0.0965 -0.2088 -0.3211
    3TTP     C233986   7.903   8.651   5.396  0.1421 -0.1805 -0.3124
    3TTP     C333987   8.043   8.671   5.418  0.0842 -0.0393 -0.0530
    3TTP     C433988   8.292   8.704   5.456 -0.0181  0.2110  0.4071
    3TTP    C1733989   8.231   8.817   5.409 -0.0639  0.1823  0.3985
    3TTP    C1833990   8.091   8.797   5.387 -0.0060  0.0415  0.1390
    3TTP    C3233991   7.841   8.511   5.413 -0.2567  0.2409 -0.3571
    3TTP    C3333992   7.888   8.395   5.320  0.4647 -0.5063 -0.1526
    3TTP    C3433993   7.782   8.283   5.306 -0.3992 -0.0727 -1.1716
    3TTP    C3533994   7.737   8.212   5.433 -0.2194  0.0400  0.1307
    3TTP    C3633995   7.643   8.096   5.393 -0.5045 -0.3130 -0.1655
    3TTP    C3733996   7.620   7.996   5.500  0.2050  0.4606  0.4607
    3TTP    C3833997   7.525   7.878   5.466  0.6662  0.2171 -0.6318
    3TTP    C3933998   7.380   7.915   5.426  0.4161  0.8017  0.3942
    3TTP    C4033999   7.282   7.804   5.399 -0.2094 -0.5929 -0.3783
    3TTP    C4134000   7.208   7.770   5.526  0.2005  0.0947  0.5015
    3TTP    C4234001   7.089   7.680   5.501 -0.4178 -0.5181  0.5655
    4BIM     F134002   8.973  10.143   5.321 -0.2961  0.0014  0.7057
    4BIM     F234003   9.224  10.181   5.421  0.2003 -0.1326 -0.4569
    4BIM     O134004   8.922   9.606   5.377 -0.3452  0.0355  0.9905
    4BIM     N534005   9.547   9.854   5.604  0.8790 -0.3002 -1.9253
    4BIM     N634006   9.456   9.427   5.628  0.7408 -0.2468 -1.4684
    4BIM    C1934007   9.143   9.453   5.492  0.1118 -0.0801 -0.0191
    4BIM    C2034008   9.146   9.586   5.474  0.1047 -0.0837 -0.0454
    4BIM    C2134009   9.028   9.658   5.415 -0.1373 -0.0219  0.4928
    4BIM    C2234010   9.065   9.801   5.409 -0.0787 -0.0434  0.3110
    4BIM    C2334011   8.988   9.907   5.362 -0.2432 -0.0036  0.6584
    4BIM    C2434012   9.044  10.033   5.367 -0.1441 -0.0348  0.3882
    4BIM    C2534013   9.173  10.053   5.418  0.1120 -0.1036 -0.2109
    4BIM    C2634014   9.250   9.948   5.466  0.2770 -0.1435 -0.5599
    4BIM    C2734015   9.195   9.819   5.462  0.1800 -0.1125 -0.2943
    4BIM    C2834016   9.250   9.688   5.504  0.3030 -0.1402 -0.5372
    4BIM    C2934017   9.374   9.665   5.559  0.5527 -0.2060 -1.1085
    4BIM    C3034018   9.469   9.769   5.584  0.7312 -0.2575 -1.5556
    4BIM    C3134019   9.419   9.534   5.597  0.6547 -0.2279 -1.3032
    5BIM     F134020   7.292   9.296   5.044 -0.1130  0.1886 -0.0386
    5BIM     F234021   7.102   9.103   5.066 -0.0755  0.1397 -0.1445
    5BIM     O134022   7.726   9.034   5.234 -0.1836  0.3510  0.3488
    5BIM     N534023   7.138   8.638   5.233 -0.0716  0.1843 -0.0204
    5BIM     N634024   7.516   8.473   5.377 -0.1346  0.3211  0.3035
    5BIM    C1934025   7.699   8.757   5.323 -0.1729  0.3620  0.3854
    5BIM    C2034026   7.597   8.830   5.274 -0.1565  0.3228  0.2919
    5BIM    C2134027   7.619   8.972   5.230 -0.1634  0.3197  0.2794
    5BIM    C2234028   7.489   9.022   5.183 -0.1417  0.2730  0.1690
    5BIM    C2334029   7.459   9.149   5.133 -0.1392  0.2542  0.1203
    5BIM    C2434030   7.328   9.173   5.094 -0.1167  0.2093  0.0145
    5BIM    C2534031   7.230   9.073   5.106 -0.0973  0.1839 -0.0396
    5BIM    C2634032   7.259   8.947   5.156 -0.0998  0.2027  0.0086
    5BIM    C2734033   7.391   8.920   5.195 -0.1224  0.2480  0.1153
    5BIM    C2834034   7.454   8.798   5.252 -0.1307  0.2778  0.1886
    5BIM    C2934035   7.391   8.679   5.278 -0.1172  0.2651  0.1655
    5BIM    C3034036   7.252   8.657   5.253 -0.0921  0.2208  0.0633
    5BIM    C3134037   7.460   8.566   5.333 -0.1268  0.2964  0.2415
    1BTD     S234038   0.077   9.327   1.647 -0.1453  0.1687  0.2863
    1BTD     N134039  -0.032   9.442   1.562 -0.3321  0.1135  0.4501
    1BTD     N234040   0.200   9.452   1.690 -0.0060  0.1805 -0.1415
    1BTD     N334041   0.252   9.913   1.623 -0.0593  0.1042 -0.7177
    1BTD     N434042  -0.033   9.901   1.466 -0.4609  0.0222  0.0113
    1BTD     C534043  -0.029   9.682   1.514 -0.3943  0.0665  0.2122
    1BTD     C634044   0.026   9.561   1.570 -0.2834  0.1070  0.1909
    1BTD     C734045   0.155   9.567   1.641 -0.1009  0.1445 -0.1403
    1BTD     C834046   0.224   9.693   1.653 -0.0387  0.1395 -0.4335
    1BTD    C1534047   0.166   9.808   1.597 -0.1521  0.0995 -0.4006
    1BTD    C1634048   0.041   9.803   1.528 -0.3279  0.0636 -0.0815
    1BTD    C4334049  -0.025  10.050   1.448 -0.1621 -0.2463 -0.0131
    1BTD    C4434050  -0.050  10.144   1.570  0.2962  0.3606 -0.2684
    1BTD    C4534051  -0.194  10.141   1.630  0.3107  0.3050  0.2208
    1BTD    C4634052  -0.308  10.214   1.559 -0.2837 -0.4329 -0.2321
    1BTD    C4734053   0.009  10.282   1.552 -0.1627 -0.5478  0.2599
    1BTD    C4834054   0.041  10.372   1.676 -0.2580  0.0912 -0.4278
    1BTD    C4934055   0.148  10.304   1.760 -0.5464 -0.2215 -0.0598
    1BTD    C5034056   0.187  10.364   1.891  0.1277 -1.3843 -0.1486
    1BTD    C7534057   0.289  10.032   1.541 -0.0840  0.3241 -0.1011
    1BTD    C7634058   0.400  10.032   1.437 -0.0214 -0.1295  0.0162
    1BTD    C7734059   0.372   9.940   1.322 -0.3571  0.0844 -0.1915
    1BTD    C7834060   0.470   9.923   1.208 -0.0473  0.2557  0.5377
    1BTD    C7934061   0.438  10.175   1.386 -0.4265 -0.5340  0.0657
    1BTD    C8034062   0.531  10.259   1.482  0.1867 -0.0772 -0.4664
    1BTD    C8134063   0.623  10.365   1.428 -0.0377  0.0084 -0.3913
    1BTD    C8234064   0.696  10.443   1.537  0.4838  0.0491  0.5103
    2TTP     S134065  -0.311   9.631   1.415 -0.0314  0.1309 -0.1556
    2TTP     S534066  -0.341  10.040   1.284 -0.3319  0.2176  0.1809
    2TTP     C134067  -0.495   9.953   1.240 -0.3193  0.1738  0.2233
    2TTP     C234068  -0.495   9.822   1.278 -0.2260  0.1445  0.1219
    2TTP     C334069  -0.373   9.785   1.343 -0.1607  0.1555  0.0070
    2TTP     C434070  -0.158   9.717   1.459 -0.0441  0.1747 -0.1980
    2TTP    C1734071  -0.158   9.849   1.421 -0.1374  0.2041 -0.0965
    2TTP    C1834072  -0.279   9.886   1.356 -0.2027  0.1930  0.0183
    2TTP    C3234073  -0.598   9.714   1.262  0.1986  0.0840 -0.2983
    2TTP    C3334074  -0.671   9.663   1.388 -0.0314 -0.4743  0.3498
    2TTP    C3434075  -0.762   9.542   1.373  0.1158  0.3286 -0.1575
    2TTP    C3534076  -0.845   9.515   1.496 -0.0185 -0.2550 -0.1126
    2TTP    C3634077  -0.970   9.430   1.488  0.1747  0.0160 -0.5347
    2TTP    C3734078  -1.094   9.495   1.412  0.1394 -0.2571 -0.4190
    2TTP    C3834079  -1.225   9.423   1.434  0.2676  0.5259  0.0107
    2TTP    C3934080  -1.339   9.490   1.360 -0.7026 -0.1830  0.2313
    2TTP    C4034081  -1.482   9.441   1.388  0.0152  0.6802 -0.0630
    2TTP    C4134082  -1.578   9.508   1.303  0.4899  0.1147  0.0548
    2TTP    C4234083  -1.728   9.484   1.339  0.2018  0.0029 -0.3499
    3TTP     S134084   0.470   9.661   1.833  0.3861 -0.1602  0.1900
    3TTP     S534085   0.525  10.087   1.816 -0.0654 -0.1123 -0.1089
    3TTP     C134086   0.645  10.018   1.934 -0.1827  0.1311  0.1569
    3TTP     C234087   0.635   9.882   1.946 -0.0502  0.1307  0.2649
    3TTP     C334088   0.533   9.828   1.863  0.1488 -0.0619  0.1415
    3TTP     C434089   0.350   9.730   1.716  0.5034 -0.4037 -0.0758
    3TTP    C1734090   0.360   9.866   1.703  0.3709 -0.4032 -0.1837
    3TTP    C1834091   0.463   9.920   1.786  0.1719 -0.2106 -0.0605
    3TTP    C3234092   0.711   9.794   2.048  0.4467  0.1386  0.3848
    3TTP    C3334093   0.644   9.737   2.171  0.8018 -0.1176 -0.0883
    3TTP    C3434094   0.549   9.830   2.253 -0.6573  0.1927  0.1311
    3TTP    C3534095   0.615   9.944   2.325 -0.0846  0.3881 -0.4215
    3TTP    C3634096   0.691   9.896   2.448 -0.3651  0.2432  0.1815
    3TTP    C3734097   0.815   9.977   2.494  0.8493  0.5988  0.1347
    3TTP    C3834098   0.773  10.120   2.535 -0.1131  0.2666 -0.5632
    3TTP    C3934099   0.899  10.182   2.603 -0.0385  0.9634  0.4181
    3TTP    C4034100   0.875  10.326   2.636 -0.0964  0.2641  0.0890
    3TTP    C4134101   0.980  10.381   2.730  0.0359  0.3304  0.0379
    3TTP    C4234102   0.949  10.522   2.775 -0.1923  0.1674  0.2170
    4BIM     F134103  -0.669  10.668   0.874  0.0658 -0.0340  0.2808
    4BIM     F234104  -0.927  10.584   0.849  0.0925 -0.0646  0.1052
    4BIM     O134105  -0.443  10.237   1.111 -0.0381 -0.0192  0.4072
    4BIM     N534106  -1.136  10.156   0.983  0.0563 -0.0979 -0.0572
    4BIM     N634107  -0.907   9.836   1.173 -0.0298 -0.0801  0.0770
    4BIM    C1934108  -0.608  10.004   1.171 -0.0492 -0.0430  0.2843
    4BIM    C2034109  -0.655  10.116   1.113 -0.0243 -0.0456  0.2594
    4BIM    C2134110  -0.564  10.231   1.085 -0.0200 -0.0327  0.3265
    4BIM    C2234111  -0.647  10.335   1.021  0.0093 -0.0394  0.2774
    4BIM    C2334112  -0.606  10.461   0.977  0.0231 -0.0319  0.3113
    4BIM    C2434113  -0.702  10.543   0.919  0.0510 -0.0407  0.2518
    4BIM    C2534114  -0.835  10.499   0.907  0.0647 -0.0564  0.1614
    4BIM    C2634115  -0.876  10.374   0.951  0.0510 -0.0640  0.1271
    4BIM    C2734116  -0.780  10.290   1.009  0.0229 -0.0553  0.1863
    4BIM    C2834117  -0.791  10.153   1.065  0.0029 -0.0597  0.1716
    4BIM    C2934118  -0.905  10.076   1.072  0.0081 -0.0741  0.0919
    4BIM    C3034119  -1.031  10.120   1.023  0.0346 -0.0872  0.0102
    4BIM    C3134120  -0.905   9.944   1.127 -0.0126 -0.0773  0.0842
    5BIM     F134121   0.649  10.796   2.213  0.1153 -0.0630 -0.1765
    5BIM     F234122   0.889  10.744   2.329  0.0279 -0.0824 -0.0038
    5BIM     O134123   0.537  10.314   1.991  0.1968 -0.0773 -0.1869
    5BIM     N534124   1.155  10.327   2.339 -0.0397 -0.1204  0.2371
    5BIM     N634125   1.019   9.961   2.142  0.0415 -0.1276  0.1943
    5BIM    C1934126   0.727  10.094   2.024  0.1422 -0.1008 -0.0255
    5BIM    C2034127   0.745  10.217   2.075  0.1251 -0.0965 -0.0297
    5BIM    C2134128   0.643  10.325   2.054  0.1553 -0.0843 -0.1151
    5BIM    C2234129   0.695  10.445   2.122  0.1261 -0.0823 -0.0963
    5BIM    C2334130   0.635  10.571   2.130  0.1388 -0.0724 -0.1550
    5BIM    C2434131   0.702  10.669   2.201  0.1051 -0.0726 -0.1220
    5BIM    C2534132   0.826  10.642   2.261  0.0601 -0.0825 -0.0331
    5BIM    C2634133   0.887  10.518   2.253  0.0471 -0.0926  0.0259
    5BIM    C2734134   0.820  10.417   2.182  0.0808 -0.0925 -0.0063
    5BIM    C2834135   0.856  10.275   2.155  0.0784 -0.1016  0.0382
    5BIM    C2934136   0.970  10.211   2.197  0.0402 -0.1126  0.1256
    5BIM    C3034137   1.071  10.275   2.275 -0.0036 -0.1168  0.1866
    5BIM    C3134138   0.996  10.074   2.167  0.0412 -0.1208  0.1628
    1BTD     S234139   6.564   2.346   3.599 -0.0342 -0.2306 -0.0180
    1BTD     N134140   6.518   2.176   3.561 -0.0366 -0.1944 -0.1786
    1BTD     N234141   6.472   2.417   3.462  0.0437 -0.1082 -0.0076
    1BTD     N334142   6.200   2.256   3.115  0.1985  0.2066 -0.2763
    1BTD     N434143   6.257   1.959   3.237  0.0993  0.1004 -0.4870
    1BTD     C534144   6.381   2.066   3.390  0.0356 -0.0392 -0.3371
    1BTD     C634145   6.440   2.181   3.454  0.0181 -0.0979 -0.2143
    1BTD     C734146   6.414   2.316   3.399  0.0629 -0.0497 -0.1186
    1BTD     C834147   6.330   2.329   3.282  0.1234  0.0550 -0.1504
    1BTD    C1534148   6.275   2.214   3.223  0.1386  0.1095 -0.2719
    1BTD    C1634149   6.300   2.084   3.277  0.0950  0.0629 -0.3640
    1BTD    C4334150   6.113   1.932   3.203 -0.8077  0.2569  0.7792
    1BTD    C4434151   6.059   1.813   3.122 -0.3244  0.5631  0.0872
    1BTD    C4534152   5.908   1.816   3.122  0.3538  0.1412  0.2696
    1BTD    C4634153   5.828   1.819   3.253 -0.1353  0.4164 -0.0515
    1BTD    C4734154   6.130   1.787   2.979  0.0169 -0.0796 -0.0320
    1BTD    C4834155   6.099   1.654   2.912  0.5169  0.0129 -0.4121
    1BTD    C4934156   6.214   1.627   2.822  0.2737  0.4079 -0.1383
    1BTD    C5034157   6.186   1.509   2.725  0.5020 -0.0838 -0.0142
    1BTD    C7534158   6.127   2.177   3.011 -0.3883  0.1467 -0.3756
    1BTD    C7634159   6.002   2.239   2.941  1.1233  0.4081 -0.1665
    1BTD    C7734160   5.894   2.291   3.046 -0.5661  0.1717  0.0183
    1BTD    C7834161   5.824   2.185   3.133 -0.3111 -0.1839  0.5097
    1BTD    C7934162   5.953   2.151   2.829 -0.2747  0.3694  0.2993
    1BTD    C8034163   5.850   2.218   2.733 -0.3635  0.1870 -0.0239
    1BTD    C8134164   5.773   2.126   2.644  0.9231  0.2247 -0.0694
    1BTD    C8234165   5.652   2.198   2.578 -0.6117 -0.5795  0.2638
    2TTP     S134166   6.483   1.819   3.524 -0.0492  0.0628 -0.0525
    2TTP     S534167   6.326   1.586   3.198 -0.1427 -0.1905  0.1730
    2TTP     C134168   6.427   1.477   3.304 -0.0135 -0.0818  0.1617
    2TTP     C234169   6.481   1.543   3.410  0.0232  0.0029  0.0914
    2TTP     C334170   6.445   1.681   3.413 -0.0498 -0.0151  0.0440
    2TTP     C434171   6.382   1.927   3.418 -0.1785 -0.0460 -0.0412
    2TTP    C1734172   6.328   1.862   3.312 -0.2150 -0.1305  0.0290
    2TTP    C1834173   6.363   1.724   3.309 -0.1421 -0.1126  0.0766
    2TTP    C3234174   6.561   1.490   3.522  0.0206  0.6679 -0.9322
    2TTP    C3334175   6.475   1.437   3.643  0.0334 -0.4180 -0.2132
    2TTP    C3434176   6.404   1.533   3.739  0.2313  0.2527 -0.4064
    2TTP    C3534177   6.282   1.604   3.685 -0.0182  0.1868 -0.3187
    2TTP    C3634178   6.156   1.529   3.704 -0.2780 -0.4606  0.1528
    2TTP    C3734179   6.038   1.612   3.640 -0.2963 -0.8773  0.1357
    2TTP    C3834180   6.026   1.596   3.491 -0.0664 -0.1133 -0.2907
    2TTP    C3934181   6.009   1.449   3.454  0.1270 -0.4967  0.6316
    2TTP    C4034182   6.016   1.427   3.307  0.0015  0.3175  0.1324
    2TTP    C4134183   6.019   1.280   3.258 -0.0995  0.2581  0.2421
    2TTP    C4234184   6.043   1.276   3.109 -0.1032  0.2147  0.3955
    3TTP     S134185   6.358   2.615   3.176 -0.1180  0.1675  0.0054
    3TTP     S534186   6.140   2.493   2.827  0.2977 -0.3290 -0.0836
    3TTP     C134187   6.199   2.664   2.802 -0.0676 -0.1988 -0.0642
    3TTP     C234188   6.269   2.711   2.908 -0.2174 -0.0378 -0.0356
    3TTP     C334189   6.280   2.615   3.013 -0.0495 -0.0116 -0.0280
    3TTP     C434190   6.300   2.445   3.201  0.2471  0.0373 -0.0139
    3TTP    C1734191   6.229   2.397   3.095  0.3970 -0.1238 -0.0425
    3TTP    C1834192   6.218   2.493   2.990  0.2289 -0.1500 -0.0502
    3TTP    C3234193   6.368   2.826   2.922 -0.2313  0.4436 -0.0570
    3TTP    C3334194   6.348   2.938   3.017  0.5265  0.3918  0.4318
    3TTP    C3434195   6.470   3.009   3.061 -0.2140 -0.7123  0.0027
    3TTP    C3534196   6.455   3.151   3.118 -0.5371 -0.3323 -0.0885
    3TTP    C3634197   6.584   3.198   3.191  0.1890  0.2088  0.2868
    3TTP    C3734198   6.544   3.330   3.249  0.0173 -0.0812 -0.2860
    3TTP    C3834199   6.650   3.392   3.343 -0.2559  0.2261 -0.2425
    3TTP    C3934200   6.702   3.319   3.465 -0.0505  0.1709 -0.7703
    3TTP    C4034201   6.606   3.274   3.577  0.0132 -0.0732 -0.0561
    3TTP    C4134202   6.502   3.372   3.633 -0.5097 -0.3517 -0.2825
    3TTP    C4234203   6.410   3.325   3.747 -0.6660 -0.1318  0.4413
    4BIM     F134204   6.455   1.048   2.601 -0.4998 -0.1928 -0.0777
    4BIM     F234205   6.520   0.828   2.746  0.1256 -0.0596 -0.1528
    4BIM     O134206   6.416   1.421   2.993 -0.4382 -0.1904 -0.0739
    4BIM     N534207   6.587   0.776   3.234  1.0686  0.1336 -0.2580
    4BIM     N634208   6.544   1.111   3.510  0.9907  0.1086 -0.2397
    4BIM    C1934209   6.465   1.342   3.270  0.1812 -0.0623 -0.1443
    4BIM    C2034210   6.472   1.257   3.166  0.1413 -0.0681 -0.1422
    4BIM    C2134211   6.446   1.305   3.026 -0.1849 -0.1357 -0.1050
    4BIM    C2234212   6.462   1.188   2.938 -0.1428 -0.1240 -0.1130
    4BIM    C2334213   6.447   1.183   2.800 -0.3774 -0.1715 -0.0873
    4BIM    C2434214   6.468   1.060   2.738 -0.2802 -0.1484 -0.1015
    4BIM    C2534215   6.501   0.947   2.813  0.0421 -0.0798 -0.1402
    4BIM    C2634216   6.516   0.951   2.951  0.2774 -0.0321 -0.1659
    4BIM    C2734217   6.496   1.074   3.015  0.1836 -0.0545 -0.1521
    4BIM    C2834218   6.504   1.112   3.158  0.3710 -0.0174 -0.1717
    4BIM    C2934219   6.534   1.029   3.264  0.6955  0.0508 -0.2097
    4BIM    C3034220   6.563   0.890   3.247  0.8994  0.0961 -0.2362
    4BIM    C3134221   6.539   1.074   3.399  0.8560  0.0822 -0.2260
    5BIM     F134222   5.682   2.701   2.156 -0.0021  0.2555 -0.1222
    5BIM     F234223   5.777   2.951   2.104 -0.0060  0.2937  0.0537
    5BIM     O134224   5.973   2.570   2.594 -0.1658  0.0437 -0.0765
    5BIM     N534225   6.121   3.217   2.341 -0.1281  0.1978  0.3393
    5BIM     N634226   6.329   3.064   2.694 -0.2552  0.0246  0.3396
    5BIM    C1934227   6.167   2.762   2.699 -0.2276  0.0051  0.1078
    5BIM    C2034228   6.090   2.785   2.591 -0.1862  0.0568  0.0895
    5BIM    C2134229   5.993   2.682   2.543 -0.1565  0.0736 -0.0071
    5BIM    C2234230   5.926   2.739   2.425 -0.1143  0.1321 -0.0027
    5BIM    C2334231   5.828   2.680   2.346 -0.0764  0.1658 -0.0750
    5BIM    C2434232   5.779   2.754   2.238 -0.0405  0.2199 -0.0540
    5BIM    C2534233   5.829   2.882   2.212 -0.0425  0.2396  0.0368
    5BIM    C2634234   5.927   2.942   2.290 -0.0802  0.2063  0.1092
    5BIM    C2734235   5.977   2.869   2.399 -0.1171  0.1513  0.0893
    5BIM    C2834236   6.079   2.902   2.501 -0.1612  0.1057  0.1495
    5BIM    C2934237   6.151   3.020   2.509 -0.1762  0.1085  0.2431
    5BIM    C3034238   6.134   3.128   2.417 -0.1496  0.1576  0.2957
    5BIM    C3134239   6.249   3.043   2.611 -0.2196  0.0623  0.2956
    1BTD     S234240   4.677   5.878   5.096  0.0392 -0.0148 -0.2779
    1BTD     N134241   4.545   5.756   5.108  0.0174  0.0007 -0.3567
    1BTD     N234242   4.796   5.779   5.187 -0.0470 -0.0015 -0.1496
    1BTD     N334243   4.802   5.358   5.394 -0.2621  0.0536 -0.0306
    1BTD     N434244   4.493   5.329   5.297 -0.1829  0.0565 -0.2859
    1BTD     C534245   4.522   5.534   5.208 -0.0882  0.0300 -0.3165
    1BTD     C634246   4.595   5.653   5.176 -0.0496  0.0144 -0.2871
    1BTD     C734247   4.735   5.666   5.220 -0.0856  0.0130 -0.1712
    1BTD     C834248   4.796   5.559   5.294 -0.1584  0.0272 -0.0906
    1BTD    C1534249   4.720   5.444   5.323 -0.1939  0.0422 -0.1234
    1BTD    C1634250   4.585   5.431   5.281 -0.1593  0.0435 -0.2350
    1BTD    C4334251   4.538   5.190   5.285  0.2643  0.0218  0.1584
    1BTD    C4434252   4.448   5.068   5.322 -0.1150  0.0188 -0.3258
    1BTD    C4534253   4.516   4.943   5.272  0.0558  0.5398  0.7346
    1BTD    C4634254   4.665   4.905   5.318 -0.1235 -0.2186 -0.5941
    1BTD    C4734255   4.424   5.070   5.480  0.6756 -0.7940  0.6145
    1BTD    C4834256   4.329   4.971   5.548 -0.1661  0.3188 -0.4936
    1BTD    C4934257   4.306   4.997   5.698  0.3401  0.1241  0.6394
    1BTD    C5034258   4.185   4.927   5.762 -0.0695 -0.3169  0.0518
    1BTD    C7534259   4.751   5.264   5.500 -0.1720 -0.2317  0.4538
    1BTD    C7634260   4.837   5.180   5.594  1.1358 -0.4291  0.0197
    1BTD    C7734261   4.909   5.270   5.699  0.2221  0.7472  0.4074
    1BTD    C7834262   5.029   5.221   5.788  0.3736  0.7004  0.0305
    1BTD    C7934263   4.763   5.046   5.647  0.3049  0.0308 -0.1032
    1BTD    C8034264   4.858   4.935   5.699  0.1299  0.5001 -0.0721
    1BTD    C8134265   4.959   4.892   5.590  0.5502 -0.4532  0.3935
    1BTD    C8234266   5.049   4.779   5.631  0.0666 -0.0486 -0.0483
    2TTP     S134267   4.228   5.580   5.156  0.1270  0.2082 -0.0206
    2TTP     S534268   4.149   5.196   5.333 -0.0042  0.1811 -0.1366
    2TTP     C134269   3.991   5.281   5.306  0.0384  0.3449  0.1132
    2TTP     C234270   4.006   5.404   5.249  0.0814  0.3628  0.1638
    2TTP     C334271   4.143   5.437   5.226  0.0823  0.2480  0.0069
    2TTP     C434272   4.386   5.496   5.184  0.0844  0.0443 -0.2705
    2TTP    C1734273   4.372   5.372   5.240  0.0413  0.0265 -0.3210
    2TTP    C1834274   4.234   5.340   5.263  0.0405  0.1413 -0.1644
    2TTP    C3234275   3.898   5.501   5.212 -0.1064  0.5270 -0.5860
    2TTP    C3334276   3.875   5.519   5.059  0.4298  0.1270 -0.1470
    2TTP    C3434277   3.765   5.612   5.017 -0.1221  0.5823  0.6891
    2TTP    C3534278   3.785   5.756   5.046  0.0334 -0.9419  0.4101
    2TTP    C3634279   3.698   5.852   4.965 -1.1792  0.2684 -0.0025
    2TTP    C3734280   3.730   6.000   4.970 -0.3454 -0.7227  0.2649
    2TTP    C3834281   3.621   6.092   4.907  0.1942  0.5135  0.1824
    2TTP    C3934282   3.646   6.240   4.913  0.0088  0.2591 -0.2919
    2TTP    C4034283   3.781   6.284   4.864 -0.0781  0.1756 -0.2285
    2TTP    C4134284   3.803   6.433   4.859 -0.0734 -0.2972 -0.4385
    2TTP    C4234285   3.952   6.447   4.834  0.3388 -0.3387  0.0444
    3TTP     S134286   5.085   5.621   5.326 -0.1629 -0.0054 -0.1546
    3TTP     S534287   5.147   5.210   5.434 -0.3273  0.0368  0.1016
    3TTP     C134288   5.309   5.287   5.404 -0.3085 -0.1061 -0.1661
    3TTP     C234289   5.299   5.419   5.368 -0.2567 -0.1274 -0.2608
    3TTP     C334290   5.164   5.463   5.364 -0.2300 -0.0318 -0.1255
    3TTP     C434291   4.923   5.544   5.356 -0.1817  0.1374  0.1131
    3TTP    C1734292   4.933   5.413   5.392 -0.2334  0.1588  0.2079
    3TTP    C1834293   5.068   5.368   5.396 -0.2602  0.0633  0.0727
    3TTP    C3234294   5.405   5.512   5.317 -0.2667 -0.2672 -0.5148
    3TTP    C3334295   5.453   5.614   5.422  0.4109  0.4216 -0.1286
    3TTP    C3434296   5.525   5.735   5.370  0.5671 -0.6138  0.0197
    3TTP    C3534297   5.440   5.829   5.274 -0.6107 -0.0394 -0.0950
    3TTP    C3634298   5.540   5.924   5.208 -0.1779 -0.1125  0.0396
    3TTP    C3734299   5.482   6.053   5.138 -0.9838 -0.1258 -0.7520
    3TTP    C3834300   5.595   6.163   5.125 -0.1909  0.2722  0.3920
    3TTP    C3934301   5.546   6.293   5.067 -0.3042  0.2940  0.2459
    3TTP    C4034302   5.656   6.393   5.043 -0.5453 -0.4321  0.1428
    3TTP    C4134303   5.614   6.511   4.952  0.0995 -0.1082  0.2132
    3TTP    C4234304   5.711   6.630   4.919 -0.0496  0.7911  0.2646
    4BIM     F134305   3.684   4.678   5.791 -0.2680 -0.1653 -0.2462
    4BIM     F234306   3.434   4.753   5.712 -0.2239  0.1365 -0.1047
    4BIM     O134307   3.987   5.038   5.523 -0.0122 -0.2570 -0.0805
    4BIM     N534308   3.291   5.115   5.408  0.0218  0.5054  0.2166
    4BIM     N634309   3.578   5.381   5.214  0.2127  0.3730  0.3177
    4BIM    C1934310   3.856   5.237   5.352  0.1208 -0.0009  0.1136
    4BIM    C2034311   3.790   5.143   5.423  0.0547  0.0103  0.0663
    4BIM    C2134312   3.864   5.044   5.508 -0.0111 -0.1266 -0.0331
    4BIM    C2234313   3.762   4.958   5.571 -0.0734 -0.0747 -0.0632
    4BIM    C2334314   3.783   4.852   5.658 -0.1459 -0.1611 -0.1498
    4BIM    C2434315   3.671   4.784   5.704 -0.1953 -0.0869 -0.1622
    4BIM    C2534316   3.542   4.823   5.664 -0.1726  0.0685 -0.0890
    4BIM    C2634317   3.521   4.929   5.576 -0.1004  0.1553 -0.0023
    4BIM    C2734318   3.633   4.998   5.529 -0.0495  0.0824  0.0112
    4BIM    C2834319   3.645   5.113   5.436  0.0302  0.1407  0.0936
    4BIM    C2934320   3.541   5.180   5.374  0.0731  0.2878  0.1792
    4BIM    C3034321   3.404   5.144   5.393  0.0446  0.4070  0.1994
    4BIM    C3134322   3.562   5.290   5.287  0.1497  0.3338  0.2549
    5BIM     F134323   5.558   4.526   5.573 -0.0803 -0.0604 -0.0298
    5BIM     F234324   5.815   4.616   5.570 -0.0416 -0.1700  0.0153
    5BIM     O134325   5.290   4.982   5.457  0.1309  0.0657 -0.0240
    5BIM     N534326   5.993   5.069   5.481  0.1649 -0.2376  0.0844
    5BIM     N634327   5.732   5.407   5.391  0.3221 -0.1167  0.0798
    5BIM    C1934328   5.440   5.229   5.412  0.2430  0.0060  0.0210
    5BIM    C2034329   5.497   5.111   5.442  0.1884 -0.0216  0.0179
    5BIM    C2134330   5.413   4.988   5.463  0.1327  0.0123 -0.0058
    5BIM    C2234331   5.507   4.878   5.493  0.0813 -0.0306 -0.0032
    5BIM    C2334332   5.476   4.745   5.520  0.0207 -0.0201 -0.0203
    5BIM    C2434333   5.582   4.659   5.546 -0.0197 -0.0678 -0.0136
    5BIM    C2534334   5.714   4.705   5.544  0.0006 -0.1242  0.0097
    5BIM    C2634335   5.746   4.838   5.517  0.0610 -0.1351  0.0269
    5BIM    C2734336   5.640   4.927   5.491  0.1025 -0.0874  0.0205
    5BIM    C2834337   5.639   5.071   5.459  0.1692 -0.0838  0.0342
    5BIM    C2934338   5.749   5.153   5.448  0.2056 -0.1301  0.0577
    5BIM    C3034339   5.883   5.107   5.466  0.1831 -0.1889  0.0724
    5BIM    C3134340   5.739   5.292   5.417  0.2695 -0.1224  0.0696
    1BTD     S234341   0.677   2.559   5.840  0.1169 -0.0030 -0.5449
    1BTD     N134342   0.575   2.448   5.742  0.2590 -0.0359 -0.6557
    1BTD     N234343   0.795   2.432   5.888 -0.0823 -0.0392 -0.1354
    1BTD     N334344   0.852   1.973   5.806 -0.2315 -0.1720  0.4989
    1BTD     N434345   0.581   1.993   5.627  0.1891 -0.1679 -0.1422
    1BTD     C534346   0.582   2.210   5.684  0.2175 -0.1049 -0.3799
    1BTD     C634347   0.632   2.328   5.749  0.1561 -0.0703 -0.3953
    1BTD     C734348   0.755   2.319   5.831 -0.0350 -0.0721 -0.1041
    1BTD     C834349   0.822   2.192   5.843 -0.1551 -0.1085  0.1881
    1BTD    C1534350   0.769   2.079   5.777 -0.0890 -0.1416  0.1918
    1BTD    C1634351   0.650   2.088   5.699  0.0951 -0.1398 -0.0887
    1BTD    C4334352   0.571   1.851   5.669  0.1971 -0.8060  0.4407
    1BTD    C4434353   0.553   1.737   5.567  0.1108  0.3211 -0.1268
    1BTD    C4534354   0.512   1.614   5.652 -0.0282  0.4437  0.0229
    1BTD    C4634355   0.449   1.489   5.582 -0.7394  1.0007 -0.1511
    1BTD    C4734356   0.661   1.723   5.463 -0.1097 -0.1741 -0.1620
    1BTD    C4834357   0.608   1.658   5.331 -0.1841 -0.2456  0.6975
    1BTD    C4934358   0.716   1.667   5.226 -0.9572  0.5105  0.1363
    1BTD    C5034359   0.678   1.596   5.092  0.7407  0.3427 -0.1314
    1BTD    C7534360   0.889   1.865   5.704  0.0789 -0.0381 -0.0559
    1BTD    C7634361   0.941   1.731   5.758  0.0018  0.3629 -0.9668
    1BTD    C7734362   0.971   1.637   5.644 -0.2514 -0.1233 -0.0242
    1BTD    C7834363   1.099   1.666   5.575 -0.6684  0.1140 -0.4870
    1BTD    C7934364   0.834   1.678   5.861 -0.5644 -0.1026 -0.4638
    1BTD    C8034365   0.861   1.539   5.922 -0.1703  0.9812  0.8527
    1BTD    C8134366   0.763   1.485   6.029 -0.2204  0.4314  0.8657
    1BTD    C8234367   0.809   1.347   6.073 -0.1536  0.1218 -0.4303
    2TTP     S134368   0.323   2.277   5.541  0.0388  0.1222 -0.0695
    2TTP     S534369   0.326   1.882   5.372 -0.0071  0.0310  0.1421
    2TTP     C134370   0.188   1.975   5.298  0.0210  0.0167  0.0712
    2TTP     C234371   0.179   2.103   5.346  0.0368  0.0440  0.0018
    2TTP     C334372   0.281   2.131   5.443  0.0273  0.0773  0.0019
    2TTP     C434373   0.461   2.183   5.615  0.0107  0.1364  0.0015
    2TTP    C1734374   0.470   2.056   5.567 -0.0051  0.1091  0.0708
    2TTP    C1834375   0.368   2.027   5.470  0.0044  0.0759  0.0707
    2TTP    C3234376   0.086   2.214   5.302  0.1692 -0.4388 -0.4850
    2TTP    C3334377  -0.047   2.218   5.381 -0.1531 -0.5175  0.3290
    2TTP    C3434378  -0.130   2.348   5.355  0.2726  0.6791 -0.2013
    2TTP    C3534379  -0.261   2.362   5.438  0.1231  0.3454 -0.4745
    2TTP    C3634380  -0.328   2.493   5.409 -0.4333 -0.3338  0.5640
    2TTP    C3734381  -0.450   2.521   5.492 -0.4870 -0.3303  0.8550
    2TTP    C3834382  -0.520   2.649   5.449 -0.3743  0.0926  0.0606
    2TTP    C3934383  -0.648   2.673   5.524 -0.1885 -0.5102 -0.1249
    2TTP    C4034384  -0.710   2.806   5.479 -0.0167  0.2539  0.3332
    2TTP    C4134385  -0.859   2.828   5.505 -0.0791 -1.0765 -0.0395
    2TTP    C4234386  -0.955   2.717   5.456  0.3005  0.1633 -0.3460
    3TTP     S134387   1.049   2.225   6.026  0.1656 -0.0922 -0.0154
    3TTP     S534388   1.126   1.802   6.016 -0.2542 -0.1825  0.5099
    3TTP     C134389   1.235   1.878   6.140 -0.2109 -0.1444  0.4482
    3TTP     C234390   1.218   2.013   6.150 -0.0787 -0.1143  0.2820
    3TTP     C334391   1.118   2.062   6.061 -0.0069 -0.1203  0.1980
    3TTP     C434392   0.939   2.149   5.902  0.1223 -0.1303  0.0463
    3TTP    C1734393   0.956   2.014   5.892 -0.0100 -0.1604  0.2122
    3TTP    C1834394   1.057   1.966   5.982 -0.0818 -0.1545  0.2966
    3TTP    C3234395   1.296   2.103   6.239  0.5147 -0.6474 -0.0331
    3TTP    C3334396   1.404   2.194   6.171  0.1341  0.2062  0.5114
    3TTP    C3434397   1.499   2.262   6.261 -0.1658 -0.1460 -0.3394
    3TTP    C3534398   1.594   2.356   6.188 -0.2621 -0.2801 -0.4566
    3TTP    C3634399   1.693   2.416   6.287 -0.4714 -0.1968 -0.6853
    3TTP    C3734400   1.772   2.536   6.243  0.0077  0.1183 -1.0369
    3TTP    C3834401   1.698   2.662   6.184  0.3583  0.0610 -0.3080
    3TTP    C3934402   1.790   2.784   6.149 -0.8805 -0.6833  0.3084
    3TTP    C4034403   1.710   2.916   6.123  0.0340 -0.5510 -0.2537
    3TTP    C4134404   1.800   3.020   6.047  0.0774  0.5040 -0.7006
    3TTP    C4234405   1.728   3.151   6.013 -0.3596 -0.3779 -0.0462
    4BIM     F134406   0.207   1.383   4.736  0.2389  0.0431  0.0248
    4BIM     F234407  -0.060   1.418   4.699  0.2294 -0.0821 -0.0266
    4BIM     O134408   0.310   1.766   5.105 -0.0439 -0.0188  0.1695
    4BIM     N534409  -0.371   1.743   4.907  0.0138 -0.3061  0.0024
    4BIM     N634410  -0.236   2.035   5.202 -0.2053 -0.3292  0.1260
    4BIM    C1934411   0.092   1.936   5.200 -0.1536 -0.1603  0.1718
    4BIM    C2034412   0.076   1.838   5.108 -0.0821 -0.1399  0.1373
    4BIM    C2134413   0.194   1.755   5.065 -0.0289 -0.0662  0.1388
    4BIM    C2234414   0.142   1.659   4.966  0.0436 -0.0618  0.0963
    4BIM    C2334415   0.213   1.561   4.897  0.1099 -0.0038  0.0824
    4BIM    C2434416   0.142   1.481   4.808  0.1715 -0.0121  0.0408
    4BIM    C2534417   0.005   1.500   4.789  0.1664 -0.0767  0.0144
    4BIM    C2634418  -0.067   1.598   4.857  0.1004 -0.1347  0.0281
    4BIM    C2734419   0.003   1.679   4.947  0.0374 -0.1272  0.0700
    4BIM    C2834420  -0.043   1.790   5.034 -0.0401 -0.1779  0.0943
    4BIM    C2934421  -0.171   1.839   5.044 -0.0672 -0.2467  0.0795
    4BIM    C3034422  -0.280   1.786   4.969 -0.0226 -0.2792  0.0372
    4BIM    C3134423  -0.206   1.946   5.131 -0.1431 -0.2917  0.1053
    5BIM     F134424   1.346   1.098   6.371  0.1765 -0.0812  0.1708
    5BIM     F234425   1.610   1.154   6.403  0.1020  0.1254  0.4289
    5BIM     O134426   1.153   1.586   6.238 -0.0305 -0.2887 -0.2954
    5BIM     N534427   1.853   1.583   6.355 -0.1526  0.2745  0.4673
    5BIM     N634428   1.649   1.953   6.245 -0.2993  0.0708  0.0510
    5BIM    C1934429   1.337   1.813   6.222 -0.1751 -0.1650 -0.2147
    5BIM    C2034430   1.375   1.688   6.254 -0.1202 -0.1209 -0.1074
    5BIM    C2134431   1.275   1.577   6.260 -0.0473 -0.1898 -0.1580
    5BIM    C2234432   1.349   1.455   6.298 -0.0005 -0.1168 -0.0130
    5BIM    C2334433   1.299   1.327   6.316  0.0719 -0.1436 -0.0005
    5BIM    C2434434   1.389   1.227   6.351  0.1050 -0.0604  0.1498
    5BIM    C2534435   1.525   1.257   6.368  0.0665  0.0459  0.2825
    5BIM    C2634436   1.576   1.384   6.350 -0.0057  0.0733  0.2706
    5BIM    C2734437   1.486   1.486   6.314 -0.0401 -0.0098  0.1197
    5BIM    C2834438   1.508   1.631   6.288 -0.1152 -0.0082  0.0671
    5BIM    C2934439   1.628   1.698   6.294 -0.1698  0.0809  0.1616
    5BIM    C3034440   1.751   1.634   6.328 -0.1602  0.1871  0.3294
    5BIM    C3134441   1.639   1.838   6.267 -0.2407  0.0749  0.1003
    1BTD     S234442   7.539   1.904   6.219 -0.0422 -0.1088 -0.0673
    1BTD     N134443   7.595   1.735   6.246 -0.1224 -0.0889  0.2348
    1BTD     N234444   7.387   1.856   6.137  0.1096 -0.1758 -0.3107
    1BTD     N334445   7.177   1.453   6.017  0.2742 -0.2765 -0.2608
    1BTD     N434446   7.434   1.304   6.151 -0.0114 -0.1693  0.4113
    1BTD     C534447   7.508   1.512   6.195 -0.0610 -0.1322  0.3188
    1BTD     C634448   7.502   1.656   6.194 -0.0364 -0.1310  0.1435
    1BTD     C734449   7.385   1.723   6.133  0.0935 -0.1797 -0.1619
    1BTD     C834450   7.280   1.644   6.076  0.1922 -0.2271 -0.2766
    1BTD    C1534451   7.290   1.503   6.078  0.1634 -0.2263 -0.0969
    1BTD    C1634452   7.403   1.438   6.137  0.0385 -0.1794  0.1972
    1BTD    C4334453   7.345   1.196   6.151  0.7488  0.6834 -0.7731
    1BTD    C4434454   7.292   1.144   6.288 -0.4788 -0.0690 -0.3066
    1BTD    C4534455   7.234   1.257   6.369 -0.2852  0.3843 -0.3060
    1BTD    C4634456   7.099   1.304   6.329 -0.3632  0.0905  0.0520
    1BTD    C4734457   7.222   1.007   6.298 -0.2962 -0.2974 -0.3841
    1BTD    C4834458   7.297   0.893   6.225  0.4348  0.2913  0.0590
    1BTD    C4934459   7.227   0.759   6.246 -0.3011  0.0024  0.3947
    1BTD    C5034460   7.306   0.648   6.189  0.2453  0.0554 -0.0665
    1BTD    C7534461   7.171   1.331   5.936 -0.2704  0.6403  0.8790
    1BTD    C7634462   7.046   1.245   5.915 -0.1411 -0.6411  0.2213
    1BTD    C7734463   7.072   1.158   5.788  0.3187 -0.2118  0.2580
    1BTD    C7834464   7.165   1.037   5.805 -0.4885 -0.9804  0.4194
    1BTD    C7934465   6.985   1.181   6.036 -0.3755  0.2194  0.4711
    1BTD    C8034466   6.876   1.070   6.008 -1.3434 -0.4105  0.3847
    1BTD    C8134467   6.751   1.108   5.933 -0.3471  0.2160  0.3353
    1BTD    C8234468   6.648   0.991   5.921 -0.2344 -0.4384  0.1701
    2TTP     S134469   7.762   1.415   6.334 -0.0804 -0.2831  0.4091
    2TTP     S534470   7.683   1.023   6.177 -0.1687 -0.0412 -0.1562
    2TTP     C134471   7.847   1.022   6.255 -0.2705 -0.2548  0.0582
    2TTP     C234472   7.882   1.143   6.308 -0.2493 -0.3420  0.2456
    2TTP     C334473   7.779   1.241   6.289 -0.1518 -0.2434  0.2264
    2TTP     C434474   7.598   1.416   6.256  0.0213 -0.0697  0.1947
    2TTP    C1734475   7.564   1.295   6.203  0.0002  0.0176  0.0075
    2TTP    C1834476   7.666   1.197   6.222 -0.0973 -0.0810  0.0266
    2TTP    C3234477   8.014   1.169   6.374 -0.4387 -0.0055  0.1258
    2TTP    C3334478   8.024   1.255   6.506 -0.2425  0.6947  0.7032
    2TTP    C3434479   7.950   1.177   6.611 -0.4355  0.7568  0.0364
    2TTP    C3534480   7.923   1.258   6.740 -0.2601  0.3768  0.4142
    2TTP    C3634481   7.846   1.391   6.742 -0.0076 -0.4696  0.1036
    2TTP    C3734482   7.831   1.436   6.890 -0.4957  0.0880  0.3804
    2TTP    C3834483   7.775   1.574   6.883  0.0034  0.0221 -0.2375
    2TTP    C3934484   7.842   1.675   6.973 -0.4435  0.4324  0.1331
    2TTP    C4034485   7.758   1.797   7.011 -0.1388  0.1261 -0.6029
    2TTP    C4134486   7.812   1.932   7.060  0.4589  0.5056 -0.3630
    2TTP    C4234487   7.870   1.940   7.199 -0.5121  0.2491 -0.3156
    3TTP     S134488   7.058   1.825   5.987 -0.1380  0.0327 -0.3368
    3TTP     S534489   6.824   1.479   5.886 -0.1476 -0.0566 -0.0111
    3TTP     C134490   6.723   1.627   5.856 -0.2190 -0.0915  0.0561
    3TTP     C234491   6.789   1.743   5.886 -0.2203 -0.0660 -0.0404
    3TTP     C334492   6.922   1.719   5.933 -0.1649 -0.0180 -0.1712
    3TTP     C434493   7.159   1.677   6.016 -0.0665  0.0676 -0.4042
    3TTP    C1734494   7.092   1.561   5.987 -0.0652  0.0421 -0.3075
    3TTP    C1834495   6.960   1.585   5.940 -0.1208 -0.0059 -0.1769
    3TTP    C3234496   6.752   1.887   5.876 -0.4795 -0.7112  0.1207
    3TTP    C3334497   6.795   1.962   5.751 -0.6542 -0.2742  0.3361
    3TTP    C3434498   6.717   2.091   5.731  0.2386  0.0400  0.3331
    3TTP    C3534499   6.751   2.183   5.616 -0.5236  0.0991  0.5459
    3TTP    C3634500   6.649   2.293   5.607 -0.2671 -0.1465 -0.1501
    3TTP    C3734501   6.549   2.255   5.501  0.4668 -0.5244 -0.6697
    3TTP    C3834502   6.461   2.369   5.457 -0.4473  0.2019 -0.1402
    3TTP    C3934503   6.374   2.348   5.332  0.2461  0.4701 -0.3659
    3TTP    C4034504   6.293   2.476   5.303 -0.1272 -0.2072  0.1034
    3TTP    C4134505   6.364   2.579   5.218  0.2575 -0.5692  0.2561
    3TTP    C4234506   6.290   2.711   5.203 -0.4039 -0.0598 -0.0559
    4BIM     F134507   7.756   0.214   6.133  0.2432 -0.1718  0.2196
    4BIM     F234508   8.026   0.196   6.104  0.2182  0.0688 -0.1843
    4BIM     O134509   7.701   0.740   6.251 -0.0427 -0.2348  0.3685
    4BIM     N534510   8.375   0.544   6.147 -0.0219  0.3700 -0.6591
    4BIM     N634511   8.277   0.959   6.245 -0.2403  0.2722 -0.4613
    4BIM    C1934512   7.939   0.909   6.266 -0.1685 -0.0273  0.0354
    4BIM    C2034513   7.942   0.778   6.237 -0.0955 -0.0208  0.0137
    4BIM    C2134514   7.815   0.697   6.232 -0.0340 -0.1315  0.1923
    4BIM    C2234515   7.855   0.559   6.198  0.0379 -0.0929  0.1162
    4BIM    C2334516   7.772   0.449   6.182  0.1104 -0.1638  0.2257
    4BIM    C2434517   7.832   0.328   6.150  0.1700 -0.1070  0.1206
    4BIM    C2534518   7.971   0.319   6.136  0.1568  0.0170 -0.0875
    4BIM    C2634519   8.055   0.428   6.152  0.0849  0.0883 -0.1979
    4BIM    C2734520   7.995   0.552   6.184  0.0236  0.0324 -0.0941
    4BIM    C2834521   8.055   0.686   6.207 -0.0589  0.0816 -0.1652
    4BIM    C2934522   8.188   0.718   6.201 -0.0944  0.1996 -0.3598
    4BIM    C3034523   8.290   0.622   6.171 -0.0544  0.2928 -0.5237
    4BIM    C3134524   8.236   0.850   6.225 -0.1745  0.2388 -0.4146
    5BIM     F134525   6.106   1.103   5.977 -0.1293  0.1018  0.2208
    5BIM     F234526   5.943   1.270   5.837 -0.0027 -0.1029 -0.1721
    5BIM     O134527   6.572   1.377   5.961 -0.1498  0.1455  0.3655
    5BIM     N534528   6.042   1.705   5.623  0.1645 -0.3662 -0.6340
    5BIM     N634529   6.439   1.886   5.639  0.1229 -0.2908 -0.4418
    5BIM    C1934530   6.583   1.634   5.821 -0.0362 -0.0347  0.0414
    5BIM    C2034531   6.472   1.558   5.830 -0.0360 -0.0376  0.0204
    5BIM    C2134532   6.474   1.427   5.904 -0.0963  0.0583  0.1940
    5BIM    C2234533   6.338   1.372   5.895 -0.0793  0.0279  0.1200
    5BIM    C2334534   6.292   1.252   5.949 -0.1196  0.0905  0.2266
    5BIM    C2434535   6.158   1.220   5.927 -0.0924  0.0445  0.1244
    5BIM    C2534536   6.075   1.306   5.855 -0.0272 -0.0611 -0.0781
    5BIM    C2634537   6.120   1.426   5.802  0.0132 -0.1240 -0.1853
    5BIM    C2734538   6.255   1.460   5.822 -0.0134 -0.0787 -0.0845
    5BIM    C2834539   6.334   1.578   5.779  0.0159 -0.1232 -0.1535
    5BIM    C2934540   6.288   1.685   5.706  0.0787 -0.2244 -0.3431
    5BIM    C3034541   6.153   1.696   5.661  0.1258 -0.3020 -0.5023
    5BIM    C3134542   6.371   1.795   5.669  0.1028 -0.2603 -0.3964
    1BTD     S234543   4.278   9.244   3.877  0.0719  0.2390 -0.2197
    1BTD     N134544   4.123   9.227   3.786  0.0745  0.1972 -0.2162
    1BTD     N234545   4.277   9.424   3.873 -0.0898  0.2429 -0.0283
    1BTD     N334546   3.996   9.759   3.702 -0.4146  0.1748  0.3679
    1BTD     N434547   3.807   9.516   3.595 -0.2121  0.1185  0.1363
    1BTD     C534548   3.960   9.381   3.688 -0.0776  0.1571 -0.0294
    1BTD     C634549   4.081   9.349   3.759 -0.0392  0.1888 -0.0798
    1BTD     C734550   4.167   9.460   3.808 -0.1315  0.2141  0.0255
    1BTD     C834551   4.128   9.596   3.782 -0.2569  0.2067  0.1757
    1BTD    C1534552   4.009   9.622   3.712 -0.2902  0.1754  0.2200
    1BTD    C1634553   3.926   9.515   3.665 -0.2015  0.1506  0.1187
    1BTD    C4334554   3.706   9.620   3.580 -0.4341  0.3482  0.1961
    1BTD    C4434555   3.606   9.639   3.694  0.7957 -0.3727  0.0591
    1BTD    C4534556   3.664   9.692   3.824  0.1114  0.6818 -0.1230
    1BTD    C4634557   3.572   9.704   3.950 -0.4113 -0.0728  0.0177
    1BTD    C4734558   3.474   9.717   3.644  0.5507 -0.0109 -0.3753
    1BTD    C4834559   3.414   9.661   3.508  0.3478 -0.3238 -0.1262
    1BTD    C4934560   3.290   9.748   3.458  0.2613 -0.5420 -0.7381
    1BTD    C5034561   3.236   9.711   3.322 -0.0195  0.6275  0.3940
    1BTD    C7534562   3.941   9.833   3.581 -0.0666 -0.7270 -0.4246
    1BTD    C7634563   3.894   9.975   3.568  0.5102  0.0504 -0.4586
    1BTD    C7734564   3.857  10.005   3.423 -0.1865  0.2312 -0.5108
    1BTD    C7834565   3.732   9.938   3.362  0.3024 -0.1357 -0.1916
    1BTD    C7934566   3.790  10.001   3.680  0.5520 -0.2739 -0.0301
    1BTD    C8034567   3.715  10.132   3.682 -0.5961  0.0327  0.4018
    1BTD    C8134568   3.622  10.141   3.799  0.1181 -0.3673 -0.3442
    1BTD    C8234569   3.670  10.255   3.894 -0.1688  0.5533 -0.3698
    2TTP     S134570   3.813   9.119   3.613  0.3478  0.0593 -0.3759
    2TTP     S534571   3.529   9.354   3.392 -0.2523 -0.1500  0.1662
    2TTP     C134572   3.486   9.179   3.373 -0.0933 -0.1881  0.1592
    2TTP     C234573   3.571   9.095   3.440  0.1013 -0.1261 -0.0086
    2TTP     C334574   3.673   9.168   3.509  0.1320 -0.0458 -0.1376
    2TTP     C434575   3.856   9.295   3.632  0.1888  0.0980 -0.3689
    2TTP    C1734576   3.771   9.378   3.565 -0.0058  0.0354 -0.2010
    2TTP    C1834577   3.668   9.305   3.496 -0.0365 -0.0448 -0.0720
    2TTP    C3234578   3.561   8.940   3.447  0.0252  0.5100 -0.3691
    2TTP    C3334579   3.675   8.844   3.393  0.2490 -0.0813  0.8126
    2TTP    C3434580   3.710   8.851   3.239 -0.0272 -0.1209 -0.6582
    2TTP    C3534581   3.598   8.832   3.132 -0.6575 -0.2259 -0.6948
    2TTP    C3634582   3.655   8.836   2.982  0.1577 -0.1618 -0.8376
    2TTP    C3734583   3.574   8.890   2.867  0.0388 -0.4157 -0.0252
    2TTP    C3834584   3.516   9.035   2.885  0.4416  0.9566  0.0781
    2TTP    C3934585   3.452   9.074   2.757  0.7805  0.1026 -0.1960
    2TTP    C4034586   3.411   9.215   2.728 -0.0050  0.0313  0.1956
    2TTP    C4134587   3.528   9.310   2.738 -0.1313 -0.6880  0.0999
    2TTP    C4234588   3.483   9.455   2.719  1.1303  0.4431 -0.9098
    3TTP     S134589   4.317   9.777   3.923  0.0315 -0.0483  0.4021
    3TTP     S534590   4.090  10.120   3.796  0.0643 -0.4021 -0.6254
    3TTP     C134591   4.222  10.176   3.907 -0.2482 -0.1421 -0.3827
    3TTP     C234592   4.300  10.073   3.953 -0.2767 -0.0175 -0.0511
    3TTP     C334593   4.258   9.947   3.902 -0.0529 -0.1229  0.0232
    3TTP     C434594   4.185   9.721   3.811  0.3439 -0.3083  0.1593
    3TTP    C1734595   4.107   9.823   3.766  0.3724 -0.4329 -0.1723
    3TTP    C1834596   4.149   9.950   3.817  0.1487 -0.3275 -0.2466
    3TTP    C3234597   4.417  10.093   4.055  0.0983  0.3582  0.5545
    3TTP    C3334598   4.550  10.022   4.027  0.1930 -0.1413 -0.0655
    3TTP    C3434599   4.654  10.053   4.130 -0.3912  0.6605  0.3454
    3TTP    C3534600   4.629  10.009   4.273  0.0567  0.4268  0.8290
    3TTP    C3634601   4.743  10.042   4.370  0.9469  0.0579 -0.7828
    3TTP    C3734602   4.878   9.979   4.363 -0.6693  0.0545 -0.3882
    3TTP    C3834603   4.982  10.048   4.445  0.1007 -0.0412 -0.6080
    3TTP    C3934604   5.120   9.981   4.423  0.1135 -0.0734 -0.8149
    3TTP    C4034605   5.222  10.021   4.526  0.0849  0.0757  0.1093
    3TTP    C4134606   5.348   9.941   4.517  0.1029  0.3868  0.2362
    3TTP    C4234607   5.443   9.984   4.623 -0.9196 -0.0392 -0.0384
    4BIM     F134608   2.957   9.505   2.838 -0.1116  0.1349  0.1639
    4BIM     F234609   2.792   9.294   2.884  0.2019 -0.2437 -0.4174
    4BIM     O134610   3.379   9.375   3.151 -0.2581  0.3104  0.4347
    4BIM     N534611   2.855   8.898   3.174  0.5483 -0.6626 -1.0604
    4BIM     N634612   3.218   8.839   3.409  0.3706 -0.4494 -0.7316
    4BIM    C1934613   3.371   9.127   3.307 -0.0106  0.0109 -0.0246
    4BIM    C2034614   3.271   9.168   3.226  0.0140 -0.0181 -0.0700
    4BIM    C2134615   3.283   9.297   3.149 -0.1193  0.1426  0.1772
    4BIM    C2234616   3.158   9.311   3.072 -0.0522  0.0620  0.0529
    4BIM    C2334617   3.122   9.415   2.986 -0.1303  0.1569  0.1981
    4BIM    C2434618   2.999   9.406   2.924 -0.0418  0.0502  0.0343
    4BIM    C2534619   2.914   9.298   2.948  0.1197 -0.1448 -0.2652
    4BIM    C2634620   2.948   9.194   3.034  0.1985 -0.2398 -0.4115
    4BIM    C2734621   3.073   9.201   3.098  0.1108 -0.1347 -0.2493
    4BIM    C2834622   3.140   9.109   3.193  0.1580 -0.1919 -0.3367
    4BIM    C2934623   3.088   8.990   3.242  0.3065 -0.3712 -0.6124
    4BIM    C3034624   2.960   8.940   3.204  0.4389 -0.5310 -0.8578
    4BIM    C3134625   3.160   8.908   3.334  0.3409 -0.4132 -0.6764
    5BIM     F134626   3.765  10.851   3.906  0.0011  0.0587  0.0414
    5BIM     F234627   3.989  10.996   3.962  0.0866  0.0870 -0.3705
    5BIM     O134628   3.966  10.349   3.899 -0.0651  0.0289  0.2743
    5BIM     N534629   4.454  10.845   4.037  0.1624  0.1063 -0.7966
    5BIM     N634630   4.566  10.423   4.020  0.0933  0.0773 -0.5316
    5BIM    C1934631   4.251  10.308   3.950 -0.0070  0.0453 -0.0365
    5BIM    C2034632   4.192  10.429   3.949  0.0064  0.0517 -0.0789
    5BIM    C2134633   4.045  10.442   3.922 -0.0254  0.0425  0.0892
    5BIM    C2234634   4.013  10.586   3.929 -0.0004  0.0529 -0.0095
    5BIM    C2334635   3.889  10.646   3.911 -0.0159  0.0496  0.0841
    5BIM    C2434636   3.884  10.785   3.923  0.0141  0.0613 -0.0411
    5BIM    C2534637   4.000  10.859   3.951  0.0581  0.0758 -0.2533
    5BIM    C2634638   4.123  10.799   3.969  0.0739  0.0792 -0.3477
    5BIM    C2734639   4.131  10.659   3.958  0.0440  0.0675 -0.2234
    5BIM    C2834640   4.245  10.566   3.972  0.0498  0.0674 -0.2745
    5BIM    C2934641   4.376  10.599   4.000  0.0883  0.0794 -0.4665
    5BIM    C3034642   4.418  10.734   4.020  0.1290  0.0942 -0.6473
    5BIM    C3134643   4.480  10.502   4.011  0.0911  0.0782 -0.5012
    1BTD     S234644   7.146   7.546   7.054  0.1186  0.2387 -0.0036
    1BTD     N134645   7.241   7.394   7.072  0.0921  0.2735  0.4684
    1BTD     N234646   6.986   7.464   7.061  0.1100  0.2247 -0.3684
    1BTD     N334647   6.831   7.023   7.105  0.0449  0.2584 -0.2589
    1BTD     N434648   7.144   6.937   7.119  0.0230  0.3186  0.7721
    1BTD     C534649   7.187   7.156   7.096  0.0564  0.2964  0.6145
    1BTD     C634650   7.153   7.295   7.081  0.0790  0.2728  0.3369
    1BTD     C734651   7.010   7.334   7.075  0.0889  0.2455 -0.1317
    1BTD     C834652   6.909   7.233   7.084  0.0757  0.2429 -0.2987
    1BTD    C1534653   6.947   7.098   7.099  0.0536  0.2667 -0.0146
    1BTD    C1634654   7.084   7.060   7.105  0.0440  0.2930  0.4367
    1BTD    C4334655   7.098   6.818   7.041 -0.5860  0.1227  0.0378
    1BTD    C4434656   7.145   6.673   7.069 -0.0962  0.7314  0.3582
    1BTD    C4534657   7.097   6.573   6.967  0.1451 -0.9495 -0.3781
    1BTD    C4634658   7.131   6.593   6.820 -0.0193  0.3880  0.6145
    1BTD    C4734659   7.091   6.644   7.208 -0.2799  0.1574  0.2180
    1BTD    C4834660   7.123   6.513   7.280 -0.3155  0.4741  0.7382
    1BTD    C4934661   7.097   6.485   7.428  0.6535  0.0727 -0.5766
    1BTD    C5034662   7.170   6.576   7.528 -0.4850  0.2967  0.1739
    1BTD    C7534663   6.822   6.895   7.180 -0.3709 -0.0959  0.7117
    1BTD    C7634664   6.718   6.787   7.172  0.3157  0.2592  0.4343
    1BTD    C7734665   6.757   6.663   7.258 -0.1980  0.2939 -0.2794
    1BTD    C7834666   6.760   6.686   7.411  0.0815 -1.2977  0.1906
    1BTD    C7934667   6.700   6.741   7.024  0.2474 -0.3956  0.5144
    1BTD    C8034668   6.588   6.648   6.987 -0.1805  0.4297 -0.4690
    1BTD    C8134669   6.575   6.630   6.840 -0.3734  0.4214 -0.0502
    1BTD    C8234670   6.445   6.557   6.791  0.2429 -0.4149 -0.8702
    2TTP     S134671   7.477   7.137   7.144  0.0191 -0.0387  0.0179
    2TTP     S534672   7.435   6.719   7.235 -0.1346 -0.0126  0.0663
    2TTP     C134673   7.603   6.771   7.279 -0.0535 -0.1153 -0.1215
    2TTP     C234674   7.627   6.903   7.253 -0.0011 -0.1293 -0.1477
    2TTP     C334675   7.512   6.968   7.198 -0.0232 -0.0596 -0.0200
    2TTP     C434676   7.309   7.085   7.100 -0.0621  0.0639  0.2058
    2TTP    C1734677   7.286   6.953   7.126 -0.1143  0.0779  0.2318
    2TTP    C1834678   7.400   6.888   7.181 -0.0921  0.0082  0.1044
    2TTP    C3234679   7.750   6.983   7.285  0.2553  0.4988 -0.7186
    2TTP    C3334680   7.750   7.078   7.406  0.1435 -0.4067 -0.0583
    2TTP    C3434681   7.891   7.098   7.457  0.1510 -0.2407 -0.1362
    2TTP    C3534682   7.899   7.189   7.570  0.2690 -0.5916 -0.1599
    2TTP    C3634683   8.020   7.195   7.669 -0.3787 -0.1243  0.4445
    2TTP    C3734684   8.159   7.190   7.601 -0.5032 -0.7290 -0.0488
    2TTP    C3834685   8.277   7.179   7.697 -0.0380 -0.5113  0.7570
    2TTP    C3934686   8.416   7.202   7.637  0.7957 -0.1114 -0.5856
    2TTP    C4034687   8.517   7.146   7.735  0.1678 -0.2468 -0.1796
    2TTP    C4134688   8.667   7.175   7.727  0.0222 -0.0304  0.1126
    2TTP    C4234689   8.745   7.133   7.848 -0.2576 -0.3219 -0.2845
    3TTP     S134690   6.639   7.352   7.027  0.1715  0.1273  0.6116
    3TTP     S534691   6.454   6.966   7.067  0.1175  0.0602 -0.2534
    3TTP     C134692   6.326   7.088   7.025  0.1945  0.1002 -0.3752
    3TTP     C234693   6.375   7.214   7.011  0.2159  0.1233 -0.1154
    3TTP     C334694   6.516   7.220   7.032  0.1720  0.1100  0.1893
    3TTP     C434695   6.768   7.231   7.069  0.0945  0.0871  0.7333
    3TTP    C1734696   6.718   7.104   7.084  0.0733  0.0640  0.4733
    3TTP    C1834697   6.577   7.099   7.063  0.1169  0.0770  0.1687
    3TTP    C3234698   6.290   7.338   6.975 -0.8820  0.3890 -0.0201
    3TTP    C3334699   6.265   7.442   7.085  0.1917 -0.7288  0.2092
    3TTP    C3434700   6.181   7.560   7.037 -0.3250  0.1269 -0.5275
    3TTP    C3534701   6.032   7.527   7.028  0.1032  0.5753  0.0215
    3TTP    C3634702   5.940   7.648   7.005  0.6238 -0.1474 -0.2100
    3TTP    C3734703   5.958   7.721   6.870  0.1571  0.3244  0.1882
    3TTP    C3834704   5.853   7.831   6.850  0.3951  0.1911  0.7145
    3TTP    C3934705   5.870   7.891   6.709  0.3446  0.2498  0.9277
    3TTP    C4034706   5.772   8.005   6.693  0.2778 -0.4220 -0.1551
    3TTP    C4134707   5.750   8.070   6.553 -0.2111 -0.1902 -0.3316
    3TTP    C4234708   5.680   8.207   6.562 -0.0052  0.2060 -0.0967
    4BIM     F134709   7.661   5.982   7.505  0.2813 -0.1194 -0.6917
    4BIM     F234710   7.930   6.015   7.529  0.1872  0.1909  0.0058
    4BIM     O134711   7.510   6.480   7.352  0.0503 -0.1599 -0.5962
    4BIM     N534712   8.210   6.416   7.453 -0.1128  0.6080  1.0769
    4BIM     N634713   8.038   6.798   7.329 -0.2742  0.5138  1.0109
    4BIM    C1934714   7.714   6.687   7.320 -0.1216  0.1221  0.1042
    4BIM    C2034715   7.741   6.561   7.358 -0.0598  0.1203  0.0529
    4BIM    C2134716   7.631   6.460   7.372  0.0271 -0.0294 -0.3153
    4BIM    C2234717   7.695   6.334   7.414  0.0782  0.0099 -0.2755
    4BIM    C2334718   7.634   6.212   7.440  0.1628 -0.0907 -0.5430
    4BIM    C2434719   7.715   6.106   7.478  0.1979 -0.0265 -0.4407
    4BIM    C2534720   7.854   6.123   7.490  0.1493  0.1333 -0.0809
    4BIM    C2634721   7.916   6.245   7.465  0.0648  0.2344  0.1873
    4BIM    C2734722   7.835   6.353   7.426  0.0281  0.1714  0.0888
    4BIM    C2834723   7.869   6.493   7.392 -0.0585  0.2458  0.3048
    4BIM    C2934724   7.995   6.549   7.391 -0.1249  0.4010  0.6689
    4BIM    C3034725   8.112   6.476   7.425 -0.1180  0.5141  0.8920
    4BIM    C3134726   8.018   6.686   7.357 -0.2067  0.4623  0.8548
    5BIM     F134727   5.816   6.519   7.323  0.0423 -0.1773 -0.1154
    5BIM     F234728   5.621   6.616   7.159 -0.0867  0.1864  0.2505
    5BIM     O134729   6.224   6.855   7.208  0.1171 -0.2571 -0.0833
    5BIM     N534730   5.633   6.996   6.842 -0.2187  0.6524  0.7994
    5BIM     N634731   5.991   7.239   6.785 -0.1343  0.5164  0.7505
    5BIM    C1934732   6.183   7.068   7.011  0.0204  0.0618  0.2776
    5BIM    C2034733   6.088   6.979   7.046  0.0066  0.0677  0.2553
    5BIM    C2134734   6.117   6.873   7.148  0.0589 -0.1020  0.0651
    5BIM    C2234735   5.993   6.795   7.163  0.0274 -0.0477  0.0907
    5BIM    C2334736   5.971   6.685   7.246  0.0564 -0.1582 -0.0455
    5BIM    C2434737   5.845   6.627   7.243  0.0167 -0.0758  0.0120
    5BIM    C2534738   5.745   6.678   7.158 -0.0496  0.1116  0.2009
    5BIM    C2634739   5.766   6.787   7.075 -0.0788  0.2228  0.3376
    5BIM    C2734740   5.893   6.847   7.077 -0.0393  0.1417  0.2818
    5BIM    C2834741   5.948   6.962   7.002 -0.0551  0.2202  0.3903
    5BIM    C2934742   5.881   7.039   6.909 -0.1149  0.3997  0.5798
    5BIM    C3034743   5.745   7.015   6.873 -0.1718  0.5379  0.6999
    5BIM    C3134744   5.942   7.149   6.841 -0.1252  0.4629  0.6728
    1BTD     S234745   6.448   0.461   1.485  0.0636  0.2062 -0.0283
    1BTD     N134746   6.305   0.550   1.421  0.2221  0.2770 -0.2842
    1BTD     N234747   6.528   0.609   1.551 -0.0776  0.1397  0.2983
    1BTD     N334748   6.434   1.068   1.567 -0.0795  0.1322  0.5019
    1BTD     N434749   6.159   0.996   1.407  0.2898  0.3012 -0.2158
    1BTD     C534750   6.232   0.784   1.416  0.2530  0.2876 -0.2398
    1BTD     C634751   6.324   0.678   1.450  0.1644  0.2489 -0.1214
    1BTD     C734752   6.448   0.711   1.522 -0.0033  0.1721  0.2046
    1BTD     C834753   6.475   0.848   1.557 -0.0744  0.1378  0.3960
    1BTD    C1534754   6.383   0.948   1.522  0.0168  0.1778  0.2700
    1BTD    C1634755   6.263   0.916   1.452  0.1786  0.2519 -0.0441
    1BTD    C4334756   6.120   1.129   1.459 -0.6654  0.3077 -0.7741
    1BTD    C4434757   6.025   1.134   1.574  0.2080  0.3773 -0.3738
    1BTD    C4534758   5.954   1.270   1.606 -0.4439 -0.0169 -0.3127
    1BTD    C4634759   5.888   1.344   1.495 -0.4528  0.0312 -0.6793
    1BTD    C4734760   6.083   1.064   1.707 -0.4730  0.0076  0.8710
    1BTD    C4834761   5.984   1.031   1.816 -0.9017 -0.5533 -0.3883
    1BTD    C4934762   6.044   0.982   1.947 -0.4333 -0.4963  0.2734
    1BTD    C5034763   6.133   1.078   2.017  0.2265 -0.1994 -0.4108
    1BTD    C7534764   6.422   1.194   1.490 -0.2068  0.3334  0.1870
    1BTD    C7634765   6.422   1.334   1.567 -0.4207  0.5015  0.2265
    1BTD    C7734766   6.338   1.336   1.699 -0.1922  0.1100  0.2180
    1BTD    C7834767   6.357   1.441   1.802 -0.6843 -0.3624 -0.3068
    1BTD    C7934768   6.409   1.457   1.481  0.5133 -0.4096 -0.1183
    1BTD    C8034769   6.503   1.463   1.356 -0.2722 -0.0589 -0.3031
    1BTD    C8134770   6.502   1.603   1.295 -0.3444  0.0512 -0.0771
    1BTD    C8234771   6.583   1.611   1.167 -0.0402  0.8589 -0.1741
    2TTP     S134772   5.990   0.674   1.268  0.0996  0.3020  0.1080
    2TTP     S534773   5.851   1.076   1.207 -0.3166  0.1781  0.2287
    2TTP     C134774   5.738   0.963   1.121  0.0098  0.1112 -0.1142
    2TTP     C234775   5.774   0.832   1.135  0.1572  0.1455 -0.1717
    2TTP     C334776   5.892   0.816   1.214  0.0182  0.2259  0.0530
    2TTP     C434777   6.102   0.787   1.354 -0.2266  0.3689  0.4509
    2TTP    C1734778   6.066   0.918   1.341 -0.3741  0.3346  0.5084
    2TTP    C1834779   5.948   0.934   1.262 -0.2351  0.2542  0.2837
    2TTP    C3234780   5.698   0.707   1.080  0.1562  0.2424 -0.7293
    2TTP    C3334781   5.644   0.593   1.167 -0.3887 -0.5551 -0.1902
    2TTP    C3434782   5.522   0.641   1.248 -0.2512 -0.2378  0.6326
    2TTP    C3534783   5.444   0.531   1.312 -0.6459  0.6433  0.3164
    2TTP    C3634784   5.334   0.583   1.402 -0.3696 -0.3670 -1.0453
    2TTP    C3734785   5.228   0.484   1.445 -0.4693 -0.1509  0.0870
    2TTP    C3834786   5.134   0.554   1.538  0.2894 -0.6308 -0.0342
    2TTP    C3934787   5.012   0.469   1.573 -0.2167 -0.2577  0.1748
    2TTP    C4034788   5.040   0.330   1.633  0.6740  0.3034  0.2407
    2TTP    C4134789   4.913   0.250   1.666 -0.5054  0.1723  0.6146
    2TTP    C4234790   4.930   0.113   1.720 -0.0169  0.0401  0.5667
    3TTP     S134791   6.735   0.863   1.706 -0.1817  0.1855 -0.2647
    3TTP     S534792   6.703   1.292   1.711 -0.2040  0.1790  0.3240
    3TTP     C134793   6.860   1.245   1.788 -0.3293  0.0692  0.5131
    3TTP     C234794   6.880   1.110   1.792 -0.3299  0.0647  0.3424
    3TTP     C334795   6.771   1.038   1.733 -0.2311  0.1478  0.0562
    3TTP     C434796   6.578   0.910   1.628 -0.0564  0.2953 -0.4537
    3TTP    C1734797   6.558   1.045   1.625 -0.0557  0.2997 -0.2831
    3TTP    C1834798   6.667   1.117   1.684 -0.1544  0.2166  0.0031
    3TTP    C3234799   6.998   1.031   1.856  0.1169  0.3354  0.1635
    3TTP    C3334800   7.100   0.958   1.764  0.7261  0.3033 -0.3584
    3TTP    C3434801   7.224   0.906   1.836 -0.1564 -0.3410  0.5674
    3TTP    C3534802   7.208   0.795   1.936  0.0276  0.2847  0.0572
    3TTP    C3634803   7.326   0.700   1.945 -0.6080  0.7001  0.7251
    3TTP    C3734804   7.285   0.557   1.993 -0.3058 -0.0505  0.3254
    3TTP    C3834805   7.272   0.445   1.885  0.5192 -1.0589 -0.2483
    3TTP    C3934806   7.186   0.472   1.767 -0.3479 -0.0489  0.3322
    3TTP    C4034807   7.033   0.470   1.798  0.1072 -0.5035 -0.3237
    3TTP    C4134808   6.946   0.526   1.689 -0.0993  0.1409  0.4870
    3TTP    C4234809   6.796   0.496   1.721  0.3830 -0.0482  0.3142
    4BIM     F134810   5.342   1.660   0.951  0.1969 -0.0119  0.0370
    4BIM     F234811   5.171   1.518   0.792 -0.1041 -0.0581  0.4005
    4BIM     O134812   5.668   1.265   1.128  0.2532 -0.0290 -0.1045
    4BIM     N534813   5.158   1.034   0.691 -0.4966 -0.1367  0.8225
    4BIM     N634814   5.447   0.754   0.862 -0.3921 -0.1408  0.6387
    4BIM    C1934815   5.620   0.990   1.039 -0.0145 -0.0792  0.1927
    4BIM    C2034816   5.545   1.095   1.001 -0.0168 -0.0731  0.2140
    4BIM    C2134817   5.576   1.233   1.051  0.1254 -0.0469  0.0547
    4BIM    C2234818   5.475   1.323   0.990  0.0830 -0.0467  0.1251
    4BIM    C2334819   5.463   1.460   1.006  0.1769 -0.0266  0.0282
    4BIM    C2434820   5.360   1.524   0.939  0.1108 -0.0310  0.1244
    4BIM    C2534821   5.272   1.451   0.857 -0.0444 -0.0548  0.3117
    4BIM    C2634822   5.284   1.313   0.841 -0.1385 -0.0750  0.4093
    4BIM    C2734823   5.387   1.247   0.908 -0.0738 -0.0709  0.3142
    4BIM    C2834824   5.427   1.104   0.912 -0.1413 -0.0880  0.3763
    4BIM    C2934825   5.365   1.001   0.845 -0.2906 -0.1130  0.5509
    4BIM    C3034826   5.251   1.020   0.761 -0.4034 -0.1259  0.6996
    4BIM    C3134827   5.411   0.866   0.855 -0.3456 -0.1281  0.5981
    5BIM     F134828   6.774   1.977   2.149 -0.0386  0.0961  0.0392
    5BIM     F234829   7.044   2.010   2.132 -0.0607  0.1771 -0.1634
    5BIM     O134830   6.717   1.482   1.937 -0.0265 -0.0101  0.2832
    5BIM     N534831   7.390   1.704   1.956 -0.0837  0.2180 -0.2808
    5BIM     N634832   7.291   1.310   1.794 -0.0696  0.1186 -0.0493
    5BIM    C1934833   6.954   1.337   1.845 -0.0431  0.0296  0.1764
    5BIM    C2034834   6.958   1.461   1.899 -0.0454  0.0531  0.1229
    5BIM    C2134835   6.832   1.529   1.944 -0.0364  0.0303  0.1835
    5BIM    C2234836   6.871   1.660   1.997 -0.0416  0.0654  0.1014
    5BIM    C2334837   6.789   1.759   2.051 -0.0366  0.0604  0.1186
    5BIM    C2434838   6.850   1.875   2.095 -0.0431  0.0986  0.0280
    5BIM    C2534839   6.989   1.892   2.086 -0.0545  0.1403 -0.0763
    5BIM    C2634840   7.071   1.794   2.033 -0.0596  0.1456 -0.0941
    5BIM    C2734841   7.012   1.675   1.988 -0.0530  0.1073 -0.0034
    5BIM    C2834842   7.070   1.553   1.927 -0.0558  0.1014  0.0057
    5BIM    C2934843   7.204   1.531   1.901 -0.0660  0.1344 -0.0785
    5BIM    C3034844   7.306   1.626   1.931 -0.0756  0.1802 -0.1894
    5BIM    C3134845   7.251   1.410   1.842 -0.0679  0.1256 -0.0619
    1BTD     S234846   1.060   8.559   5.911  0.2883  0.0478 -0.0480
    1BTD     N134847   0.935   8.430   5.928  0.2079  0.1493  0.1329
    1BTD     N234848   0.972   8.646   5.780  0.3867 -0.1299 -0.2350
    1BTD     N334849   0.568   8.592   5.547  0.4420 -0.3088 -0.2892
    1BTD     N434850   0.523   8.326   5.730  0.2217  0.0358  0.1639
    1BTD     C534851   0.721   8.379   5.822  0.2178  0.0858  0.1436
    1BTD     C634852   0.840   8.458   5.841  0.2561  0.0505  0.0490
    1BTD     C734853   0.860   8.579   5.758  0.3561 -0.1056 -0.1569
    1BTD     C834854   0.760   8.615   5.661  0.4129 -0.2191 -0.2578
    1BTD    C1534855   0.645   8.535   5.646  0.3724 -0.1796 -0.1593
    1BTD    C1634856   0.626   8.418   5.726  0.2760 -0.0288  0.0390
    1BTD    C4334857   0.384   8.336   5.676  0.2075 -0.0021  0.4084
    1BTD    C4434858   0.274   8.364   5.782  0.0730 -0.7691  0.2328
    1BTD    C4534859   0.310   8.470   5.890  0.6132 -0.1174  0.2754
    1BTD    C4634860   0.298   8.613   5.828  0.3210 -0.3651  0.9254
    1BTD    C4734861   0.125   8.367   5.732 -0.0889  0.0211 -0.0305
    1BTD    C4834862   0.077   8.256   5.641  0.9324 -0.8525 -0.8589
    1BTD    C4934863  -0.064   8.313   5.597 -0.4018  0.0730  0.7786
    1BTD    C5034864  -0.106   8.237   5.473  0.1795 -0.0108  0.0557
    1BTD    C7534865   0.460   8.535   5.463  0.5089  0.3668  0.4064
    1BTD    C7634866   0.428   8.600   5.326 -0.1457  0.2974  0.2252
    1BTD    C7734867   0.549   8.598   5.227  0.0085  0.2131 -0.5410
    1BTD    C7834868   0.581   8.465   5.165 -0.0657  0.2028 -0.4389
    1BTD    C7934869   0.284   8.572   5.276  0.4565  0.1986 -0.2365
    1BTD    C8034870   0.158   8.587   5.363  0.1562 -0.3787  0.2350
    1BTD    C8134871   0.147   8.732   5.417  0.0785 -0.0233  0.8261
    1BTD    C8234872   0.059   8.743   5.538  0.4812 -0.0951  0.3779
    2TTP     S134873   0.748   8.123   5.975 -0.0810 -0.0233  0.2384
    2TTP     S534874   0.407   7.970   5.764 -0.0158 -0.1166  0.2009
    2TTP     C134875   0.484   7.833   5.856 -0.0585 -0.0713  0.3048
    2TTP     C234876   0.594   7.872   5.926 -0.0812 -0.0396  0.3225
    2TTP     C334877   0.621   8.012   5.910 -0.0656 -0.0503  0.2546
    2TTP     C434878   0.671   8.260   5.883 -0.0382 -0.0691  0.1346
    2TTP    C1734879   0.561   8.220   5.812 -0.0155 -0.1003  0.1169
    2TTP    C1834880   0.534   8.081   5.828 -0.0311 -0.0899  0.1847
    2TTP    C3234881   0.712   7.797   5.982 -0.6102 -0.2267 -0.3817
    2TTP    C3334882   0.685   7.703   6.103 -0.8471 -0.6042  0.9361
    2TTP    C3434883   0.589   7.756   6.212 -0.2771 -0.1282 -0.3604
    2TTP    C3534884   0.551   7.653   6.323 -0.0764 -0.0257  0.1156
    2TTP    C3634885   0.441   7.561   6.265 -1.1491 -0.0666  0.2535
    2TTP    C3734886   0.390   7.469   6.371 -0.3415 -0.1228  0.6627
    2TTP    C3834887   0.342   7.340   6.305 -0.9150  0.3926 -0.1866
    2TTP    C3934888   0.291   7.224   6.396 -0.1348  0.2390  0.7210
    2TTP    C4034889   0.378   7.166   6.505 -0.2788  0.4784 -0.1336
    2TTP    C4134890   0.527   7.120   6.474  0.6097 -0.9060 -0.1548
    2TTP    C4234891   0.536   7.011   6.369  0.3827 -0.2154 -0.7133
    3TTP     S134892   0.821   8.890   5.594 -0.2598 -0.0019  0.1902
    3TTP     S534893   0.419   8.927   5.443 -0.0670  0.0248 -0.3208
    3TTP     C134894   0.492   9.094   5.456 -0.1168  0.0299 -0.1065
    3TTP     C234895   0.620   9.092   5.504 -0.1792  0.0219  0.0639
    3TTP     C334896   0.666   8.959   5.531 -0.1900  0.0114  0.0316
    3TTP     C434897   0.748   8.724   5.580 -0.2100 -0.0069 -0.0241
    3TTP    C1734898   0.620   8.726   5.533 -0.1475  0.0010 -0.1944
    3TTP    C1834899   0.574   8.858   5.506 -0.1367  0.0112 -0.1619
    3TTP    C3234900   0.711   9.218   5.518  0.5893 -0.1157  1.2632
    3TTP    C3334901   0.852   9.215   5.458 -0.1657  0.0143  0.6824
    3TTP    C3434902   0.878   9.153   5.315  0.2925 -0.0955 -0.0153
    3TTP    C3534903   0.823   9.213   5.179 -0.2622  0.8516 -0.0031
    3TTP    C3634904   0.673   9.207   5.147 -0.0818  0.0610  0.2877
    3TTP    C3734905   0.636   9.061   5.096  0.0902  0.3853 -0.3637
    3TTP    C3834906   0.495   9.050   5.052  0.5514  0.0719  0.5354
    3TTP    C3934907   0.443   8.911   5.015  0.8419  0.1106 -0.8773
    3TTP    C4034908   0.311   8.889   4.948  0.5104 -0.4477  0.2187
    3TTP    C4134909   0.184   8.959   5.009 -0.4656 -0.4653  0.9078
    3TTP    C4234910   0.057   8.919   4.939  0.4226  0.1334 -0.5460
    4BIM     F134911  -0.199   7.474   5.592 -0.0806  0.2445  0.0204
    4BIM     F234912  -0.069   7.235   5.597 -0.2160  0.1678 -0.0798
    4BIM     O134913   0.186   7.806   5.779  0.1173 -0.0472  0.1322
    4BIM     N534914   0.394   7.129   5.737 -0.2696 -0.1500 -0.1438
    4BIM     N634915   0.668   7.436   5.882 -0.0878 -0.3625 -0.0362
    4BIM    C1934916   0.447   7.696   5.850  0.0582 -0.2239  0.0763
    4BIM    C2034917   0.345   7.621   5.803  0.0137 -0.1476  0.0521
    4BIM    C2134918   0.214   7.685   5.768  0.0483 -0.0592  0.0836
    4BIM    C2234919   0.126   7.577   5.720 -0.0156  0.0094  0.0453
    4BIM    C2334920  -0.006   7.588   5.677 -0.0117  0.1012  0.0557
    4BIM    C2434921  -0.069   7.471   5.636 -0.0802  0.1531  0.0129
    4BIM    C2534922  -0.001   7.348   5.639 -0.1498  0.1135 -0.0387
    4BIM    C2634923   0.130   7.337   5.682 -0.1540  0.0218 -0.0494
    4BIM    C2734924   0.196   7.454   5.724 -0.0855 -0.0317 -0.0066
    4BIM    C2834925   0.333   7.476   5.774 -0.0702 -0.1298 -0.0044
    4BIM    C2934926   0.431   7.381   5.792 -0.1237 -0.1918 -0.0465
    4BIM    C3034927   0.410   7.242   5.762 -0.2038 -0.1688 -0.0999
    4BIM    C3134928   0.561   7.412   5.842 -0.1036 -0.2854 -0.0407
    5BIM     F134929  -0.271   9.320   5.254  0.1044  0.0875  0.0887
    5BIM     F234930  -0.179   9.573   5.213  0.0548  0.0973  0.0390
    5BIM     O134931   0.184   9.069   5.408  0.1790  0.1771  0.0135
    5BIM     N534932   0.277   9.758   5.262  0.0368  0.1750 -0.0861
    5BIM     N634933   0.614   9.511   5.390  0.1051  0.2427 -0.1348
    5BIM    C1934934   0.433   9.222   5.422  0.1582  0.2177 -0.0607
    5BIM    C2034935   0.315   9.275   5.385  0.1414  0.1950 -0.0398
    5BIM    C2134936   0.191   9.190   5.380  0.1536  0.1750 -0.0019
    5BIM    C2234937   0.081   9.279   5.337  0.1297  0.1526  0.0130
    5BIM    C2334938  -0.052   9.245   5.317  0.1307  0.1295  0.0473
    5BIM    C2434939  -0.138   9.346   5.276  0.1050  0.1113  0.0553
    5BIM    C2534940  -0.090   9.476   5.254  0.0793  0.1164  0.0297
    5BIM    C2634941   0.043   9.510   5.273  0.0785  0.1392 -0.0045
    5BIM    C2734942   0.131   9.410   5.316  0.1041  0.1581 -0.0132
    5BIM    C2834943   0.277   9.413   5.345  0.1103  0.1843 -0.0466
    5BIM    C2934944   0.360   9.522   5.336  0.0909  0.1965 -0.0781
    5BIM    C3034945   0.314   9.651   5.295  0.0612  0.1845 -0.0824
    5BIM    C3134946   0.499   9.515   5.366  0.0988  0.2220 -0.1090
    1BTD     S234947   2.547   8.100   5.568  0.1720 -0.0880  0.0286
    1BTD     N134948   2.618   8.247   5.644  0.3736 -0.1583 -0.0221
    1BTD     N234949   2.537   8.172   5.403 -0.1272  0.0129  0.0893
    1BTD     N334950   2.645   8.584   5.205 -0.3731  0.0930  0.1212
    1BTD     N434951   2.744   8.676   5.502  0.2441 -0.1180 -0.0161
    1BTD     C534952   2.682   8.470   5.566  0.2986 -0.1347 -0.0173
    1BTD     C634953   2.630   8.338   5.547  0.2156 -0.1054  0.0073
    1BTD     C734954   2.585   8.296   5.413 -0.0647 -0.0093  0.0695
    1BTD     C834955   2.595   8.388   5.303 -0.2481  0.0522  0.1043
    1BTD    C1534956   2.647   8.517   5.326 -0.1580  0.0202  0.0784
    1BTD    C1634957   2.690   8.558   5.456  0.1122 -0.0720  0.0182
    1BTD    C4334958   2.700   8.813   5.467  0.3778 -0.1835  0.1263
    1BTD    C4434959   2.566   8.866   5.527  0.6016 -0.1236  0.0422
    1BTD    C4534960   2.551   8.896   5.677 -0.2932 -0.1669  0.1077
    1BTD    C4634961   2.656   8.980   5.756 -0.3250  0.0702  0.1584
    1BTD    C4734962   2.428   8.809   5.483  0.6031  1.0207 -0.0070
    1BTD    C4834963   2.390   8.668   5.522  0.4514  0.4606 -0.6061
    1BTD    C4934964   2.262   8.614   5.461  0.4870  0.2150 -0.1885
    1BTD    C5034965   2.239   8.475   5.519  0.0625  0.4469  0.3947
    1BTD    C7534966   2.737   8.698   5.172  0.3989  0.4219  0.2672
    1BTD    C7634967   2.674   8.812   5.087  0.1328  0.6589 -0.5428
    1BTD    C7734968   2.792   8.903   5.048  1.1951 -0.6758  0.0774
    1BTD    C7834969   2.859   9.001   5.152  0.2505 -0.5918  0.3547
    1BTD    C7934970   2.542   8.877   5.134  0.3998  0.5003 -0.2613
    1BTD    C8034971   2.484   8.982   5.054 -0.3243  0.8052  0.1395
    1BTD    C8134972   2.336   9.001   5.073  0.1614  0.7968 -0.1794
    1BTD    C8234973   2.304   9.134   5.016 -0.2353 -0.4179 -0.2025
    2TTP     S134974   2.819   8.483   5.841  0.0346 -0.0640  0.1934
    2TTP     S534975   2.990   8.859   5.720  0.1241 -0.1452  0.0678
    2TTP     C134976   3.061   8.812   5.880 -0.0993  0.0315  0.2203
    2TTP     C234977   3.013   8.693   5.927 -0.1402  0.0668  0.2682
    2TTP     C334978   2.917   8.635   5.838  0.0036 -0.0443  0.1861
    2TTP     C434979   2.748   8.530   5.681  0.2581 -0.2406  0.0409
    2TTP    C1734980   2.796   8.649   5.634  0.2989 -0.2760 -0.0069
    2TTP    C1834981   2.891   8.707   5.723  0.1552 -0.1647  0.0752
    2TTP    C3234982   3.065   8.603   6.046 -0.2737 -0.2035  0.2738
    2TTP    C3334983   3.086   8.660   6.179  0.2347 -0.1918  0.2320
    2TTP    C3434984   3.114   8.563   6.285  0.3236 -0.1336  0.5549
    2TTP    C3534985   3.100   8.618   6.423  0.9263  0.7642 -0.2890
    2TTP    C3634986   2.969   8.683   6.470  0.1392  0.2677 -0.1092
    2TTP    C3734987   2.850   8.591   6.450 -0.1657 -0.9270 -0.6952
    2TTP    C3834988   2.721   8.654   6.482  0.9700  0.4648 -0.4422
    2TTP    C3934989   2.606   8.559   6.438  0.3147  0.4778 -0.1733
    2TTP    C4034990   2.463   8.614   6.430 -0.1723 -0.4499  0.0819
    2TTP    C4134991   2.368   8.498   6.404  0.0500  0.0331 -0.5711
    2TTP    C4234992   2.223   8.532   6.402  0.0381 -0.6483  0.0476
    3TTP     S134993   2.501   8.258   5.053 -0.1731  0.3143 -0.1254
    3TTP     S534994   2.588   8.615   4.830  0.1265  0.0303 -0.4656
    3TTP     C134995   2.531   8.487   4.714  0.0176 -0.0320 -0.3435
    3TTP     C234996   2.501   8.369   4.776 -0.0814  0.0517 -0.2311
    3TTP     C334997   2.521   8.376   4.917 -0.0747  0.1688 -0.2376
    3TTP     C434998   2.558   8.386   5.169 -0.0642  0.3769 -0.2476
    3TTP    C1734999   2.588   8.504   5.107  0.0348  0.2930 -0.3598
    3TTP    C1835000   2.567   8.497   4.965  0.0281  0.1762 -0.3533
    3TTP    C3235001   2.431   8.250   4.717  0.0290  0.0218 -0.9860
    3TTP    C3335002   2.524   8.132   4.695  0.3023  0.6546  0.1797
    3TTP    C3435003   2.437   8.002   4.670  0.1007 -0.3747  0.2418
    3TTP    C3535004   2.355   7.958   4.786  0.3808  0.5653 -0.3294
    3TTP    C3635005   2.271   7.829   4.753  0.1503 -0.2810 -0.5665
    3TTP    C3735006   2.143   7.846   4.667  0.1286  0.4404 -0.7595
    3TTP    C3835007   2.016   7.819   4.743  0.2877 -0.4330 -0.3289
    3TTP    C3935008   1.895   7.845   4.656 -0.2156  0.1387  0.6554
    3TTP    C4035009   1.755   7.788   4.704 -0.2112  0.2319 -0.5424
    3TTP    C4135010   1.747   7.652   4.756 -0.2127  0.5886  0.0639
    3TTP    C4235011   1.608   7.603   4.785 -0.1419 -0.2066  0.3092
    4BIM     F135012   3.246   9.609   5.915 -0.3564 -0.0212  0.3971
    4BIM     F235013   3.480   9.543   6.039 -0.0081 -0.0062 -0.2421
    4BIM     O135014   3.022   9.119   5.855 -0.2100 -0.0966  0.4616
    4BIM     N535015   3.655   9.101   6.174  0.5971 -0.0374 -1.1151
    4BIM     N635016   3.433   8.732   6.103  0.6413 -0.0994 -0.9359
    4BIM    C1935017   3.165   8.883   5.952  0.1748 -0.1089 -0.1263
    4BIM    C2035018   3.213   9.009   5.962  0.1243 -0.0904 -0.1174
    4BIM    C2135019   3.133   9.125   5.910 -0.0764 -0.0854  0.1941
    4BIM    C2235020   3.213   9.246   5.937 -0.0821 -0.0644  0.1180
    4BIM    C2335021   3.181   9.378   5.907 -0.2376 -0.0532  0.3296
    4BIM    C2435022   3.272   9.476   5.942 -0.2087 -0.0335  0.2015
    4BIM    C2535023   3.392   9.442   6.006 -0.0291 -0.0256 -0.1277
    4BIM    C2635024   3.425   9.311   6.037  0.1268 -0.0367 -0.3401
    4BIM    C2735025   3.334   9.210   6.002  0.1001 -0.0567 -0.2151
    4BIM    C2835026   3.339   9.063   6.020  0.2342 -0.0725 -0.3731
    4BIM    C2935027   3.440   8.991   6.078  0.4238 -0.0706 -0.6944
    4BIM    C3035028   3.558   9.052   6.131  0.5184 -0.0525 -0.9245
    4BIM    C3135029   3.436   8.849   6.091  0.5423 -0.0865 -0.8253
    5BIM     F135030   2.689   9.090   4.179 -0.4085  0.0055 -0.0001
    5BIM     F235031   2.610   8.925   3.978 -0.1370 -0.0517 -0.0620
    5BIM     O135032   2.617   8.768   4.609 -0.1023 -0.1948 -0.0976
    5BIM     N535033   2.443   8.459   3.994  0.4715 -0.2766 -0.2205
    5BIM     N635034   2.402   8.241   4.370  0.6561 -0.4218 -0.2846
    5BIM    C1935035   2.514   8.497   4.569  0.2659 -0.3209 -0.1917
    5BIM    C2035036   2.536   8.584   4.469  0.1782 -0.2682 -0.1646
    5BIM    C2135037   2.589   8.722   4.497 -0.0110 -0.2050 -0.1166
    5BIM    C2235038   2.600   8.790   4.367 -0.0653 -0.1583 -0.0970
    5BIM    C2335039   2.644   8.920   4.343 -0.2294 -0.0935 -0.0535
    5BIM    C2435040   2.647   8.963   4.211 -0.2497 -0.0585 -0.0425
    5BIM    C2535041   2.605   8.878   4.107 -0.1096 -0.0883 -0.0746
    5BIM    C2635042   2.561   8.748   4.131  0.0545 -0.1531 -0.1181
    5BIM    C2735043   2.558   8.703   4.264  0.0775 -0.1888 -0.1298
    5BIM    C2835044   2.517   8.573   4.322  0.2328 -0.2575 -0.1725
    5BIM    C2935045   2.471   8.463   4.253  0.3957 -0.3026 -0.2118
    5BIM    C3035046   2.456   8.462   4.111  0.4368 -0.2880 -0.2165
    5BIM    C3135047   2.433   8.342   4.318  0.5380 -0.3679 -0.2515
    1BTD     S235048   2.171   8.270   8.094 -0.1816  0.0400  0.2954
    1BTD     N135049   2.317   8.374   8.091 -0.1878  0.0517  0.4191
    1BTD     N235050   2.066   8.389   8.010 -0.0764 -0.0358  0.0532
    1BTD     N335051   2.116   8.822   7.835  0.1271 -0.1681 -0.2167
    1BTD     N435052   2.426   8.803   7.935 -0.0101 -0.0603  0.2340
    1BTD     C535053   2.370   8.599   8.008 -0.0934 -0.0081  0.3173
    1BTD     C635054   2.282   8.487   8.031 -0.1149  0.0012  0.2809
    1BTD     C735055   2.141   8.496   7.986 -0.0525 -0.0474  0.0759
    1BTD     C835056   2.096   8.615   7.920  0.0281 -0.1037 -0.0824
    1BTD    C1535057   2.186   8.722   7.900  0.0464 -0.1108 -0.0398
    1BTD    C1635058   2.321   8.713   7.943 -0.0136 -0.0636  0.1576
    1BTD    C4335059   2.404   8.958   7.957  0.2490 -0.0331 -0.8701
    1BTD    C4435060   2.504   9.068   7.902  0.1357  0.2406 -0.8129
    1BTD    C4535061   2.480   9.214   7.953  0.6542  0.3689  0.1909
    1BTD    C4635062   2.468   9.244   8.105  0.2652  0.1904  0.2388
    1BTD    C4735063   2.525   9.060   7.747 -0.0918  0.0003 -0.5572
    1BTD    C4835064   2.615   9.162   7.673  0.6456  0.3681  0.2527
    1BTD    C4935065   2.737   9.214   7.743  0.4922 -0.6044 -0.6179
    1BTD    C5035066   2.821   9.298   7.644 -0.0719 -0.5171 -0.4843
    1BTD    C7535067   2.184   8.921   7.743  0.0596  0.0650  0.0309
    1BTD    C7635068   2.126   9.061   7.711 -0.3313 -0.1443  0.2166
    1BTD    C7735069   2.186   9.125   7.589  0.1151  0.1623  0.2689
    1BTD    C7835070   2.180   9.042   7.453  0.5014 -0.5362 -0.1369
    1BTD    C7935071   2.109   9.141   7.842 -0.4036 -0.8373 -0.6287
    1BTD    C8035072   2.037   9.271   7.817  0.6399  0.1905  0.8531
    1BTD    C8135073   1.966   9.337   7.934 -0.4699 -0.2534  0.0567
    1BTD    C8235074   2.032   9.364   8.064 -0.5911  0.3647  0.6091
    2TTP     S135075   2.663   8.524   8.076  0.1272 -0.0332  0.0476
    2TTP     S535076   2.789   8.909   7.933  0.1457  0.0153  0.1941
    2TTP     C135077   2.937   8.814   7.980  0.1484 -0.0513  0.0545
    2TTP     C235078   2.906   8.689   8.027  0.1428 -0.0699  0.0010
    2TTP     C335079   2.765   8.665   8.027  0.1363 -0.0329  0.0684
    2TTP     C435080   2.515   8.619   8.028  0.1246  0.0329  0.1874
    2TTP    C1735081   2.546   8.744   7.981  0.1301  0.0519  0.2407
    2TTP    C1835082   2.686   8.769   7.981  0.1367  0.0148  0.1732
    2TTP    C3235083   2.994   8.576   8.065 -0.4246 -0.0506 -0.7922
    2TTP    C3335084   3.004   8.539   8.210 -0.7200  0.2486 -0.2030
    2TTP    C3435085   3.106   8.428   8.245  0.0700  0.5372 -0.0874
    2TTP    C3535086   3.123   8.375   8.395 -0.1670  0.4177  0.6237
    2TTP    C3635087   2.996   8.324   8.453  0.2703 -0.2986 -0.3943
    2TTP    C3735088   3.037   8.296   8.601  0.3134 -0.8386  0.2438
    2TTP    C3835089   2.925   8.242   8.682  0.4229  0.2651 -0.5359
    2TTP    C3935090   2.974   8.212   8.825  0.1862  0.1576 -0.0937
    2TTP    C4035091   2.861   8.167   8.925  0.5858  0.2658  0.0692
    2TTP    C4135092   2.791   8.036   8.905  0.2281 -0.0373  0.0954
    2TTP    C4235093   2.698   7.987   9.020  0.2306  0.1622  0.4266
    3TTP     S135094   1.793   8.605   7.873 -0.1711  0.0910  0.2273
    3TTP     S535095   1.816   8.993   7.688  0.1119 -0.3068 -0.5840
    3TTP     C135096   1.644   8.934   7.678  0.0994 -0.2684 -0.5968
    3TTP     C235097   1.627   8.811   7.735  0.0113 -0.1431 -0.3468
    3TTP     C335098   1.749   8.759   7.788 -0.0496 -0.0730 -0.1365
    3TTP     C435099   1.965   8.664   7.883 -0.1586  0.0527  0.2397
    3TTP    C1735100   1.982   8.788   7.827 -0.0705 -0.0726 -0.0100
    3TTP    C1835101   1.861   8.840   7.773 -0.0097 -0.1428 -0.2204
    3TTP    C3235102   1.508   8.712   7.738  0.4209 -0.2451  0.2855
    3TTP    C3335103   1.405   8.730   7.847  0.1675  0.1912 -0.1079
    3TTP    C3435104   1.466   8.688   7.982 -0.4826 -0.6519  0.7987
    3TTP    C3535105   1.426   8.765   8.105  0.4865 -0.3582  0.0853
    3TTP    C3635106   1.508   8.891   8.131 -0.4270  0.1924  1.0502
    3TTP    C3735107   1.466   9.018   8.046 -0.4019  0.5308  0.1338
    3TTP    C3835108   1.572   9.125   8.047  0.0617  0.0914  0.1845
    3TTP    C3935109   1.521   9.245   7.976 -0.6421 -0.5048  0.1777
    3TTP    C4035110   1.602   9.360   8.026  0.0799  0.7592 -0.0907
    3TTP    C4135111   1.575   9.484   7.945 -0.1732 -0.3385 -0.4141
    3TTP    C4235112   1.652   9.598   8.002  0.5397 -0.2465  0.2986
    4BIM     F135113   3.270   9.563   8.017 -0.2204 -0.2131  0.5865
    4BIM     F235114   3.516   9.447   7.997 -0.2130 -0.0854 -0.1082
    4BIM     O135115   2.950   9.127   8.016 -0.0491 -0.3390  0.5810
    4BIM     N535116   3.640   8.969   7.968 -0.0802  0.0083 -1.1111
    4BIM     N635117   3.340   8.651   7.970  0.0522 -0.1156 -0.9754
    4BIM    C1935118   3.071   8.861   7.996  0.0189 -0.2621 -0.0847
    4BIM    C2035119   3.142   8.975   7.997 -0.0246 -0.2351 -0.0560
    4BIM    C2135120   3.072   9.108   8.008 -0.0574 -0.2780  0.2956
    4BIM    C2235121   3.178   9.211   8.006 -0.1012 -0.2334  0.2325
    4BIM    C2335122   3.163   9.349   8.014 -0.1420 -0.2511  0.4792
    4BIM    C2435123   3.278   9.426   8.011 -0.1791 -0.1993  0.3568
    4BIM    C2535124   3.404   9.366   8.000 -0.1751 -0.1341 -0.0011
    4BIM    C2635125   3.421   9.228   7.993 -0.1345 -0.1166 -0.2487
    4BIM    C2735126   3.305   9.148   7.996 -0.0967 -0.1671 -0.1301
    4BIM    C2835127   3.288   9.001   7.990 -0.0494 -0.1655 -0.3216
    4BIM    C2935128   3.387   8.907   7.980 -0.0319 -0.1104 -0.6772
    4BIM    C3035129   3.526   8.942   7.973 -0.0585 -0.0453 -0.9145
    4BIM    C3135130   3.361   8.767   7.975  0.0143 -0.1137 -0.8391
    5BIM     F135131   1.483   9.719   7.512  0.2449  0.0079 -0.3901
    5BIM     F235132   1.239   9.644   7.416 -0.1423  0.0827  0.5201
    5BIM     O135133   1.685   9.241   7.666  0.5350 -0.0103 -0.8224
    5BIM     N535134   1.033   9.195   7.389 -0.4921  0.1779  1.5205
    5BIM     N635135   1.240   8.837   7.529 -0.1875  0.1485  0.9992
    5BIM    C1935136   1.524   9.000   7.630  0.2681  0.0548 -0.1064
    5BIM    C2035137   1.482   9.123   7.594  0.2103  0.0567 -0.0331
    5BIM    C2135138   1.571   9.242   7.616  0.3562  0.0219 -0.4189
    5BIM    C2235139   1.496   9.359   7.567  0.2450  0.0336 -0.2222
    5BIM    C2335140   1.537   9.492   7.567  0.3172  0.0110 -0.4475
    5BIM    C2435141   1.448   9.586   7.515  0.1835  0.0283 -0.1891
    5BIM    C2535142   1.323   9.547   7.466 -0.0159  0.0671  0.2797
    5BIM    C2635143   1.281   9.415   7.467 -0.0889  0.0894  0.5068
    5BIM    C2735144   1.370   9.318   7.518  0.0441  0.0725  0.2509
    5BIM    C2835145   1.356   9.171   7.533  0.0149  0.0882  0.3856
    5BIM    C2935146   1.248   9.095   7.497 -0.1599  0.1252  0.8163
    5BIM    C3035147   1.130   9.150   7.438 -0.3419  0.1540  1.2020
    5BIM    C3135148   1.244   8.953   7.515 -0.1740  0.1378  0.9143
    1BTD     S235149   4.813   2.019   1.603 -0.3640  0.2086 -0.1316
    1BTD     N135150   4.649   1.963   1.553 -0.3264 -0.0034 -0.0198
    1BTD     N235151   4.782   1.998   1.779 -0.2533  0.2718 -0.1049
    1BTD     N335152   4.425   1.856   2.048  0.0393  0.0179  0.1515
    1BTD     N435153   4.261   1.812   1.770 -0.0505 -0.3213  0.2565
    1BTD     C535154   4.448   1.885   1.670 -0.1813 -0.1653  0.1232
    1BTD     C635155   4.584   1.934   1.665 -0.2382 -0.0155  0.0292
    1BTD     C735156   4.658   1.953   1.791 -0.1974  0.1386 -0.0184
    1BTD     C835157   4.593   1.923   1.916 -0.1017  0.1352  0.0303
    1BTD    C1535158   4.461   1.876   1.916 -0.0488 -0.0143  0.1222
    1BTD    C1635159   4.389   1.857   1.794 -0.0880 -0.1628  0.1681
    1BTD    C4335160   4.196   1.698   1.837  0.0628  0.0743 -0.6277
    1BTD    C4435161   4.041   1.698   1.855  0.2304  0.2325 -0.2179
    1BTD    C4535162   3.983   1.834   1.906 -0.3132  0.8686 -0.2558
    1BTD    C4635163   3.832   1.849   1.886  0.4364  0.1326 -0.1930
    1BTD    C4735164   3.986   1.570   1.931 -0.3503 -0.2366 -0.1273
    1BTD    C4835165   4.021   1.424   1.893 -0.0248  0.0131 -0.2899
    1BTD    C4935166   3.986   1.382   1.751 -0.5824 -0.0911 -0.3975
    1BTD    C5035167   3.846   1.388   1.701 -0.8806  0.6999 -0.0700
    1BTD    C7535168   4.284   1.896   2.099 -0.6224  0.7964  0.2470
    1BTD    C7635169   4.221   1.821   2.219 -0.1094 -0.6846 -0.0079
    1BTD    C7735170   4.092   1.887   2.274 -0.6730  0.1587  0.1585
    1BTD    C7835171   4.094   2.038   2.314  0.3416  0.3970  0.2968
    1BTD    C7935172   4.219   1.667   2.207 -0.0215 -0.7594 -0.0434
    1BTD    C8035173   4.150   1.590   2.319  0.4705 -0.0085  0.0351
    1BTD    C8135174   4.141   1.445   2.295  0.5433  0.3968 -0.4539
    1BTD    C8235175   4.058   1.373   2.397  1.0146 -0.5325  0.2951
    2TTP     S135176   4.340   1.855   1.387  0.0420  0.0208 -0.1029
    2TTP     S535177   3.955   1.743   1.543  0.1243 -0.2269 -0.0766
    2TTP     C135178   3.943   1.753   1.362  0.0112  0.1278 -0.0525
    2TTP     C235179   4.061   1.788   1.303 -0.0209  0.2252 -0.0593
    2TTP     C335180   4.165   1.809   1.399  0.0427  0.0232 -0.0836
    2TTP     C435181   4.351   1.846   1.568  0.1551 -0.3339 -0.1269
    2TTP    C1735182   4.233   1.811   1.627  0.1871 -0.4313 -0.1202
    2TTP    C1835183   4.129   1.790   1.531  0.1237 -0.2293 -0.0958
    2TTP    C3235184   4.099   1.814   1.157  0.5802 -0.1566  0.3104
    2TTP    C3335185   4.137   1.963   1.129 -0.8581 -0.1949  0.4666
    2TTP    C3435186   4.180   2.003   0.982 -0.2379 -0.2079 -0.1628
    2TTP    C3535187   4.298   1.920   0.913  0.4593  0.0743 -0.6135
    2TTP    C3635188   4.345   1.991   0.790  0.4767 -0.7140  0.1264
    2TTP    C3735189   4.475   1.938   0.732 -0.2878  0.1290 -0.0556
    2TTP    C3835190   4.594   1.997   0.803 -0.3310  0.2907 -0.0869
    2TTP    C3935191   4.729   1.945   0.744  0.2263  0.4537 -0.9970
    2TTP    C4035192   4.844   1.976   0.839 -0.1976 -0.1087  0.2629
    2TTP    C4135193   4.977   1.937   0.782  0.5016 -0.5271  0.3364
    2TTP    C4235194   5.062   1.926   0.899  0.1628 -0.6001 -0.3848
    3TTP     S135195   4.782   1.979   2.152 -0.1351 -0.0369  0.2249
    3TTP     S535196   4.479   1.836   2.421 -0.1979  0.1832  0.2708
    3TTP     C135197   4.626   1.881   2.518 -0.2303  0.2887  0.2715
    3TTP     C235198   4.729   1.928   2.441 -0.2129  0.2270  0.2573
    3TTP     C335199   4.694   1.930   2.302 -0.1732  0.0941  0.2455
    3TTP     C435200   4.635   1.934   2.055 -0.1026 -0.1424  0.2242
    3TTP    C1735201   4.533   1.887   2.132 -0.1201 -0.0806  0.2384
    3TTP    C1835202   4.567   1.885   2.271 -0.1597  0.0522  0.2502
    3TTP    C3235203   4.872   1.973   2.480  0.3301  0.9488  0.1190
    3TTP    C3335204   4.875   2.110   2.551  0.2957  0.3664 -0.1829
    3TTP    C3435205   4.834   2.242   2.477  0.0573  0.5127 -0.6375
    3TTP    C3535206   4.899   2.253   2.342 -0.5831  0.9571  0.1580
    3TTP    C3635207   4.859   2.374   2.272  0.4835 -0.0475  0.3667
    3TTP    C3735208   4.903   2.389   2.126 -0.0606 -0.3760 -0.7649
    3TTP    C3835209   4.834   2.502   2.059  0.0070 -0.4148  0.3029
    3TTP    C3935210   4.833   2.489   1.909 -0.0279 -0.4428  0.9047
    3TTP    C4035211   4.726   2.577   1.832  0.4802  0.3352 -0.6677
    3TTP    C4135212   4.776   2.718   1.822 -0.0700  0.4800 -0.1129
    3TTP    C4235213   4.675   2.817   1.766 -0.1267  0.3846  0.3911
    4BIM     F135214   3.194   1.464   1.543  0.1746 -0.4150 -0.2736
    4BIM     F235215   3.134   1.470   1.278  0.1395  0.2201 -0.2540
    4BIM     O135216   3.703   1.648   1.537  0.1690 -0.3861  0.1001
    4BIM     N535217   3.410   1.610   0.892  0.0854  1.1536  0.0403
    4BIM     N635218   3.820   1.752   0.941  0.0882  1.0481  0.3284
    4BIM    C1935219   3.827   1.719   1.282  0.1337  0.2308  0.2514
    4BIM    C2035220   3.701   1.673   1.294  0.1365  0.1987  0.1566
    4BIM    C2135221   3.644   1.638   1.428  0.1550 -0.1266  0.0831
    4BIM    C2235222   3.506   1.591   1.405  0.1532 -0.0752 -0.0120
    4BIM    C2335223   3.414   1.548   1.500  0.1668 -0.3059 -0.1021
    4BIM    C2435224   3.290   1.508   1.455  0.1618 -0.1996 -0.1822
    4BIM    C2535225   3.259   1.511   1.318  0.1438  0.1276 -0.1720
    4BIM    C2635226   3.350   1.554   1.222  0.1303  0.3591 -0.0824
    4BIM    C2735227   3.477   1.595   1.267  0.1349  0.2561 -0.0004
    4BIM    C2835228   3.595   1.645   1.193  0.1240  0.4375  0.1037
    4BIM    C2935229   3.605   1.663   1.057  0.1057  0.7643  0.1433
    4BIM    C3035230   3.498   1.634   0.967  0.0947  0.9772  0.0866
    4BIM    C3135231   3.724   1.712   0.994  0.0962  0.9185  0.2449
    5BIM     F135232   4.096   1.719   3.121 -0.0898  0.3850  0.2008
    5BIM     F235233   4.306   1.694   3.292  0.0128 -0.1548 -0.0014
    5BIM     O135234   4.353   1.844   2.661 -0.2629  0.4280  0.1155
    5BIM     N535235   4.791   1.746   3.210  0.0364 -0.9000 -0.3529
    5BIM     N635236   4.950   1.849   2.817 -0.1196 -0.7575 -0.3788
    5BIM    C1935237   4.645   1.864   2.661 -0.2265 -0.0723 -0.1079
    5BIM    C2035238   4.572   1.834   2.770 -0.1872 -0.0621 -0.0786
    5BIM    C2135239   4.422   1.825   2.762 -0.2092  0.2029  0.0380
    5BIM    C2235240   4.375   1.791   2.897 -0.1546  0.1417  0.0414
    5BIM    C2335241   4.244   1.772   2.939 -0.1523  0.3228  0.1317
    5BIM    C2435242   4.223   1.739   3.072 -0.0955  0.2173  0.1150
    5BIM    C2535243   4.332   1.726   3.160 -0.0426 -0.0608  0.0107
    5BIM    C2635244   4.463   1.745   3.119 -0.0447 -0.2426 -0.0798
    5BIM    C2735245   4.486   1.778   2.985 -0.1019 -0.1397 -0.0645
    5BIM    C2835246   4.611   1.804   2.910 -0.1198 -0.2759 -0.1424
    5BIM    C2935247   4.739   1.801   2.961 -0.0812 -0.5482 -0.2524
    5BIM    C3035248   4.767   1.771   3.098 -0.0166 -0.7407 -0.3073
    5BIM    C3135249   4.854   1.827   2.881 -0.1024 -0.6618 -0.3213
    1BTD     S235250   3.951   6.910   4.783  0.1891 -0.2445 -0.0300
    1BTD     N135251   3.784   6.848   4.807  0.2092 -0.3206 -0.0888
    1BTD     N235252   3.899   7.081   4.757  0.1205 -0.2689 -0.0517
    1BTD     N335253   3.492   7.314   4.747  0.0169 -0.4551 -0.2028
    1BTD     N435254   3.350   7.027   4.808  0.1264 -0.5188 -0.2487
    1BTD     C535255   3.559   6.945   4.807  0.1645 -0.4234 -0.1718
    1BTD     C635256   3.702   6.951   4.795  0.1659 -0.3580 -0.1203
    1BTD     C735257   3.767   7.082   4.767  0.1163 -0.3291 -0.0994
    1BTD     C835258   3.685   7.199   4.753  0.0677 -0.3669 -0.1311
    1BTD    C1535259   3.545   7.188   4.765  0.0683 -0.4306 -0.1813
    1BTD    C1635260   3.483   7.062   4.792  0.1161 -0.4584 -0.2014
    1BTD    C4335261   3.235   7.101   4.863  0.0537 -0.2212  0.1192
    1BTD    C4435262   3.201   7.090   5.011 -0.2872  0.2547  0.2373
    1BTD    C4535263   3.062   7.141   5.042 -0.0091 -0.0934 -1.3897
    1BTD    C4635264   2.942   7.105   4.963 -0.2532 -0.4747 -0.3783
    1BTD    C4735265   3.312   7.139   5.102  0.6394  0.5563 -0.3761
    1BTD    C4835266   3.358   7.283   5.076 -0.0462  0.0915 -0.2164
    1BTD    C4935267   3.461   7.336   5.186  0.0276  0.2162 -0.0627
    1BTD    C5035268   3.499   7.484   5.181  0.5183  0.2739  0.2795
    1BTD    C7535269   3.353   7.372   4.719 -0.0745  0.2433 -0.1490
    1BTD    C7635270   3.287   7.342   4.577 -0.4544 -0.1135 -0.8220
    1BTD    C7735271   3.365   7.397   4.456  0.0798 -0.5495  0.5940
    1BTD    C7835272   3.399   7.546   4.447  0.1196  0.2736  0.3967
    1BTD    C7935273   3.138   7.368   4.589 -0.3513  0.3104  0.0199
    1BTD    C8035274   3.040   7.343   4.467 -0.1471 -0.2903 -0.0834
    1BTD    C8135275   3.029   7.199   4.405 -0.3404 -0.1906  0.1562
    1BTD    C8235276   2.965   7.099   4.502 -0.3213 -0.0060  0.6853
    2TTP     S135277   3.464   6.652   4.835  0.0290 -0.2847 -0.2846
    2TTP     S535278   3.057   6.791   4.810  0.1769  0.2192  0.0656
    2TTP     C135279   3.057   6.609   4.811 -0.0262  0.2164 -0.2801
    2TTP     C235280   3.182   6.555   4.819 -0.0840  0.0604 -0.4086
    2TTP     C335281   3.283   6.656   4.825  0.0303 -0.0621 -0.2385
    2TTP     C435282   3.464   6.834   4.834  0.2322 -0.2817  0.0612
    2TTP    C1735283   3.339   6.888   4.827  0.2898 -0.1259  0.1897
    2TTP    C1835284   3.238   6.787   4.821  0.1756 -0.0033  0.0197
    2TTP    C3235285   3.225   6.414   4.834  0.1401 -0.1409 -0.7916
    2TTP    C3335286   3.251   6.331   4.711 -0.2506 -0.2899 -0.7539
    2TTP    C3435287   3.274   6.184   4.749 -0.5973  0.5616 -0.0317
    2TTP    C3535288   3.264   6.097   4.621  0.8338 -0.5719 -0.5364
    2TTP    C3635289   3.276   5.940   4.636  0.0634  0.4035  0.4935
    2TTP    C3735290   3.197   5.875   4.748  0.3928 -0.3481  0.3605
    2TTP    C3835291   3.046   5.892   4.742  0.3341 -0.1938 -0.4350
    2TTP    C3935292   2.976   5.883   4.880 -0.1191  0.0875 -0.4706
    2TTP    C4035293   2.831   5.919   4.866  0.2359  0.3855 -0.6359
    2TTP    C4135294   2.762   5.924   5.005 -0.4514  0.3516 -0.0673
    2TTP    C4235295   2.641   6.018   4.997  0.0094  0.1464  0.2053
    3TTP     S135296   3.858   7.450   4.766 -0.0208 -0.1314  0.0933
    3TTP     S535297   3.501   7.689   4.788 -0.0566 -0.1677 -0.0936
    3TTP     C135298   3.645   7.798   4.804 -0.0708 -0.1199 -0.2841
    3TTP     C235299   3.764   7.731   4.798 -0.0606 -0.1059 -0.2376
    3TTP     C335300   3.745   7.591   4.781 -0.0412 -0.1324 -0.0498
    3TTP     C435301   3.714   7.340   4.749 -0.0065 -0.1794  0.2838
    3TTP    C1735302   3.595   7.407   4.755 -0.0167 -0.1934  0.2372
    3TTP    C1835303   3.614   7.548   4.773 -0.0362 -0.1668  0.0497
    3TTP    C3235304   3.908   7.793   4.805  0.4094  0.4880 -0.1337
    3TTP    C3335305   3.981   7.776   4.933  0.1955 -0.0397 -1.2247
    3TTP    C3435306   4.121   7.832   4.952  0.6667 -0.2975  0.1406
    3TTP    C3535307   4.182   7.805   5.086 -0.1867  0.5822 -0.9220
    3TTP    C3635308   4.279   7.916   5.135 -0.2869 -0.1973 -0.2490
    3TTP    C3735309   4.210   8.050   5.170  0.3557  0.5921  0.9280
    3TTP    C3835310   4.275   8.180   5.194 -0.4910 -0.1355 -0.4320
    3TTP    C3935311   4.415   8.169   5.258 -0.2026 -0.0552  0.1609
    3TTP    C4035312   4.493   8.297   5.274  0.0085  0.3951 -0.2980
    3TTP    C4135313   4.632   8.271   5.334 -0.0858  0.1621 -0.5725
    3TTP    C4235314   4.712   8.388   5.378 -0.0683 -0.2078  0.5816
    4BIM     F135315   2.264   6.741   4.967 -0.0954 -0.1413 -0.2499
    4BIM     F235316   2.208   6.501   4.851  0.0770 -0.2362 -0.1389
    4BIM     O135317   2.804   6.751   4.922 -0.0910  0.1614 -0.1262
    4BIM     N535318   2.511   6.164   4.653  0.3281 -0.1569  0.1087
    4BIM     N635319   2.944   6.221   4.642  0.2968  0.0987  0.1829
    4BIM    C1935320   2.941   6.526   4.796  0.0754  0.1783  0.0237
    4BIM    C2035321   2.808   6.533   4.812  0.0675  0.1059 -0.0118
    4BIM    C2135322   2.744   6.652   4.878 -0.0204  0.1020 -0.0888
    4BIM    C2235323   2.599   6.627   4.879 -0.0054  0.0147 -0.1105
    4BIM    C2335324   2.499   6.709   4.929 -0.0674 -0.0191 -0.1771
    4BIM    C2435325   2.368   6.664   4.919 -0.0377 -0.1038 -0.1853
    4BIM    C2535326   2.339   6.541   4.859  0.0511 -0.1525 -0.1279
    4BIM    C2635327   2.439   6.458   4.808  0.1133 -0.1192 -0.0614
    4BIM    C2735328   2.572   6.502   4.818  0.0845 -0.0335 -0.0522
    4BIM    C2835329   2.699   6.439   4.775  0.1329  0.0205  0.0108
    4BIM    C2935330   2.713   6.318   4.712  0.2214 -0.0041  0.0774
    4BIM    C3035331   2.602   6.233   4.680  0.2797 -0.0881  0.0943
    4BIM    C3135332   2.840   6.265   4.674  0.2623  0.0526  0.1349
    5BIM     F135333   3.097   8.374   4.613  0.0931 -0.2372  0.1844
    5BIM     F235334   3.251   8.557   4.741  0.1687 -0.1006 -0.0994
    5BIM     O135335   3.398   7.928   4.671  0.1721 -0.1554  0.3989
    5BIM     N535336   3.687   8.503   4.968  0.3337  0.1535 -0.3548
    5BIM     N635337   3.892   8.118   4.988  0.3802  0.1898 -0.1297
    5BIM    C1935338   3.652   7.945   4.815  0.2724  0.0040  0.2039
    5BIM    C2035339   3.570   8.050   4.795  0.2496 -0.0219  0.1611
    5BIM    C2135340   3.441   8.033   4.720  0.1980 -0.1047  0.2676
    5BIM    C2235341   3.377   8.166   4.717  0.1845 -0.1132  0.1857
    5BIM    C2335342   3.256   8.200   4.659  0.1402 -0.1795  0.2381
    5BIM    C2435343   3.216   8.333   4.668  0.1360 -0.1736  0.1399
    5BIM    C2535344   3.295   8.427   4.735  0.1749 -0.1032 -0.0066
    5BIM    C2635345   3.417   8.393   4.793  0.2192 -0.0370 -0.0596
    5BIM    C2735346   3.459   8.260   4.785  0.2242 -0.0417  0.0385
    5BIM    C2835347   3.581   8.192   4.835  0.2658  0.0172  0.0176
    5BIM    C2935348   3.683   8.251   4.906  0.3107  0.0932 -0.1104
    5BIM    C3035349   3.685   8.389   4.940  0.3232  0.1261 -0.2443
    5BIM    C3135350   3.797   8.177   4.951  0.3486  0.1459 -0.1203
    1BTD     S235351   4.158   6.613   7.124 -0.2804  0.0132  0.0366
    1BTD     N135352   4.257   6.758   7.166 -0.1605  0.0347 -0.3092
    1BTD     N235353   4.005   6.705   7.107 -0.3154  0.0148  0.3544
    1BTD     N335354   3.869   7.152   7.149 -0.1699  0.0570  0.3772
    1BTD     N435355   4.180   7.217   7.222  0.0210  0.0813 -0.4402
    1BTD     C535356   4.213   6.997   7.194 -0.0681  0.0585 -0.3678
    1BTD     C635357   4.174   6.861   7.165 -0.1528  0.0416 -0.1768
    1BTD     C735358   4.033   6.832   7.132 -0.2397  0.0305  0.1945
    1BTD     C835359   3.937   6.939   7.130 -0.2371  0.0372  0.3563
    1BTD    C1535360   3.980   7.070   7.159 -0.1524  0.0540  0.1594
    1BTD    C1635361   4.116   7.099   7.191 -0.0688  0.0647 -0.1986
    1BTD    C4335362   4.157   7.347   7.156 -0.1837 -0.5599  0.1213
    1BTD    C4435363   4.186   7.493   7.204  0.1982  0.4326 -0.3123
    1BTD    C4535364   4.125   7.546   7.336  0.3319  0.0214  0.5189
    1BTD    C4635365   4.135   7.470   7.462  0.5555  0.2331 -0.7793
    1BTD    C4735366   4.189   7.601   7.101  0.7517 -0.3683 -0.1082
    1BTD    C4835367   4.294   7.707   7.126  0.2753 -0.4640 -0.4002
    1BTD    C4935368   4.243   7.851   7.108  0.4101  0.0816  0.7128
    1BTD    C5035369   4.347   7.952   7.157 -0.0958 -0.8775  0.5635
    1BTD    C7535370   3.859   7.286   7.211 -0.2903 -0.2580  0.1651
    1BTD    C7635371   3.759   7.399   7.175 -0.3978  0.1215  0.2756
    1BTD    C7735372   3.772   7.464   7.035  0.7592  0.6913  0.7402
    1BTD    C7835373   3.787   7.369   6.917  0.3899  0.3452  0.0103
    1BTD    C7935374   3.740   7.510   7.288 -0.4750  0.8127 -0.0019
    1BTD    C8035375   3.619   7.603   7.273  1.3197  0.5464 -0.1182
    1BTD    C8135376   3.603   7.690   7.400  0.8751  0.2717 -0.1435
    1BTD    C8235377   3.457   7.755   7.414 -0.0456  0.1300 -0.3192
    2TTP     S135378   4.510   7.010   7.251  0.1130  0.2614 -0.1521
    2TTP     S535379   4.475   7.430   7.337  0.2831  0.2789 -0.1661
    2TTP     C135380   4.648   7.381   7.360  0.2332  0.1757 -0.0119
    2TTP     C235381   4.669   7.248   7.335  0.1776  0.1646  0.0015
    2TTP     C335382   4.549   7.181   7.297  0.1726  0.2365 -0.1096
    2TTP     C435383   4.337   7.060   7.228  0.1628  0.3647 -0.3062
    2TTP    C1735384   4.315   7.192   7.253  0.2183  0.3759 -0.3198
    2TTP    C1835385   4.435   7.260   7.291  0.2234  0.3036 -0.2086
    2TTP    C3235386   4.801   7.166   7.318  0.5708  0.0029 -0.3881
    2TTP    C3335387   4.830   7.068   7.433 -0.0432 -0.0987  0.3751
    2TTP    C3435388   4.940   6.969   7.407 -0.1363 -0.3766 -0.1360
    2TTP    C3535389   4.959   6.883   7.528  0.4232 -0.2591 -0.0588
    2TTP    C3635390   5.061   6.768   7.509 -0.3473  0.0872 -0.0469
    2TTP    C3735391   5.036   6.657   7.612  0.4950 -0.4215  0.5082
    2TTP    C3835392   5.113   6.524   7.605  1.1863 -1.1552 -0.3513
    2TTP    C3935393   5.061   6.434   7.720  1.1384 -0.4968 -0.6829
    2TTP    C4035394   5.083   6.485   7.864  0.0445  0.0793  0.4786
    2TTP    C4135395   4.993   6.411   7.964 -0.2861  0.2447 -0.3241
    2TTP    C4235396   5.004   6.459   8.114 -0.3950 -0.1677 -0.1541
    3TTP     S135397   3.661   6.830   7.066 -0.2956  0.0809  0.1101
    3TTP     S535398   3.496   7.218   7.153 -0.1919  0.0937  0.2501
    3TTP     C135399   3.360   7.107   7.106 -0.2348  0.1172  0.3189
    3TTP     C235400   3.403   6.980   7.077 -0.2694  0.1146  0.2795
    3TTP     C335401   3.545   6.967   7.090 -0.2632  0.0939  0.1940
    3TTP     C435402   3.797   6.942   7.113 -0.2528  0.0576  0.0414
    3TTP    C1735403   3.754   7.068   7.142 -0.2182  0.0601  0.0806
    3TTP    C1835404   3.612   7.081   7.129 -0.2243  0.0806  0.1664
    3TTP    C3235405   3.313   6.864   7.026  0.2759 -0.1926 -0.1358
    3TTP    C3335406   3.306   6.855   6.873 -0.4019 -0.8410 -0.5863
    3TTP    C3435407   3.240   6.744   6.805  0.4618  0.4938  0.1363
    3TTP    C3535408   3.235   6.763   6.652  0.6402  0.7324 -0.0352
    3TTP    C3635409   3.119   6.693   6.575  0.0941 -0.0653 -0.0821
    3TTP    C3735410   2.974   6.719   6.620  0.3965  0.6095 -0.4419
    3TTP    C3835411   2.868   6.643   6.536  0.0808 -0.3483 -0.5945
    3TTP    C3935412   2.713   6.648   6.575 -0.2173  0.2345  0.3137
    3TTP    C4035413   2.616   6.566   6.497 -0.2265  0.0637  0.1452
    3TTP    C4135414   2.472   6.601   6.521 -0.0943  0.3283  0.0009
    3TTP    C4235415   2.374   6.521   6.433  0.4793  0.3781  0.4976
    4BIM     F135416   4.798   8.185   7.358  0.0936  0.1855  0.5254
    4BIM     F235417   5.007   8.140   7.526  0.5851 -0.1359 -0.1631
    4BIM     O135418   4.621   7.679   7.277 -0.5479  0.3982  0.5906
    4BIM     N535419   5.182   7.715   7.710  0.8345 -0.4472 -1.1063
    4BIM     N635420   5.002   7.329   7.613  0.2340 -0.2164 -0.9166
    4BIM    C1935421   4.758   7.457   7.409 -0.3063  0.1661 -0.0438
    4BIM    C2035422   4.794   7.586   7.423 -0.1642  0.1253 -0.0334
    4BIM    C2135423   4.719   7.694   7.352 -0.3028  0.2514  0.3029
    4BIM    C2235424   4.784   7.822   7.388 -0.0906  0.1665  0.2221
    4BIM    C2335425   4.750   7.950   7.347 -0.1215  0.2328  0.4508
    4BIM    C2435426   4.826   8.055   7.395  0.1094  0.1284  0.3139
    4BIM    C2535427   4.934   8.032   7.481  0.3624 -0.0374 -0.0410
    4BIM    C2635428   4.969   7.904   7.523  0.3947 -0.1045 -0.2704
    4BIM    C2735429   4.893   7.796   7.476  0.1632 -0.0006 -0.1367
    4BIM    C2835430   4.903   7.650   7.500  0.1283 -0.0323 -0.3079
    4BIM    C2935431   4.996   7.587   7.580  0.3284 -0.1800 -0.6545
    4BIM    C3035432   5.098   7.658   7.651  0.6059 -0.3262 -0.9018
    4BIM    C3135433   4.999   7.446   7.598  0.2753 -0.1991 -0.7967
    5BIM     F135434   2.932   7.800   7.230 -0.0081 -0.0519  0.1023
    5BIM     F235435   2.703   7.657   7.194 -0.0119 -0.0041 -0.0633
    5BIM     O135436   3.305   7.413   7.165 -0.0308 -0.0606  0.0219
    5BIM     N535437   2.640   7.177   7.095 -0.0336  0.0588 -0.3585
    5BIM     N635438   2.978   6.903   7.051 -0.0506  0.0424 -0.3879
    5BIM    C1935439   3.219   7.140   7.107 -0.0426 -0.0175 -0.1647
    5BIM    C2035440   3.134   7.243   7.125 -0.0367 -0.0175 -0.1380
    5BIM    C2135441   3.186   7.380   7.154 -0.0309 -0.0402 -0.0408
    5BIM    C2235442   3.068   7.468   7.168 -0.0253 -0.0335 -0.0353
    5BIM    C2335443   3.066   7.604   7.195 -0.0190 -0.0485  0.0410
    5BIM    C2435444   2.941   7.665   7.203 -0.0145 -0.0383  0.0296
    5BIM    C2535445   2.824   7.592   7.185 -0.0165 -0.0135 -0.0557
    5BIM    C2635446   2.825   7.455   7.157 -0.0229  0.0017 -0.1323
    5BIM    C2735447   2.950   7.392   7.149 -0.0275 -0.0085 -0.1220
    5BIM    C2835448   2.986   7.250   7.121 -0.0346  0.0024 -0.1885
    5BIM    C2935449   2.899   7.147   7.098 -0.0382  0.0262 -0.2795
    5BIM    C3035450   2.757   7.164   7.096 -0.0356  0.0440 -0.3226
    5BIM    C3135451   2.943   7.013   7.072 -0.0451  0.0350 -0.3386
    1BTD     S235452   5.785   8.831   2.198  0.2036 -0.0645 -0.0723
    1BTD     N135453   5.656   8.928   2.120  0.3663  0.0024 -0.2605
    1BTD     N235454   5.727   8.674   2.132  0.0472 -0.0720  0.0833
    1BTD     N335455   5.374   8.531   1.857  0.0223  0.0336  0.0603
    1BTD     N435456   5.287   8.844   1.843  0.4156  0.1254 -0.3632
    1BTD     C535457   5.464   8.881   1.976  0.3872  0.0658 -0.3091
    1BTD     C635458   5.580   8.843   2.053  0.2992  0.0150 -0.2008
    1BTD     C735459   5.620   8.701   2.059  0.1205 -0.0265 -0.0084
    1BTD     C835460   5.542   8.603   1.989  0.0387 -0.0157  0.0662
    1BTD    C1535461   5.429   8.644   1.914  0.1301  0.0341 -0.0449
    1BTD    C1635462   5.391   8.781   1.908  0.3023  0.0742 -0.2303
    1BTD    C4335463   5.147   8.795   1.834 -0.2618 -0.0205  0.1770
    1BTD    C4435464   5.033   8.836   1.739  0.1578 -0.2061 -0.2871
    1BTD    C4535465   4.899   8.787   1.796  0.0099 -0.2293  0.6139
    1BTD    C4635466   4.874   8.802   1.947  0.3561  0.1421  0.2538
    1BTD    C4735467   5.065   8.802   1.593  0.1297 -0.8057  0.5565
    1BTD    C4835468   4.954   8.815   1.491  0.6065 -0.3148  0.1996
    1BTD    C4935469   5.000   8.803   1.351 -0.0534 -0.4063  0.2151
    1BTD    C5035470   4.887   8.816   1.244  0.2629 -0.0662  0.9491
    1BTD    C7535471   5.298   8.534   1.728 -0.2182 -0.6846 -0.1493
    1BTD    C7635472   5.191   8.438   1.681 -0.9459  0.3645 -0.0130
    1BTD    C7735473   5.155   8.451   1.531  0.0012 -0.6081  0.2378
    1BTD    C7835474   5.258   8.434   1.430  0.1161 -0.3917  0.4893
    1BTD    C7935475   5.066   8.438   1.772  0.1539  0.1726 -0.0557
    1BTD    C8035476   4.974   8.322   1.780  0.5431 -0.4800  1.0318
    1BTD    C8135477   4.834   8.363   1.836  0.3337  0.0569 -0.5285
    1BTD    C8235478   4.760   8.233   1.873  0.4477  0.0677 -0.1093
    2TTP     S135479   5.460   9.178   1.946  0.0095 -0.0562  0.0189
    2TTP     S535480   5.163   9.133   1.638  0.1147 -0.1566 -0.0679
    2TTP     C135481   5.220   9.306   1.640  0.0372 -0.1318 -0.0345
    2TTP     C235482   5.314   9.330   1.735  0.0002 -0.0989 -0.0057
    2TTP     C335483   5.346   9.213   1.810  0.0316 -0.0932 -0.0091
    2TTP     C435484   5.404   9.005   1.945  0.0870 -0.0811 -0.0146
    2TTP    C1735485   5.309   8.981   1.849  0.1240 -0.1138 -0.0433
    2TTP    C1835486   5.277   9.098   1.774  0.0926 -0.1202 -0.0400
    2TTP    C3235487   5.377   9.466   1.765 -0.3065 -0.0289  0.0888
    2TTP    C3335488   5.296   9.547   1.868 -0.5462 -0.6557  0.2487
    2TTP    C3435489   5.355   9.689   1.865 -0.3069  0.8198 -0.6116
    2TTP    C3535490   5.283   9.785   1.962  0.2058 -0.5458  0.1502
    2TTP    C3635491   5.325   9.923   1.930 -0.3932  0.0643 -0.5928
    2TTP    C3735492   5.265  10.037   2.014 -0.3506 -0.3958 -0.8354
    2TTP    C3835493   5.356  10.155   2.053 -0.2910 -0.8192  0.2420
    2TTP    C3935494   5.492  10.132   2.109  0.1233  0.1904  0.3372
    2TTP    C4035495   5.574  10.255   2.152 -0.2979 -0.0546  0.0868
    2TTP    C4135496   5.709  10.213   2.218  0.1391  0.4364 -0.0978
    2TTP    C4235497   5.792  10.344   2.239  0.1593  0.0516 -0.1961
    3TTP     S135498   5.671   8.332   2.014 -0.0744  0.1199 -0.1985
    3TTP     S535499   5.361   8.169   1.764 -0.3284  0.3629 -0.0431
    3TTP     C135500   5.474   8.034   1.811 -0.4877  0.2484  0.0126
    3TTP     C235501   5.576   8.077   1.891 -0.4187  0.1667 -0.0321
    3TTP     C335502   5.569   8.217   1.918 -0.2375  0.1912 -0.1119
    3TTP     C435503   5.558   8.466   1.966  0.0846  0.2344 -0.2542
    3TTP    C1735504   5.456   8.424   1.886  0.0157  0.3161 -0.2095
    3TTP    C1835505   5.463   8.284   1.859 -0.1655  0.2913 -0.1296
    3TTP    C3235506   5.682   7.996   1.961 -0.2450 -0.0574 -0.0989
    3TTP    C3335507   5.646   7.961   2.113 -0.0728 -0.8352 -0.1249
    3TTP    C3435508   5.771   7.900   2.175 -0.3112  0.3002 -0.4075
    3TTP    C3535509   5.822   7.766   2.112  0.7038  0.2597  0.1228
    3TTP    C3635510   5.925   7.686   2.186 -0.2823  0.0287 -0.1634
    3TTP    C3735511   5.874   7.619   2.312 -0.1978  0.8490 -0.7394
    3TTP    C3835512   5.778   7.494   2.287 -0.1338  0.1975  0.0401
    3TTP    C3935513   5.722   7.426   2.420 -0.0858  0.0310  0.7236
    3TTP    C4035514   5.640   7.509   2.517  0.3580 -0.4166 -0.1545
    3TTP    C4135515   5.581   7.444   2.642  0.1702  0.6168  0.5219
    3TTP    C4235516   5.466   7.362   2.597  0.6489 -0.1568  0.1850
    4BIM     F135517   4.577   9.368   1.129  0.0303  0.0746  0.0702
    4BIM     F235518   4.680   9.602   1.037  0.1988 -0.0279 -0.0032
    4BIM     O135519   4.944   9.235   1.505 -0.1357 -0.0033  0.2045
    4BIM     N535520   5.090   9.845   1.173  0.3228 -0.2313 -0.0128
    4BIM     N635521   5.355   9.694   1.486  0.1591 -0.2713  0.1069
    4BIM    C1935522   5.172   9.412   1.551 -0.0336 -0.1292  0.1822
    4BIM    C2035523   5.076   9.437   1.460  0.0015 -0.1054  0.1513
    4BIM    C2135524   4.962   9.341   1.442 -0.0551 -0.0403  0.1653
    4BIM    C2235525   4.876   9.397   1.336  0.0036 -0.0296  0.1237
    4BIM    C2335526   4.758   9.344   1.285 -0.0192  0.0241  0.1197
    4BIM    C2435527   4.694   9.415   1.184  0.0480  0.0232  0.0766
    4BIM    C2535528   4.748   9.536   1.137  0.1348 -0.0298  0.0388
    4BIM    C2635529   4.865   9.589   1.188  0.1577 -0.0832  0.0426
    4BIM    C2735530   4.931   9.519   1.290  0.0907 -0.0834  0.0859
    4BIM    C2835531   5.056   9.548   1.364  0.0930 -0.1326  0.1014
    4BIM    C2935532   5.138   9.657   1.347  0.1659 -0.1907  0.0747
    4BIM    C3035533   5.111   9.760   1.251  0.2521 -0.2129  0.0267
    4BIM    C3135534   5.257   9.677   1.423  0.1618 -0.2353  0.0925
    5BIM     F135535   4.918   7.505   1.514 -0.0153  0.1340 -0.4680
    5BIM     F235536   5.122   7.331   1.470 -0.0806 -0.0812  0.0701
    5BIM     O135537   5.184   7.920   1.739 -0.0726  0.1332 -0.3982
    5BIM     N535538   5.605   7.375   1.568 -0.2151 -0.3917  0.8934
    5BIM     N635539   5.772   7.734   1.753 -0.2466 -0.3490  0.8395
    5BIM    C1935540   5.473   7.900   1.778 -0.1552 -0.0731  0.1406
    5BIM    C2035541   5.398   7.803   1.723 -0.1383 -0.0643  0.1020
    5BIM    C2135542   5.250   7.820   1.706 -0.0956  0.0445 -0.1813
    5BIM    C2235543   5.200   7.696   1.644 -0.0867  0.0248 -0.1496
    5BIM    C2335544   5.069   7.666   1.609 -0.0510  0.1011 -0.3552
    5BIM    C2435545   5.045   7.542   1.551 -0.0497  0.0630 -0.2752
    5BIM    C2535546   5.151   7.452   1.528 -0.0833 -0.0477  0.0021
    5BIM    C2635547   5.282   7.482   1.563 -0.1191 -0.1245  0.2083
    5BIM    C2735548   5.308   7.607   1.622 -0.1210 -0.0876  0.1314
    5BIM    C2835549   5.434   7.669   1.669 -0.1539 -0.1466  0.2970
    5BIM    C2935550   5.559   7.612   1.665 -0.1919 -0.2567  0.5775
    5BIM    C3035551   5.584   7.482   1.611 -0.2046 -0.3306  0.7502
    5BIM    C3135552   5.675   7.680   1.713 -0.2218 -0.3068  0.7200
    1BTD     S235553   6.698   4.009   1.109  0.1746  0.0410 -0.1241
    1BTD     N135554   6.701   3.830   1.094 -0.0969  0.0072  0.1839
    1BTD     N235555   6.599   4.035   0.961  0.3744 -0.0508 -0.2736
    1BTD     N335556   6.405   3.765   0.630  0.2915 -0.2993 -0.0222
    1BTD     N435557   6.530   3.512   0.794 -0.2894 -0.2280  0.5415
    1BTD     C535558   6.610   3.667   0.935 -0.1905 -0.1163  0.3638
    1BTD     C635559   6.632   3.800   0.984 -0.0284 -0.0671  0.1606
    1BTD     C735560   6.575   3.915   0.910  0.2357 -0.0995 -0.0955
    1BTD     C835561   6.499   3.891   0.791  0.3241 -0.1796 -0.1355
    1BTD    C1535562   6.480   3.759   0.746  0.1586 -0.2259  0.0690
    1BTD    C1635563   6.535   3.648   0.818 -0.0956 -0.1946  0.3158
    1BTD    C4335564   6.408   3.435   0.754  0.1288  0.0913  0.4086
    1BTD    C4435565   6.413   3.298   0.689  0.3319  0.0830 -0.3057
    1BTD    C4535566   6.470   3.289   0.545  0.0924 -0.0697 -0.0386
    1BTD    C4635567   6.618   3.322   0.522 -0.2311  0.3942 -0.6045
    1BTD    C4735568   6.275   3.241   0.710 -0.0836 -0.3101  0.0458
    1BTD    C4835569   6.250   3.094   0.666 -0.5401 -0.0495  0.1154
    1BTD    C4935570   6.331   2.993   0.751 -0.1121 -0.6285 -0.3667
    1BTD    C5035571   6.284   2.959   0.890  0.4243  0.4129 -0.4858
    1BTD    C7535572   6.379   3.653   0.537 -0.3611 -0.2658  0.6066
    1BTD    C7635573   6.261   3.643   0.439 -0.3052  0.7926  0.6771
    1BTD    C7735574   6.128   3.650   0.520 -0.0595  0.4587  0.5107
    1BTD    C7835575   6.087   3.519   0.593  0.3863 -0.5168 -0.1038
    1BTD    C7935576   6.262   3.532   0.324  0.1371 -0.0284 -0.2695
    1BTD    C8035577   6.390   3.517   0.247 -0.2651 -0.2999  0.0431
    1BTD    C8135578   6.408   3.386   0.184  0.5497  0.9247 -0.3828
    1BTD    C8235579   6.536   3.377   0.095  0.4746 -0.0727 -0.8588
    2TTP     S135580   6.753   3.477   1.111 -0.1779  0.1845  0.0848
    2TTP     S535581   6.665   3.155   0.840  0.2112 -0.1838  0.3914
    2TTP     C135582   6.778   3.093   0.968  0.1597  0.0333  0.5429
    2TTP     C235583   6.812   3.189   1.059  0.0366  0.1598  0.4572
    2TTP     C335584   6.750   3.315   1.031 -0.0216  0.0899  0.2687
    2TTP     C435585   6.640   3.539   0.983 -0.1265 -0.0327 -0.0668
    2TTP    C1735586   6.606   3.443   0.892 -0.0031 -0.1591  0.0190
    2TTP    C1835587   6.668   3.317   0.920  0.0550 -0.0892  0.2075
    2TTP    C3235588   6.895   3.184   1.186  0.6796 -0.6805 -0.3690
    2TTP    C3335589   7.046   3.207   1.172 -0.3886  0.6574  0.1542
    2TTP    C3435590   7.085   3.342   1.110  0.5745  0.5442 -0.0882
    2TTP    C3535591   7.235   3.358   1.094 -0.1618 -0.3113  0.5836
    2TTP    C3635592   7.258   3.473   0.985  0.8206  0.1748 -0.8310
    2TTP    C3735593   7.392   3.489   0.926  0.0498  0.7214  0.7347
    2TTP    C3835594   7.396   3.567   0.795  0.3009 -0.2139  0.0607
    2TTP    C3935595   7.318   3.516   0.669 -0.5735 -0.0807 -0.0542
    2TTP    C4035596   7.345   3.598   0.549  0.2352 -0.6973  0.1032
    2TTP    C4135597   7.285   3.553   0.415 -0.1998  0.1424  0.0433
    2TTP    C4235598   7.274   3.661   0.313  0.2787 -1.0557 -0.4654
    3TTP     S135599   6.429   4.155   0.662  0.1200  0.1620  0.0458
    3TTP     S535600   6.254   3.938   0.334  0.2489 -0.2172  0.2276
    3TTP     C135601   6.249   4.116   0.295  0.5249 -0.2800 -0.1079
    3TTP     C235602   6.302   4.193   0.394  0.5015 -0.1667 -0.1838
    3TTP     C335603   6.350   4.115   0.504  0.2644 -0.0260  0.0203
    3TTP     C435604   6.435   3.978   0.701 -0.1562  0.2248  0.3814
    3TTP    C1735605   6.381   3.900   0.602 -0.1326  0.1115  0.4572
    3TTP    C1835606   6.333   3.978   0.492  0.1042 -0.0291  0.2531
    3TTP    C3235607   6.322   4.348   0.391 -0.0868 -0.0725 -0.1513
    3TTP    C3335608   6.463   4.403   0.373 -0.1113 -0.2595  0.5548
    3TTP    C3435609   6.473   4.554   0.395  0.0928  0.4558 -0.4201
    3TTP    C3535610   6.616   4.596   0.424 -0.2030 -0.1290 -0.3756
    3TTP    C3635611   6.640   4.718   0.505  0.5148 -0.8868 -0.4173
    3TTP    C3735612   6.591   4.857   0.472 -0.1245 -0.5836 -0.0590
    3TTP    C3835613   6.649   4.907   0.339  0.2791 -0.6934  0.1610
    3TTP    C3935614   6.605   5.050   0.320 -0.0332 -0.5644  0.2584
    3TTP    C4035615   6.672   5.114   0.204  0.3321  0.9010 -0.5115
    3TTP    C4135616   6.613   5.253   0.175 -0.1868 -0.5334  0.0515
    3TTP    C4235617   6.637   5.296   0.034 -0.0683  0.1731 -0.1288
    4BIM     F135618   6.875   2.440   0.472  0.0889 -0.0155 -0.0056
    4BIM     F235619   6.962   2.301   0.689  0.2291  0.0128 -0.0428
    4BIM     O135620   6.787   2.927   0.692 -0.0751 -0.0719  0.0535
    4BIM     N535621   7.022   2.447   1.158  0.3135  0.0132 -0.0540
    4BIM     N635622   6.936   2.855   1.286  0.1571 -0.0364 -0.0003
    4BIM    C1935623   6.838   2.967   0.977  0.0005 -0.0648  0.0391
    4BIM    C2035624   6.857   2.850   0.913  0.0364 -0.0518  0.0256
    4BIM    C2135625   6.828   2.837   0.766 -0.0064 -0.0564  0.0343
    4BIM    C2235626   6.859   2.698   0.729  0.0491 -0.0392  0.0155
    4BIM    C2335627   6.849   2.639   0.604  0.0361 -0.0367  0.0154
    4BIM    C2435628   6.884   2.505   0.593  0.0978 -0.0191 -0.0044
    4BIM    C2535629   6.928   2.433   0.705  0.1698 -0.0044 -0.0235
    4BIM    C2635630   6.939   2.491   0.831  0.1832 -0.0069 -0.0236
    4BIM    C2735631   6.904   2.627   0.844  0.1215 -0.0247 -0.0037
    4BIM    C2835632   6.904   2.717   0.961  0.1166 -0.0318  0.0019
    4BIM    C2935633   6.941   2.684   1.089  0.1750 -0.0219 -0.0125
    4BIM    C3035634   6.986   2.554   1.127  0.2511 -0.0027 -0.0352
    4BIM    C3135635   6.938   2.779   1.197  0.1650 -0.0299 -0.0056
    5BIM     F135636   5.712   3.896  -0.293  0.4338 -0.0279 -0.3040
    5BIM     F235637   5.724   4.150  -0.390 -0.5137  0.3027  0.4101
    5BIM     O135638   6.053   3.931   0.126  0.8197 -0.1232 -0.6092
    5BIM     N535639   5.984   4.540  -0.232 -1.6006  0.7100  1.2193
    5BIM     N635640   6.249   4.515   0.115 -1.1081  0.5690  0.8369
    5BIM    C1935641   6.186   4.185   0.182  0.0516  0.1589 -0.0353
    5BIM    C2035642   6.100   4.167   0.080 -0.0085  0.1699  0.0135
    5BIM    C2135643   6.035   4.033   0.058  0.4038  0.0193 -0.2948
    5BIM    C2235644   5.948   4.047  -0.060  0.2158  0.0746 -0.1495
    5BIM    C2335645   5.868   3.950  -0.119  0.4646 -0.0210 -0.3338
    5BIM    C2435646   5.793   3.987  -0.230  0.2100  0.0591 -0.1387
    5BIM    C2535647   5.800   4.118  -0.280 -0.2782  0.2294  0.2295
    5BIM    C2635648   5.880   4.216  -0.222 -0.5285  0.3256  0.4148
    5BIM    C2735649   5.955   4.180  -0.109 -0.2769  0.2468  0.2220
    5BIM    C2835650   6.049   4.259  -0.025 -0.4342  0.3121  0.3366
    5BIM    C2935651   6.082   4.391  -0.042 -0.8875  0.4735  0.6773
    5BIM    C3035652   6.028   4.472  -0.146 -1.2779  0.6030  0.9739
    5BIM    C3135653   6.174   4.459   0.045 -1.0062  0.5250  0.7631
    1BTD     S235654   3.511   8.831   6.923  0.0692 -0.0801 -0.2854
    1BTD     N135655   3.440   8.995   6.904 -0.0122 -0.0677  0.1178
    1BTD     N235656   3.679   8.890   6.945  0.0893 -0.0689 -0.4681
    1BTD     N335657   3.894   9.308   6.956 -0.0167 -0.0229 -0.1123
    1BTD     N435658   3.599   9.437   6.906 -0.1418 -0.0212  0.6094
    1BTD     C535659   3.526   9.224   6.906 -0.0784 -0.0434  0.3656
    1BTD     C635660   3.540   9.081   6.915 -0.0198 -0.0560  0.0966
    1BTD     C735661   3.674   9.023   6.937  0.0371 -0.0570 -0.2314
    1BTD     C835662   3.788   9.110   6.950  0.0326 -0.0448 -0.2736
    1BTD    C1535663   3.770   9.249   6.940 -0.0258 -0.0327 -0.0029
    1BTD    C1635664   3.640   9.306   6.919 -0.0806 -0.0322  0.3129
    1BTD    C4335665   3.666   9.554   6.957  0.2231 -0.1329  0.1904
    1BTD    C4435666   3.645   9.701   6.942  0.7546  1.0352  0.4119
    1BTD    C4535667   3.643   9.755   6.802  0.4054 -0.0948 -0.9011
    1BTD    C4635668   3.769   9.768   6.722 -0.1461 -0.5941  0.4642
    1BTD    C4735669   3.697   9.777   7.065 -0.0980  0.2077  0.4378
    1BTD    C4835670   3.655   9.922   7.080 -0.2779  1.2440 -0.0180
    1BTD    C4935671   3.507   9.969   7.097 -0.0030 -0.0068  0.7066
    1BTD    C5035672   3.404   9.899   7.187  0.1916  0.3321  0.1173
    1BTD    C7535673   3.942   9.418   6.866 -0.3755 -0.0264  0.4656
    1BTD    C7635674   4.048   9.523   6.915  0.1968  0.1262 -0.0166
    1BTD    C7735675   4.020   9.581   7.057 -0.6440 -0.0591 -0.1805
    1BTD    C7835676   4.135   9.655   7.125  0.5532  0.4985  0.1128
    1BTD    C7935677   4.103   9.622   6.810  0.4418 -0.0883 -0.0413
    1BTD    C8035678   4.137   9.568   6.673 -0.1885 -0.7201 -0.4805
    1BTD    C8135679   4.233   9.444   6.662  0.2069 -0.2124 -0.1666
    1BTD    C8235680   4.246   9.363   6.534  0.2484  0.2119 -0.0758
    2TTP     S135681   3.240   9.286   6.890  0.0546  0.0250  0.3079
    2TTP     S535682   3.320   9.708   6.888  0.1406  0.0081  0.0659
    2TTP     C135683   3.140   9.683   6.883  0.1286  0.0431  0.2816
    2TTP     C235684   3.105   9.551   6.883  0.1014  0.0505  0.3690
    2TTP     C335685   3.218   9.465   6.887  0.0889  0.0288  0.2689
    2TTP     C435686   3.420   9.311   6.895  0.0666 -0.0095  0.0923
    2TTP    C1735687   3.455   9.443   6.895  0.0938 -0.0172  0.0048
    2TTP    C1835688   3.342   9.529   6.891  0.1062  0.0048  0.1051
    2TTP    C3235689   2.962   9.487   6.889  0.1811 -0.6935 -0.2625
    2TTP    C3335690   2.915   9.437   6.756  0.0384 -0.3209 -0.1904
    2TTP    C3435691   2.773   9.373   6.765 -0.2138 -0.3734  0.8380
    2TTP    C3535692   2.719   9.321   6.630  0.2940  0.0965 -0.3421
    2TTP    C3635693   2.602   9.226   6.638  0.1202 -0.0122  0.2587
    2TTP    C3735694   2.558   9.193   6.491 -0.0346 -0.0277  0.3980
    2TTP    C3835695   2.439   9.101   6.505 -0.2737 -0.1250 -0.2303
    2TTP    C3935696   2.391   9.035   6.378  0.4168  0.4856 -0.1008
    2TTP    C4035697   2.355   9.122   6.262 -0.0766 -0.0020 -0.0821
    2TTP    C4135698   2.227   9.210   6.285  0.4300  0.0506  0.0181
    2TTP    C4235699   2.201   9.291   6.163 -0.3685 -0.2285  0.4470
    3TTP     S135700   4.039   8.952   7.018 -0.0420  0.0441 -0.0808
    3TTP     S535701   4.257   9.322   7.048  0.0693 -0.0100 -0.2156
    3TTP     C135702   4.371   9.185   7.082  0.0924 -0.0463 -0.4403
    3TTP     C235703   4.311   9.063   7.075  0.0596 -0.0324 -0.4119
    3TTP     C335704   4.172   9.073   7.042  0.0147  0.0088 -0.2117
    3TTP     C435705   3.925   9.090   6.984 -0.0654  0.0806  0.1439
    3TTP    C1735706   3.985   9.212   6.991 -0.0325  0.0664  0.1154
    3TTP    C1835707   4.124   9.202   7.024  0.0124  0.0260 -0.0848
    3TTP    C3235708   4.358   8.924   7.113  0.2452  0.1119  0.4478
    3TTP    C3335709   4.379   8.828   6.991  0.3368  0.2566  0.0326
    3TTP    C3435710   4.492   8.874   6.896 -0.3287 -0.4132 -0.2116
    3TTP    C3535711   4.543   8.790   6.782 -0.0989  0.6130 -0.1158
    3TTP    C3635712   4.438   8.758   6.675 -0.6054 -0.4673 -0.1825
    3TTP    C3735713   4.489   8.672   6.563  0.0889 -0.0750  0.0499
    3TTP    C3835714   4.567   8.545   6.592 -0.0691 -0.1730 -0.8387
    3TTP    C3935715   4.647   8.498   6.470  0.4283 -0.4526 -0.3477
    3TTP    C4035716   4.715   8.369   6.496  0.2767  0.8631  0.6150
    3TTP    C4135717   4.797   8.326   6.372  0.2211  0.5874  0.1225
    3TTP    C4235718   4.854   8.182   6.387 -0.1683  0.3390 -0.2805
    4BIM     F135719   3.149  10.486   6.707 -0.0306 -0.0688  0.1174
    4BIM     F235720   2.886  10.496   6.774 -0.2195 -0.2610 -0.5774
    4BIM     O135721   3.255   9.961   6.784  0.1907  0.0356  0.5339
    4BIM     N535722   2.582  10.136   6.926 -0.3332 -0.4629 -1.2794
    4BIM     N635723   2.718   9.723   6.972 -0.1222 -0.3426 -0.8138
    4BIM    C1935724   3.041   9.784   6.875  0.0889 -0.1109  0.0183
    4BIM    C2035725   3.025   9.915   6.853  0.0407 -0.1297 -0.0595
    4BIM    C2135726   3.139  10.000   6.806  0.0982 -0.0505  0.2201
    4BIM    C2235727   3.088  10.137   6.793  0.0232 -0.0954  0.0476
    4BIM    C2335728   3.157  10.251   6.752  0.0407 -0.0507  0.2002
    4BIM    C2435729   3.087  10.370   6.747 -0.0425 -0.1083 -0.0164
    4BIM    C2535730   2.951  10.375   6.781 -0.1396 -0.2073 -0.3744
    4BIM    C2635731   2.881  10.262   6.822 -0.1576 -0.2523 -0.5283
    4BIM    C2735732   2.950  10.140   6.828 -0.0745 -0.1953 -0.3134
    4BIM    C2835733   2.906  10.004   6.867 -0.0676 -0.2203 -0.3932
    4BIM    C2935734   2.780   9.967   6.907 -0.1465 -0.3102 -0.7153
    4BIM    C3035735   2.672  10.060   6.917 -0.2489 -0.3939 -1.0242
    4BIM    C3135736   2.747   9.833   6.943 -0.1327 -0.3275 -0.7675
    5BIM     F135737   4.957   9.763   7.145 -0.2508 -0.1297  0.0806
    5BIM     F235738   5.126   9.572   7.239 -0.0840 -0.0765 -0.1103
    5BIM     O135739   4.509   9.470   7.064 -0.1704 -0.3235  0.3321
    5BIM     N535740   5.050   9.089   7.317  0.2130 -0.1388 -0.2055
    5BIM     N635741   4.666   8.899   7.234  0.2422 -0.3009  0.0294
    5BIM    C1935742   4.511   9.184   7.124  0.0174 -0.3421  0.2390
    5BIM    C2035743   4.617   9.265   7.141 -0.0092 -0.2954  0.1832
    5BIM    C2135744   4.608   9.411   7.108 -0.1070 -0.2887  0.2367
    5BIM    C2235745   4.740   9.469   7.138 -0.1124 -0.2334  0.1538
    5BIM    C2335746   4.780   9.602   7.123 -0.1892 -0.2091  0.1651
    5BIM    C2435747   4.911   9.633   7.158 -0.1776 -0.1562  0.0751
    5BIM    C2535748   4.998   9.535   7.206 -0.0915 -0.1289 -0.0233
    5BIM    C2635749   4.959   9.402   7.221 -0.0148 -0.1531 -0.0353
    5BIM    C2735750   4.827   9.369   7.187 -0.0252 -0.2067  0.0551
    5BIM    C2835751   4.755   9.239   7.191  0.0417 -0.2434  0.0693
    5BIM    C2935752   4.806   9.118   7.232  0.1333 -0.2320 -0.0081
    5BIM    C3035753   4.940   9.102   7.278  0.1768 -0.1810 -0.1165
    5BIM    C3135754   4.729   8.998   7.233  0.1926 -0.2701  0.0131
    1BTD     S235755   2.273   7.271   3.564 -0.0282 -0.2636 -0.0343
    1BTD     N135756   2.312   7.446   3.548  0.0299 -0.3006 -0.3160
    1BTD     N235757   2.097   7.293   3.537 -0.0740 -0.2054  0.3048
    1BTD     N335758   1.808   7.654   3.454 -0.0620 -0.1539  0.4867
    1BTD     N435759   2.073   7.842   3.468  0.0661 -0.2714 -0.2782
    1BTD     C535760   2.184   7.650   3.506  0.0473 -0.2840 -0.2870
    1BTD     C635761   2.198   7.508   3.525  0.0132 -0.2694 -0.1514
    1BTD     C735762   2.077   7.423   3.518 -0.0450 -0.2160  0.1961
    1BTD     C835763   1.949   7.484   3.494 -0.0661 -0.1799  0.3906
    1BTD    C1535764   1.941   7.623   3.476 -0.0313 -0.1958  0.2474
    1BTD    C1635765   2.057   7.705   3.482  0.0247 -0.2472 -0.0874
    1BTD    C4335766   1.990   7.922   3.372 -0.4323  0.2962  0.4137
    1BTD    C4435767   1.965   8.076   3.380  0.1710  0.8298 -0.6824
    1BTD    C4535768   1.910   8.137   3.248  0.0881 -0.3968 -0.0348
    1BTD    C4635769   1.779   8.080   3.195  0.2949  0.0490 -0.2419
    1BTD    C4735770   1.887   8.114   3.506 -0.2952  0.1225  0.0791
    1BTD    C4835771   1.861   8.261   3.533  0.5111 -0.0667 -0.2122
    1BTD    C4935772   1.982   8.344   3.563  0.0283  0.4347 -0.2201
    1BTD    C5035773   1.944   8.473   3.636  0.0536 -0.1564  0.5312
    1BTD    C7535774   1.731   7.781   3.470 -0.3509 -0.0759  0.4333
    1BTD    C7635775   1.663   7.814   3.605  0.4480  0.2097  0.3865
    1BTD    C7735776   1.750   7.853   3.727 -0.6966  0.1412 -0.2906
    1BTD    C7835777   1.691   7.873   3.866  0.0919 -0.1296  0.3052
    1BTD    C7935778   1.528   7.887   3.575  0.4526  0.6016  0.0106
    1BTD    C8035779   1.539   8.037   3.536  0.4666  0.6112  0.0615
    1BTD    C8135780   1.408   8.111   3.516  0.7520 -0.5504  0.3161
    1BTD    C8235781   1.429   8.244   3.443  0.8638 -0.7430 -0.1800
    2TTP     S135782   2.455   7.784   3.543  0.1215  0.0950  0.0737
    2TTP     S535783   2.266   8.168   3.501  0.4421  0.2074 -0.3490
    2TTP     C135784   2.443   8.194   3.532  0.4339  0.0965 -0.2053
    2TTP     C235785   2.512   8.077   3.547  0.3344  0.0551 -0.0663
    2TTP     C335786   2.427   7.962   3.534  0.2611  0.1097 -0.0683
    2TTP     C435787   2.277   7.758   3.513  0.1298  0.2060 -0.0701
    2TTP    C1735788   2.208   7.875   3.498  0.2292  0.2473 -0.2091
    2TTP    C1835789   2.293   7.989   3.510  0.3026  0.1928 -0.2070
    2TTP    C3235790   2.662   8.058   3.579  0.0580  0.2997 -0.0759
    2TTP    C3335791   2.755   8.031   3.459  0.5563 -0.8107  0.0293
    2TTP    C3435792   2.900   8.013   3.500 -0.0549  0.3363 -0.3397
    2TTP    C3535793   2.967   8.090   3.619  0.6221  0.2534  0.2133
    2TTP    C3635794   3.117   8.067   3.633 -0.2223  0.6549 -0.1894
    2TTP    C3735795   3.171   8.153   3.747  0.1144  0.0754  0.4969
    2TTP    C3835796   3.297   8.094   3.812  0.0393  0.1560  0.4688
    2TTP    C3935797   3.345   8.175   3.941  0.0989  0.2366  0.0533
    2TTP    C4035798   3.484   8.157   3.997  0.6251  0.1619 -0.4531
    2TTP    C4135799   3.607   8.174   3.911 -0.3379  0.4846  0.3286
    2TTP    C4235800   3.717   8.086   3.973 -0.0480  0.4372 -0.9678
    3TTP     S135801   1.765   7.276   3.413 -0.1192  0.1915 -0.1038
    3TTP     S535802   1.488   7.577   3.283 -0.1318  0.2036 -0.0492
    3TTP     C135803   1.434   7.417   3.216  0.0112  0.2518 -0.2803
    3TTP     C235804   1.517   7.314   3.252  0.0236  0.2508 -0.3108
    3TTP     C335805   1.625   7.359   3.334 -0.0795  0.2120 -0.1528
    3TTP     C435806   1.818   7.436   3.480 -0.2623  0.1434  0.1272
    3TTP    C1735807   1.736   7.539   3.444 -0.2746  0.1442  0.1578
    3TTP    C1835808   1.628   7.494   3.362 -0.1715  0.1831 -0.0004
    3TTP    C3235809   1.521   7.176   3.188 -0.4313  0.8592 -0.8210
    3TTP    C3335810   1.508   7.042   3.270 -0.3331 -0.0638 -0.3390
    3TTP    C3435811   1.406   7.034   3.385  0.2083 -0.0049  0.4777
    3TTP    C3535812   1.259   7.048   3.339 -0.1182  0.3621  0.6556
    3TTP    C3635813   1.166   7.042   3.459 -0.9192 -0.4624  0.0209
    3TTP    C3735814   1.022   7.069   3.432 -0.0445 -0.0949  0.0161
    3TTP    C3835815   0.990   7.211   3.365 -0.0542  0.4111  0.1410
    3TTP    C3935816   0.841   7.239   3.340 -0.0455 -0.0132 -0.3650
    3TTP    C4035817   0.822   7.379   3.293  0.8535 -0.2325  0.0683
    3TTP    C4135818   0.676   7.421   3.261  0.7877  0.2744  0.2053
    3TTP    C4235819   0.644   7.553   3.183 -0.4868  0.0731 -1.1381
    4BIM     F135820   2.249   8.947   3.796  0.2912  0.1330  0.0809
    4BIM     F235821   2.488   9.035   3.700  0.1712  0.0257 -0.3225
    4BIM     O135822   2.281   8.419   3.679  0.0529  0.0377  0.4458
    4BIM     N535823   2.855   8.786   3.480 -0.1711 -0.1972 -0.6424
    4BIM     N635824   2.831   8.356   3.408 -0.3331 -0.2503 -0.2760
    4BIM    C1935825   2.521   8.316   3.547 -0.1465 -0.0989  0.1900
    4BIM    C2035826   2.503   8.445   3.580 -0.0817 -0.0706  0.1140
    4BIM    C2135827   2.377   8.491   3.648  0.0194  0.0000  0.2553
    4BIM    C2235828   2.391   8.636   3.669  0.0702  0.0148  0.1232
    4BIM    C2335829   2.300   8.722   3.729  0.1655  0.0741  0.1844
    4BIM    C2435830   2.335   8.856   3.738  0.1976  0.0764  0.0311
    4BIM    C2535831   2.458   8.901   3.688  0.1358  0.0206 -0.1765
    4BIM    C2635832   2.550   8.816   3.629  0.0404 -0.0386 -0.2388
    4BIM    C2735833   2.516   8.680   3.619  0.0066 -0.0420 -0.0859
    4BIM    C2835834   2.590   8.565   3.562 -0.0892 -0.0966 -0.0997
    4BIM    C2935835   2.715   8.568   3.504 -0.1694 -0.1593 -0.2769
    4BIM    C3035836   2.791   8.688   3.491 -0.1700 -0.1798 -0.4773
    4BIM    C3135837   2.778   8.451   3.452 -0.2590 -0.2089 -0.2753
    5BIM     F135838   0.807   7.861   2.929 -0.5085 -0.2446  0.6902
    5BIM     F235839   0.731   7.646   2.779  0.2672  0.0761 -0.1794
    5BIM     O135840   1.237   7.657   3.187 -0.4873 -0.1014  0.7680
    5BIM     N535841   0.929   7.194   2.747  1.3976  0.6393 -1.3744
    5BIM     N635842   1.280   7.078   2.979  1.2578  0.6865 -1.1383
    5BIM    C1935843   1.317   7.381   3.136  0.2613  0.2560 -0.0352
    5BIM    C2035844   1.212   7.440   3.077  0.2257  0.2073 -0.0207
    5BIM    C2135845   1.177   7.583   3.108 -0.1694  0.0210  0.4047
    5BIM    C2235846   1.058   7.616   3.027 -0.1029  0.0136  0.3039
    5BIM    C2335847   0.989   7.736   3.023 -0.3816 -0.1315  0.5938
    5BIM    C2435848   0.880   7.744   2.938 -0.2487 -0.1069  0.4220
    5BIM    C2535849   0.841   7.634   2.861  0.1511  0.0587 -0.0262
    5BIM    C2635850   0.909   7.513   2.865  0.4308  0.2041 -0.3173
    5BIM    C2735851   1.020   7.503   2.950  0.3018  0.1814 -0.1494
    5BIM    C2835852   1.113   7.391   2.977  0.5197  0.3071 -0.3668
    5BIM    C2935853   1.109   7.265   2.921  0.9177  0.4823 -0.8050
    5BIM    C3035854   1.010   7.227   2.826  1.1801  0.5679 -1.1165
    5BIM    C3135855   1.203   7.163   2.954  1.1024  0.5937 -0.9859
    1BTD     S235856   0.654   5.511   0.328  0.0921 -0.1241 -0.2429
    1BTD     N135857   0.689   5.353   0.406  0.0504 -0.0021  0.0268
    1BTD     N235858   0.822   5.571   0.339  0.1354 -0.1998 -0.4655
    1BTD     N335859   1.231   5.410   0.504  0.1484 -0.1336 -0.4323
    1BTD     N435860   1.068   5.140   0.585  0.0436  0.1099  0.1744
    1BTD     C535861   0.889   5.245   0.498  0.0481  0.0533  0.0965
    1BTD     C635862   0.819   5.353   0.435  0.0699 -0.0230 -0.0586
    1BTD     C735863   0.893   5.476   0.398  0.1175 -0.1338 -0.3342
    1BTD     C835864   1.034   5.484   0.426  0.1409 -0.1622 -0.4409
    1BTD    C1535865   1.098   5.375   0.489  0.1182 -0.0847 -0.2817
    1BTD    C1635866   1.027   5.257   0.524  0.0724  0.0218 -0.0162
    1BTD    C4335867   1.203   5.080   0.579  0.3889 -0.0042 -0.1995
    1BTD    C4435868   1.262   4.966   0.665  0.4637  0.3065 -0.0914
    1BTD    C4535869   1.379   4.900   0.604 -0.7366 -0.0651  0.7439
    1BTD    C4635870   1.365   4.834   0.467  0.4648  0.7802  0.5455
    1BTD    C4735871   1.284   4.980   0.815 -0.1816 -0.4815  0.0905
    1BTD    C4835872   1.180   5.061   0.903 -0.1343 -0.1514  0.1721
    1BTD    C4935873   1.200   5.046   1.052  0.3091  0.0702 -0.0616
    1BTD    C5035874   1.147   4.929   1.136  0.7490 -0.1262  0.1209
    1BTD    C7535875   1.312   5.368   0.617  0.2939 -0.5210 -0.1437
    1BTD    C7635876   1.461   5.370   0.590  0.4616  0.2749 -0.3167
    1BTD    C7735877   1.541   5.365   0.716 -0.3984  0.3132  0.4957
    1BTD    C7835878   1.557   5.237   0.801  0.3902 -0.4551 -0.2454
    1BTD    C7935879   1.508   5.287   0.470 -0.1966  0.1534  0.4663
    1BTD    C8035880   1.657   5.293   0.420  0.0583  0.4511 -0.3267
    1BTD    C8135881   1.695   5.186   0.317 -0.1192 -0.1277 -0.6560
    1BTD    C8235882   1.828   5.214   0.244 -0.1121 -0.8633  0.0037
    2TTP     S135883   0.693   5.026   0.560  0.2078  0.0187 -0.3062
    2TTP     S535884   1.006   4.803   0.753  0.2086  0.3802  0.1150
    2TTP     C135885   0.850   4.711   0.771  0.3331  0.0765 -0.3128
    2TTP     C235886   0.744   4.775   0.713  0.3401 -0.0532 -0.4681
    2TTP     C335887   0.782   4.898   0.652  0.2475  0.0830 -0.2548
    2TTP     C435888   0.849   5.118   0.542  0.0834  0.3222  0.1216
    2TTP    C1735889   0.955   5.054   0.600  0.0763  0.4520  0.2769
    2TTP    C1835890   0.916   4.931   0.662  0.1689  0.3159  0.0636
    2TTP    C3235891   0.596   4.721   0.687 -0.4976 -0.1849 -0.4342
    2TTP    C3335892   0.496   4.797   0.776  0.6423 -0.1961 -0.2842
    2TTP    C3435893   0.338   4.781   0.753 -0.4809  0.1338 -0.2727
    2TTP    C3535894   0.275   4.783   0.614  0.3075  0.4239  0.3431
    2TTP    C3635895   0.124   4.778   0.627 -0.1653 -0.3480  0.0843
    2TTP    C3735896   0.059   4.753   0.493 -0.2000 -0.5295 -0.6785
    2TTP    C3835897  -0.101   4.758   0.497 -1.0334  0.0684  0.5266
    2TTP    C3935898  -0.164   4.899   0.495  0.5094  0.2782  0.1076
    2TTP    C4035899  -0.131   5.001   0.387 -0.2883  0.1927  0.5520
    2TTP    C4135900  -0.201   5.134   0.392  0.6753 -0.1186 -0.6856
    2TTP    C4235901  -0.181   5.224   0.273 -0.3105  0.0311  0.2249
    3TTP     S135902   1.137   5.746   0.325  0.0488  0.1111  0.0787
    3TTP     S535903   1.512   5.669   0.520  0.1809  0.0197 -0.2123
    3TTP     C135904   1.519   5.834   0.445  0.1075  0.0802 -0.0858
    3TTP     C235905   1.403   5.868   0.380  0.0623  0.1118  0.0115
    3TTP     C335906   1.305   5.764   0.388  0.0842  0.0896 -0.0103
    3TTP     C435907   1.130   5.581   0.400  0.1222  0.0507 -0.0479
    3TTP    C1735908   1.246   5.547   0.464  0.1674  0.0190 -0.1452
    3TTP    C1835909   1.344   5.651   0.457  0.1455  0.0411 -0.1233
    3TTP    C3235910   1.383   5.991   0.295 -0.2706 -0.5918 -0.0907
    3TTP    C3335911   1.285   6.087   0.352  0.6287 -0.0945  0.5405
    3TTP    C3435912   1.284   6.226   0.293 -0.0320  0.8583  0.6828
    3TTP    C3535913   1.241   6.348   0.372 -0.0153  0.2697 -0.4817
    3TTP    C3635914   1.302   6.382   0.510  0.3527 -0.1976  0.4146
    3TTP    C3735915   1.451   6.372   0.523  0.1162 -0.7945 -0.5880
    3TTP    C3835916   1.528   6.479   0.440 -0.5776 -0.5237  0.5174
    3TTP    C3935917   1.676   6.488   0.475  0.4592  0.6873  0.0198
    3TTP    C4035918   1.754   6.597   0.397  0.4082 -0.4433  0.2439
    3TTP    C4135919   1.905   6.615   0.446  0.5985 -0.1194  0.1331
    3TTP    C4235920   1.978   6.721   0.362 -0.8228  0.0653  0.4088
    4BIM     F135921   1.321   4.160   1.164 -0.0747  0.0718  0.3386
    4BIM     F235922   1.126   3.975   1.122 -0.0470  0.0668  0.2325
    4BIM     O135923   1.097   4.598   0.940  0.0194  0.0743  0.2494
    4BIM     N535924   0.685   4.022   0.902  0.0600  0.0610  0.0163
    4BIM     N635925   0.549   4.402   0.735  0.1280  0.0641 -0.0320
    4BIM    C1935926   0.831   4.578   0.820  0.0794  0.0704  0.1163
    4BIM    C2035927   0.895   4.475   0.878  0.0546  0.0697  0.1429
    4BIM    C2135928   1.032   4.493   0.938  0.0246  0.0720  0.2117
    4BIM    C2235929   1.072   4.362   0.992  0.0027  0.0709  0.2250
    4BIM    C2335930   1.191   4.330   1.057 -0.0281  0.0721  0.2823
    4BIM    C2435931   1.206   4.199   1.099 -0.0443  0.0707  0.2834
    4BIM    C2535932   1.105   4.104   1.078 -0.0299  0.0679  0.2287
    4BIM    C2635933   0.986   4.135   1.013  0.0008  0.0668  0.1714
    4BIM    C2735934   0.969   4.267   0.969  0.0175  0.0682  0.1693
    4BIM    C2835935   0.856   4.333   0.898  0.0500  0.0675  0.1166
    4BIM    C2935936   0.738   4.273   0.859  0.0716  0.0652  0.0553
    4BIM    C3035937   0.709   4.135   0.883  0.0651  0.0629  0.0341
    4BIM    C3135938   0.635   4.344   0.791  0.1025  0.0645  0.0076
    5BIM     F135939   2.267   5.776   0.781  0.1630 -0.0056  0.1176
    5BIM     F235940   2.344   5.993   0.635  0.1084  0.0687  0.1998
    5BIM     O135941   1.747   5.734   0.636  0.1812 -0.0994  0.0794
    5BIM     N535942   2.083   6.275   0.323  0.0429  0.1087  0.2906
    5BIM     N635943   1.662   6.199   0.239  0.0680  0.0204  0.2442
    5BIM    C1935944   1.636   5.926   0.445  0.1355 -0.0618  0.1443
    5BIM    C2035945   1.764   5.928   0.488  0.1330 -0.0412  0.1507
    5BIM    C2135946   1.814   5.826   0.585  0.1575 -0.0626  0.1157
    5BIM    C2235947   1.956   5.857   0.610  0.1477 -0.0314  0.1333
    5BIM    C2335948   2.044   5.790   0.693  0.1630 -0.0367  0.1128
    5BIM    C2435949   2.174   5.838   0.700  0.1492 -0.0025  0.1359
    5BIM    C2535950   2.214   5.949   0.625  0.1210  0.0358  0.1782
    5BIM    C2635951   2.126   6.017   0.541  0.1057  0.0415  0.1989
    5BIM    C2735952   1.994   5.970   0.533  0.1193  0.0070  0.1760
    5BIM    C2835953   1.877   6.018   0.455  0.1091  0.0026  0.1884
    5BIM    C2935954   1.875   6.126   0.370  0.0827  0.0331  0.2273
    5BIM    C3035955   1.990   6.208   0.344  0.0609  0.0747  0.2620
    5BIM    C3135956   1.758   6.165   0.298  0.0748  0.0259  0.2364
    1BTD     S235957   7.470   1.911   5.389  0.2056  0.2569  0.0694
    1BTD     N135958   7.629   1.902   5.472  0.2396  0.1425 -0.0091
    1BTD     N235959   7.453   1.733   5.370  0.0700  0.2694  0.0739
    1BTD     N335960   7.705   1.353   5.481 -0.1441  0.0882 -0.0579
    1BTD     N435961   7.923   1.561   5.606  0.0647 -0.0682 -0.1602
    1BTD     C535962   7.780   1.721   5.540  0.1458  0.0344 -0.0867
    1BTD     C635963   7.660   1.773   5.480  0.1529  0.1206 -0.0267
    1BTD     C735964   7.561   1.679   5.424  0.0579  0.1917  0.0198
    1BTD     C835965   7.587   1.537   5.429 -0.0392  0.1729  0.0039
    1BTD    C1535966   7.706   1.491   5.489 -0.0425  0.0875 -0.0554
    1BTD    C1635967   7.802   1.582   5.544  0.0490  0.0190 -0.1002
    1BTD    C4335968   7.956   1.442   5.691 -0.2101  0.2643  0.2248
    1BTD    C4435969   8.091   1.396   5.739  0.5613  0.2478  0.7987
    1BTD    C4535970   8.089   1.277   5.838 -0.2015 -0.4711 -0.4198
    1BTD    C4635971   8.027   1.305   5.974 -0.0838  0.0662 -0.3713
    1BTD    C4735972   8.198   1.398   5.629  0.0645 -0.4877 -0.0023
    1BTD    C4835973   8.340   1.384   5.695 -0.2113  0.7490  0.5572
    1BTD    C4935974   8.458   1.387   5.595  0.6673 -0.0075 -0.6939
    1BTD    C5035975   8.587   1.349   5.661  0.7942 -0.4204 -0.0670
    1BTD    C7535976   7.824   1.275   5.428 -0.1579 -0.4732 -0.5936
    1BTD    C7635977   7.848   1.135   5.471  0.0405  1.8048 -0.1372
    1BTD    C7735978   7.962   1.055   5.395 -0.0955 -0.4342 -0.0123
    1BTD    C7835979   8.101   1.119   5.392 -0.2653  0.4788  0.4927
    1BTD    C7935980   7.846   1.112   5.619  0.1408  0.0361 -0.2281
    1BTD    C8035981   7.841   0.963   5.668 -0.3330  0.2077 -0.5811
    1BTD    C8135982   7.823   0.970   5.818 -0.1015  0.3620 -0.7453
    1BTD    C8235983   7.839   0.815   5.863  0.1871 -0.7490  0.0395
    2TTP     S135984   7.941   1.948   5.650  0.0432  0.0004  0.0162
    2TTP     S535985   8.204   1.664   5.837 -0.1190 -0.3068 -0.2203
    2TTP     C135986   8.250   1.831   5.892  0.0984 -0.3639 -0.2291
    2TTP     C235987   8.172   1.928   5.838  0.1614 -0.2724 -0.1566
    2TTP     C335988   8.072   1.875   5.750  0.0401 -0.1539 -0.0913
    2TTP     C435989   7.894   1.781   5.595 -0.1746  0.0575  0.0250
    2TTP    C1735990   7.973   1.683   5.649 -0.2377 -0.0340 -0.0475
    2TTP    C1835991   8.072   1.737   5.737 -0.1161 -0.1525 -0.1125
    2TTP    C3235992   8.182   2.076   5.872  0.1687 -0.6428 -0.4028
    2TTP    C3335993   8.273   2.163   5.791 -0.0889 -0.2036 -0.1252
    2TTP    C3435994   8.221   2.200   5.655 -0.2639  0.5144 -0.2809
    2TTP    C3535995   8.323   2.275   5.577 -0.0684 -0.2217  0.3157
    2TTP    C3635996   8.294   2.305   5.432  0.3604  0.1472 -0.1990
    2TTP    C3735997   8.411   2.379   5.363 -0.3903  0.2466 -0.1409
    2TTP    C3835998   8.530   2.291   5.330 -0.2576  0.0935 -0.0595
    2TTP    C3935999   8.644   2.363   5.263  0.2856  0.6756  0.8111
    2TTP    C4036000   8.780   2.285   5.246  0.8204  0.4411  0.3718
    2TTP    C4136001   8.903   2.342   5.172 -0.3679 -0.1896 -0.4033
    2TTP    C4236002   9.023   2.245   5.182 -0.0760  0.6248 -0.2835
    3TTP     S136003   7.335   1.387   5.358 -0.1334  0.2348 -0.0048
    3TTP     S536004   7.517   1.024   5.499 -0.2664  0.1960  0.0675
    3TTP     C136005   7.340   0.992   5.469 -0.2376  0.2031 -0.1122
    3TTP     C236006   7.274   1.102   5.424 -0.1948  0.2155 -0.1451
    3TTP     C336007   7.360   1.216   5.411 -0.1832  0.2198 -0.0296
    3TTP     C436008   7.512   1.418   5.388 -0.1624  0.2277  0.1750
    3TTP    C1736009   7.578   1.308   5.434 -0.2050  0.2153  0.2078
    3TTP    C1836010   7.492   1.195   5.446 -0.2166  0.2109  0.0923
    3TTP    C3236011   7.130   1.111   5.385  0.4926  0.3426  0.1182
    3TTP    C3336012   7.105   1.148   5.236  0.3793 -0.1886  0.2853
    3TTP    C3436013   6.952   1.172   5.198 -0.5809  0.0727 -0.3351
    3TTP    C3536014   6.931   1.246   5.064  0.2967 -0.5368  0.1054
    3TTP    C3636015   6.781   1.252   5.032 -0.5836 -0.0011  0.4997
    3TTP    C3736016   6.749   1.290   4.890  0.6543  0.1033 -0.2036
    3TTP    C3836017   6.800   1.415   4.822 -0.1902 -0.2343  0.0589
    3TTP    C3936018   6.781   1.557   4.883 -0.0249  0.4610 -0.5811
    3TTP    C4036019   6.879   1.667   4.834 -0.0128 -0.4103 -0.4560
    3TTP    C4136020   6.881   1.808   4.887  0.1755 -0.6676  0.3589
    3TTP    C4236021   6.955   1.904   4.791 -0.4748 -0.2886 -0.7015
    4BIM     F136022   8.954   1.440   6.045 -0.2611 -0.2342  0.2023
    4BIM     F236023   8.998   1.611   6.252  0.0582  0.0839 -0.1261
    4BIM     O136024   8.490   1.634   5.846 -0.3576 -0.2927  0.3706
    4BIM     N536025   8.729   1.997   6.407  0.4485  0.4995 -0.4783
    4BIM     N636026   8.357   2.114   6.210  0.3085  0.3896 -0.2805
    4BIM    C1936027   8.366   1.867   5.973 -0.0871 -0.0096  0.1167
    4BIM    C2036028   8.481   1.812   6.015 -0.0753 -0.0073  0.0871
    4BIM    C2136029   8.538   1.692   5.945 -0.2198 -0.1579  0.2241
    4BIM    C2236030   8.663   1.657   6.016 -0.1650 -0.1132  0.1501
    4BIM    C2336031   8.751   1.553   5.987 -0.2563 -0.2125  0.2284
    4BIM    C2436032   8.863   1.540   6.068 -0.1781 -0.1429  0.1326
    4BIM    C2536033   8.885   1.629   6.174 -0.0137  0.0210 -0.0366
    4BIM    C2636034   8.798   1.733   6.204  0.0782  0.1208 -0.1158
    4BIM    C2736035   8.684   1.748   6.123  0.0012  0.0525 -0.0206
    4BIM    C2836036   8.573   1.846   6.127  0.0629  0.1241 -0.0660
    4BIM    C2936037   8.558   1.949   6.216  0.2184  0.2820 -0.2204
    4BIM    C3036038   8.652   1.975   6.321  0.3443  0.4010 -0.3616
    4BIM    C3136039   8.448   2.039   6.213  0.2670  0.3403 -0.2525
    5BIM     F136040   7.551   0.378   5.967  0.0844 -0.1119  0.1682
    5BIM     F236041   7.381   0.215   5.830 -0.2376 -0.0295  0.4647
    5BIM     O136042   7.466   0.849   5.715  0.2571 -0.1829 -0.0224
    5BIM     N536043   7.078   0.317   5.452 -0.5772  0.0383  0.7551
    5BIM     N636044   7.046   0.718   5.283 -0.3773 -0.0338  0.5465
    5BIM    C1936045   7.275   0.861   5.494  0.0110 -0.1294  0.1931
    5BIM    C2036046   7.303   0.749   5.563 -0.0199 -0.1148  0.2295
    5BIM    C2136047   7.402   0.751   5.675  0.1130 -0.1443  0.1124
    5BIM    C2236048   7.409   0.613   5.728  0.0383 -0.1182  0.1893
    5BIM    C2336049   7.487   0.566   5.833  0.1137 -0.1315  0.1270
    5BIM    C2436050   7.476   0.431   5.865  0.0178 -0.1009  0.2223
    5BIM    C2536051   7.389   0.348   5.794 -0.1481 -0.0585  0.3751
    5BIM    C2636052   7.310   0.394   5.689 -0.2240 -0.0450  0.4380
    5BIM    C2736053   7.320   0.530   5.655 -0.1289 -0.0755  0.3432
    5BIM    C2836054   7.251   0.610   5.551 -0.1713 -0.0717  0.3741
    5BIM    C2936055   7.158   0.564   5.461 -0.3221 -0.0353  0.5105
    5BIM    C3036056   7.114   0.428   5.456 -0.4619  0.0051  0.6444
    5BIM    C3136057   7.097   0.649   5.363 -0.3517 -0.0347  0.5294
    1BTD     S236058   5.940   9.398   6.154  0.1906 -0.2380 -0.0231
    1BTD     N136059   5.931   9.218   6.151  0.0902 -0.2341  0.0466
    1BTD     N236060   5.786   9.422   6.064  0.2646 -0.1874 -0.1366
    1BTD     N336061   5.456   9.148   5.874  0.2341 -0.0780 -0.2420
    1BTD     N436062   5.635   8.896   5.981  0.0192 -0.1357 -0.0162
    1BTD     C536063   5.774   9.053   6.061  0.0558 -0.1822  0.0111
    1BTD     C636064   5.820   9.187   6.086  0.1156 -0.1976 -0.0150
    1BTD     C736065   5.739   9.301   6.038  0.2133 -0.1714 -0.1175
    1BTD     C836066   5.616   9.276   5.966  0.2460 -0.1311 -0.1889
    1BTD    C1536067   5.576   9.143   5.944  0.1849 -0.1172 -0.1598
    1BTD    C1636068   5.654   9.033   5.991  0.0909 -0.1426 -0.0610
    1BTD    C4336069   5.586   8.824   5.854  0.1227 -0.0304 -0.7507
    1BTD    C4436070   5.511   8.692   5.863  0.3450  0.0702  0.6881
    1BTD    C4536071   5.496   8.611   5.726  0.2086 -0.7309 -0.5831
    1BTD    C4636072   5.610   8.590   5.633 -0.0204  1.1376  0.2979
    1BTD    C4736073   5.377   8.698   5.944 -0.0541 -0.4081  0.2024
    1BTD    C4836074   5.334   8.568   6.002  0.4224 -0.3872 -0.2995
    1BTD    C4936075   5.204   8.581   6.088  0.6117 -0.2904 -0.1985
    1BTD    C5036076   5.158   8.450   6.155  0.0589  0.6860  0.5072
    1BTD    C7536077   5.346   9.051   5.895  0.6523  0.0332 -0.5447
    1BTD    C7636078   5.260   9.018   5.779 -0.3690  0.7324 -0.0246
    1BTD    C7736079   5.140   8.929   5.803  0.2286 -0.0760  0.3350
    1BTD    C7836080   5.040   8.962   5.919  0.3814  0.2679 -0.3330
    1BTD    C7936081   5.347   8.981   5.659 -0.3383 -0.8534 -0.3559
    1BTD    C8036082   5.284   8.976   5.525  0.2440  0.3037  0.0697
    1BTD    C8136083   5.363   8.925   5.409 -0.5984 -0.0455 -0.5041
    1BTD    C8236084   5.295   8.938   5.272 -0.9932 -0.5870  0.1673
    2TTP     S136085   5.974   8.860   6.180  0.1446 -0.1324  0.1006
    2TTP     S536086   5.735   8.536   6.030 -0.0054 -0.0334  0.1241
    2TTP     C136087   5.879   8.466   6.115 -0.0384 -0.0942  0.1308
    2TTP     C236088   5.962   8.562   6.167  0.0061 -0.1285  0.1239
    2TTP     C336089   5.914   8.694   6.141  0.0676 -0.1078  0.1131
    2TTP     C436090   5.829   8.930   6.095  0.1774 -0.0718  0.0939
    2TTP    C1736091   5.746   8.833   6.043  0.1331 -0.0374  0.1007
    2TTP    C1836092   5.795   8.702   6.070  0.0715 -0.0582  0.1116
    2TTP    C3236093   6.085   8.552   6.251 -0.1086  0.3104  0.2241
    2TTP    C3336094   6.217   8.564   6.177 -0.4637 -0.1702  0.3124
    2TTP    C3436095   6.330   8.604   6.267  0.4169  0.4522  0.4810
    2TTP    C3536096   6.460   8.589   6.199  0.6334 -0.0967 -0.1507
    2TTP    C3636097   6.569   8.636   6.288 -0.5053  0.6050 -0.0130
    2TTP    C3736098   6.593   8.787   6.302  0.0036 -0.5474 -0.1751
    2TTP    C3836099   6.740   8.803   6.342  0.4619 -0.5716  0.5439
    2TTP    C3936100   6.792   8.941   6.297 -0.9604 -0.3157 -0.0791
    2TTP    C4036101   6.921   8.994   6.367  0.0923  0.3963  0.8808
    2TTP    C4136102   6.953   9.140   6.321 -0.4242 -0.3955 -0.0795
    2TTP    C4236103   7.009   9.150   6.179  0.1532  0.1224  0.1925
    3TTP     S136104   5.494   9.541   5.880 -0.1373  0.0575 -0.0037
    3TTP     S536105   5.179   9.327   5.681  0.0213 -0.1576 -0.0246
    3TTP     C136106   5.153   9.506   5.655 -0.0684 -0.1774 -0.0718
    3TTP     C236107   5.249   9.582   5.716 -0.1227 -0.1120 -0.0682
    3TTP     C336108   5.346   9.502   5.784 -0.0952 -0.0441 -0.0279
    3TTP     C436109   5.520   9.362   5.905 -0.0476  0.0772  0.0435
    3TTP    C1736110   5.424   9.286   5.845  0.0070  0.0116  0.0399
    3TTP    C1836111   5.327   9.365   5.777 -0.0205 -0.0563 -0.0002
    3TTP    C3236112   5.269   9.734   5.721  0.3483  0.1798  0.0012
    3TTP    C3336113   5.177   9.815   5.815 -0.2640 -0.6543 -0.2549
    3TTP    C3436114   5.201   9.965   5.806 -0.1411  0.1123 -0.0219
    3TTP    C3536115   5.080  10.047   5.842 -0.8213  0.2510  0.5804
    3TTP    C3636116   5.088  10.182   5.764  0.1136 -0.4924 -0.3726
    3TTP    C3736117   4.968  10.270   5.807 -0.3034  0.6150  0.7434
    3TTP    C3836118   4.984  10.404   5.754 -0.2568 -1.0434  0.0088
    3TTP    C3936119   5.088  10.491   5.828  0.5332  0.3095 -0.3021
    3TTP    C4036120   5.107  10.629   5.782 -0.3739 -0.2135  0.0411
    3TTP    C4136121   5.048  10.748   5.866 -0.5490  0.2224 -0.3906
    3TTP    C4236122   5.157  10.821   5.946  0.3206 -0.4328 -0.1666
    4BIM     F136123   5.422   7.779   6.090 -0.0201 -0.0900 -0.0793
    4BIM     F236124   5.651   7.634   6.113  0.0024 -0.0545 -0.0800
    4BIM     O136125   5.619   8.283   6.108 -0.0932 -0.0594 -0.1338
    4BIM     N536126   6.120   7.783   6.159 -0.0173  0.0188 -0.1197
    4BIM     N636127   6.228   8.206   6.169 -0.0788  0.0358 -0.1619
    4BIM    C1936128   5.908   8.323   6.137 -0.0975 -0.0146 -0.1535
    4BIM    C2036129   5.849   8.202   6.131 -0.0800 -0.0234 -0.1400
    4BIM    C2136130   5.700   8.190   6.117 -0.0790 -0.0467 -0.1303
    4BIM    C2236131   5.670   8.045   6.114 -0.0579 -0.0513 -0.1162
    4BIM    C2336132   5.546   7.985   6.102 -0.0496 -0.0708 -0.1038
    4BIM    C2436133   5.542   7.846   6.102 -0.0295 -0.0713 -0.0920
    4BIM    C2536134   5.660   7.771   6.113 -0.0176 -0.0528 -0.0924
    4BIM    C2636135   5.785   7.831   6.126 -0.0259 -0.0331 -0.1044
    4BIM    C2736136   5.791   7.971   6.126 -0.0464 -0.0327 -0.1169
    4BIM    C2836137   5.905   8.065   6.137 -0.0597 -0.0148 -0.1314
    4BIM    C2936138   6.038   8.030   6.150 -0.0540  0.0062 -0.1360
    4BIM    C3036139   6.083   7.895   6.155 -0.0337  0.0130 -0.1271
    4BIM    C3136140   6.142   8.127   6.160 -0.0676  0.0224 -0.1504
    5BIM     F136141   4.436   9.246   5.372 -0.0699  0.2019  0.0199
    5BIM     F236142   4.438   9.450   5.192  0.1569  0.1173 -0.0739
    5BIM     O136143   4.894   9.342   5.644 -0.1947  0.0832  0.2735
    5BIM     N536144   4.769   9.813   5.128  0.3935 -0.0887 -0.0284
    5BIM     N636145   5.126   9.847   5.376  0.2500 -0.1645  0.1887
    5BIM    C1936146   5.059   9.572   5.569 -0.0228 -0.0397  0.2738
    5BIM    C2036147   4.944   9.540   5.507 -0.0001 -0.0065  0.2136
    5BIM    C2136148   4.864   9.420   5.552 -0.0932  0.0563  0.2178
    5BIM    C2236149   4.746   9.414   5.464 -0.0396  0.0794  0.1434
    5BIM    C2336150   4.643   9.320   5.467 -0.0917  0.1357  0.1200
    5BIM    C2436151   4.541   9.335   5.374 -0.0236  0.1469  0.0467
    5BIM    C2536152   4.542   9.440   5.282  0.0931  0.1034 -0.0018
    5BIM    C2636153   4.645   9.534   5.278  0.1457  0.0473  0.0211
    5BIM    C2736154   4.749   9.521   5.372  0.0781  0.0348  0.0951
    5BIM    C2836155   4.871   9.602   5.394  0.1069 -0.0197  0.1365
    5BIM    C2936156   4.908   9.715   5.324  0.2128 -0.0724  0.1087
    5BIM    C3036157   4.832   9.768   5.216  0.3117 -0.0812  0.0334
    5BIM    C3136158   5.028   9.787   5.353  0.2327 -0.1227  0.1528
    1BTD     S236159   5.049   9.039   4.964  0.0925  0.1081 -0.0540
    1BTD     N136160   4.932   9.077   4.833  0.2164 -0.0150 -0.2028
    1BTD     N236161   4.994   8.869   4.983  0.0017  0.1583  0.1292
    1BTD     N336162   4.669   8.592   4.787  0.0397  0.0389  0.2345
    1BTD     N436163   4.593   8.849   4.602  0.3042 -0.1743 -0.1748
    1BTD     C536164   4.756   8.955   4.715  0.2589 -0.0956 -0.1831
    1BTD     C636165   4.861   8.967   4.812  0.1851 -0.0122 -0.1127
    1BTD     C736166   4.896   8.850   4.896  0.0648  0.0849  0.0731
    1BTD     C836167   4.824   8.727   4.879  0.0247  0.0935  0.1792
    1BTD    C1536168   4.721   8.720   4.783  0.1002  0.0099  0.1046
    1BTD    C1636169   4.688   8.833   4.702  0.2160 -0.0837 -0.0744
    1BTD    C4336170   4.525   8.753   4.510 -0.2861  0.4675 -0.1163
    1BTD    C4436171   4.604   8.702   4.388 -0.0444  0.0013  0.3725
    1BTD    C4536172   4.730   8.628   4.410 -0.5945 -0.2508 -0.3599
    1BTD    C4636173   4.838   8.639   4.294  0.4647 -0.1407 -0.2090
    1BTD    C4736174   4.516   8.626   4.286  0.1181 -0.8143 -0.2502
    1BTD    C4836175   4.398   8.698   4.220 -0.2435  0.3396  0.0524
    1BTD    C4936176   4.461   8.787   4.115  0.6593  0.0776 -0.1408
    1BTD    C5036177   4.364   8.903   4.091 -0.4862 -0.1682  0.4611
    1BTD    C7536178   4.531   8.547   4.753 -0.7647  0.5561  0.0691
    1BTD    C7636179   4.407   8.547   4.841 -0.0026 -0.7900  0.1295
    1BTD    C7736180   4.400   8.685   4.914  0.4339  0.0197  0.1312
    1BTD    C7836181   4.302   8.703   5.032  0.3387  0.1249  0.0811
    1BTD    C7936182   4.266   8.494   4.794 -0.4753  0.1375  0.0129
    1BTD    C8036183   4.267   8.343   4.755 -0.2573 -1.1885  0.6071
    1BTD    C8136184   4.123   8.288   4.737  0.5227  0.4688 -0.4012
    1BTD    C8236185   4.124   8.133   4.731 -0.2773 -0.7350 -0.1444
    2TTP     S136186   4.699   9.221   4.588  0.1413 -0.2798 -0.1737
    2TTP     S536187   4.356   9.049   4.393 -0.1441  0.1328 -0.0385
    2TTP     C136188   4.358   9.228   4.360 -0.0249  0.1545  0.0858
    2TTP     C236189   4.464   9.292   4.418  0.0705  0.0286  0.0514
    2TTP     C336190   4.548   9.202   4.491  0.0525 -0.0899 -0.0744
    2TTP     C436191   4.697   9.042   4.621  0.0218 -0.3016 -0.2978
    2TTP    C1736192   4.592   8.979   4.562 -0.0734 -0.1759 -0.2634
    2TTP    C1836193   4.508   9.069   4.490 -0.0554 -0.0572 -0.1378
    2TTP    C3236194   4.496   9.431   4.403 -0.3886 -1.2594 -0.6201
    2TTP    C3336195   4.642   9.458   4.375 -0.2790  0.1205  0.6726
    2TTP    C3436196   4.684   9.603   4.409 -0.8610  0.0022  0.5937
    2TTP    C3536197   4.835   9.641   4.400  0.4505  0.1934  0.5612
    2TTP    C3636198   4.938   9.547   4.472  0.2068 -0.5444 -0.3022
    2TTP    C3736199   4.913   9.541   4.618  1.1802  0.8483 -0.7565
    2TTP    C3836200   5.011   9.447   4.691  0.1120 -0.2666 -0.2166
    2TTP    C3936201   5.137   9.493   4.768  0.2784 -0.4819 -0.1379
    2TTP    C4036202   5.119   9.622   4.851 -0.7390 -0.1937  0.0485
    2TTP    C4136203   5.248   9.682   4.904 -0.2541 -1.0489 -0.5679
    2TTP    C4236204   5.234   9.748   5.043 -0.0163  0.0620 -0.2749
    3TTP     S136205   4.935   8.503   5.051  0.2449 -0.0089 -0.2971
    3TTP     S536206   4.666   8.227   4.862 -0.1236  0.1645 -0.0274
    3TTP     C136207   4.776   8.134   4.972 -0.2297  0.1219  0.0426
    3TTP     C236208   4.866   8.214   5.037 -0.1223  0.0656 -0.0366
    3TTP     C336209   4.851   8.351   5.002  0.0479  0.0546 -0.1552
    3TTP     C436210   4.825   8.597   4.940  0.3512  0.0336 -0.3673
    3TTP    C1736211   4.735   8.517   4.875  0.2436  0.0900 -0.2880
    3TTP    C1836212   4.750   8.379   4.911  0.0736  0.1011 -0.1692
    3TTP    C3236213   4.963   8.174   5.146 -0.3142 -0.6713  1.2217
    3TTP    C3336214   5.113   8.160   5.100  0.5970  0.3912 -0.1795
    3TTP    C3436215   5.216   8.128   5.214  0.2811 -0.3728 -0.0442
    3TTP    C3536216   5.330   8.230   5.237 -0.6028 -0.8822  0.3226
    3TTP    C3636217   5.292   8.378   5.273 -0.0347 -0.4531  0.5144
    3TTP    C3736218   5.181   8.402   5.381  0.6369 -0.4509  0.2367
    3TTP    C3836219   5.196   8.545   5.432 -0.5740  0.1307  0.1593
    3TTP    C3936220   5.091   8.590   5.538  0.1616 -0.0039 -0.0368
    3TTP    C4036221   5.074   8.502   5.661  0.4557 -0.3622 -0.1564
    3TTP    C4136222   4.944   8.538   5.726  0.0931 -0.0498  0.2542
    3TTP    C4236223   4.900   8.450   5.844  0.1126  0.7611  0.1309
    4BIM     F136224   3.662   9.088   3.941  0.0274  0.1974  0.4143
    4BIM     F236225   3.640   9.357   3.901  0.5102  0.1481 -0.2158
    4BIM     O136226   4.118   9.064   4.231 -0.2337  0.0863  0.8167
    4BIM     N536227   3.934   9.725   4.051  1.0181 -0.0012 -0.8348
    4BIM     N636228   4.295   9.652   4.286  0.7169 -0.0777 -0.3932
    4BIM    C1936229   4.260   9.312   4.297  0.1348  0.0007  0.3578
    4BIM    C2036230   4.146   9.308   4.225  0.1817  0.0303  0.2811
    4BIM    C2136231   4.079   9.176   4.196 -0.0174  0.0737  0.5304
    4BIM    C2236232   3.958   9.207   4.116  0.0950  0.0980  0.3675
    4BIM    C2336233   3.865   9.118   4.066 -0.0174  0.1400  0.5006
    4BIM    C2436234   3.759   9.171   3.994  0.1268  0.1561  0.2985
    4BIM    C2536235   3.748   9.309   3.973  0.3754  0.1305 -0.0260
    4BIM    C2636236   3.841   9.399   4.024  0.4888  0.0889 -0.1602
    4BIM    C2736237   3.949   9.347   4.097  0.3459  0.0720  0.0404
    4BIM    C2836238   4.063   9.414   4.163  0.4090  0.0293 -0.0254
    4BIM    C2936239   4.089   9.550   4.166  0.6348 -0.0043 -0.3155
    4BIM    C3036240   4.004   9.646   4.103  0.8450 -0.0024 -0.6001
    4BIM    C3136241   4.202   9.605   4.232  0.6787 -0.0443 -0.3566
    5BIM     F136242   4.263   7.533   4.749  0.1619  0.1687 -0.3511
    5BIM     F236243   4.432   7.354   4.866  0.0705  0.0958 -0.3296
    5BIM     O136244   4.522   7.998   4.850  0.0728  0.1080  0.1614
    5BIM     N536245   4.859   7.427   5.105 -0.1247 -0.0521  0.0665
    5BIM     N636246   5.027   7.826   5.161 -0.1758 -0.0849  0.4625
    5BIM    C1936247   4.775   7.991   4.998 -0.0462  0.0168  0.3636
    5BIM    C2036248   4.703   7.882   4.968 -0.0203  0.0348  0.2341
    5BIM    C2136249   4.574   7.893   4.892  0.0411  0.0819  0.1359
    5BIM    C2236250   4.523   7.756   4.876  0.0557  0.0911  0.0049
    5BIM    C2336251   4.406   7.716   4.812  0.1080  0.1302 -0.1166
    5BIM    C2436252   4.377   7.580   4.810  0.1117  0.1309 -0.2275
    5BIM    C2536253   4.464   7.488   4.871  0.0644  0.0934 -0.2162
    5BIM    C2636254   4.581   7.527   4.934  0.0123  0.0542 -0.0954
    5BIM    C2736255   4.612   7.664   4.937  0.0076  0.0529  0.0180
    5BIM    C2836256   4.726   7.738   4.996 -0.0408  0.0168  0.1594
    5BIM    C2936257   4.833   7.683   5.063 -0.0948 -0.0254  0.2110
    5BIM    C3036258   4.847   7.543   5.086 -0.1111 -0.0398  0.1314
    5BIM    C3136259   4.939   7.762   5.116 -0.1390 -0.0578  0.3490
    1BTD     S236260   0.077   6.847   1.422 -0.0183  0.2407  0.1102
    1BTD     N136261  -0.062   6.960   1.407  0.0882  0.3189 -0.3036
    1BTD     N236262   0.183   6.965   1.507 -0.2097  0.1737  0.4462
    1BTD     N336263   0.148   7.410   1.652 -0.4071  0.1788  0.3837
    1BTD     N436264  -0.153   7.404   1.528 -0.0401  0.3576 -0.5402
    1BTD     C536265  -0.106   7.192   1.472  0.0169  0.3369 -0.4160
    1BTD     C636266  -0.024   7.074   1.463 -0.0186  0.2924 -0.1766
    1BTD     C736267   0.113   7.077   1.519 -0.1855  0.2112  0.2431
    1BTD     C836268   0.161   7.197   1.581 -0.3083  0.1786  0.4024
    1BTD    C1536269   0.077   7.310   1.588 -0.2679  0.2242  0.1570
    1BTD    C1636270  -0.055   7.307   1.534 -0.1073  0.3023 -0.2474
    1BTD    C4336271  -0.129   7.548   1.538  0.2302 -0.0529  0.1808
    1BTD    C4436272  -0.242   7.647   1.575  0.0590 -0.1096 -0.5433
    1BTD    C4536273  -0.285   7.633   1.727 -0.0881  0.2618  0.0197
    1BTD    C4636274  -0.417   7.689   1.768 -0.1845 -0.1958  0.3993
    1BTD    C4736275  -0.199   7.793   1.561 -0.5828  0.3704 -0.2968
    1BTD    C4836276  -0.145   7.830   1.417  0.0542  0.0034 -0.6144
    1BTD    C4936277  -0.102   7.975   1.411  0.3466 -0.3743 -0.6119
    1BTD    C5036278  -0.216   8.083   1.423 -0.3388 -0.2616 -0.2848
    1BTD    C7536279   0.093   7.499   1.756 -0.5849 -0.1826  0.3647
    1BTD    C7636280   0.160   7.639   1.790  0.4972  0.5582 -0.7585
    1BTD    C7736281   0.102   7.703   1.914  0.2013 -0.3420 -0.5391
    1BTD    C7836282  -0.035   7.764   1.919 -0.0510 -0.3524 -0.2804
    1BTD    C7936283   0.180   7.735   1.670 -0.5562 -0.2074  0.4633
    1BTD    C8036284   0.241   7.875   1.695 -0.4384  0.2007  1.1181
    1BTD    C8136285   0.266   7.955   1.566 -0.3326 -0.4880  0.3238
    1BTD    C8236286   0.369   7.911   1.468  0.2556  0.2560  0.3140
    2TTP     S136287  -0.378   7.134   1.358 -0.2453 -0.1079  0.0634
    2TTP     S536288  -0.498   7.541   1.430  0.2611  0.0656 -0.0681
    2TTP     C136289  -0.635   7.454   1.348  0.1856  0.2344 -0.1224
    2TTP     C236290  -0.606   7.323   1.321  0.0248  0.1906 -0.0850
    2TTP     C336291  -0.475   7.287   1.364 -0.0446  0.0225 -0.0121
    2TTP     C436292  -0.241   7.222   1.440 -0.1700 -0.2764  0.1177
    2TTP    C1736293  -0.270   7.352   1.467 -0.0090 -0.2329  0.0803
    2TTP    C1836294  -0.401   7.388   1.424  0.0603 -0.0647  0.0074
    2TTP    C3236295  -0.689   7.224   1.245 -0.0727  0.5471  0.4157
    2TTP    C3336296  -0.759   7.115   1.324  0.8614  0.3585 -0.8950
    2TTP    C3436297  -0.873   7.156   1.416  0.2909 -0.0551  0.0118
    2TTP    C3536298  -0.940   7.036   1.480  0.1749 -0.3400  0.3217
    2TTP    C3636299  -1.073   7.075   1.543  0.1755 -0.2223 -0.2183
    2TTP    C3736300  -1.114   6.967   1.649  0.5044 -0.2060 -0.3599
    2TTP    C3836301  -1.254   6.981   1.703  0.7695  0.5993  0.2165
    2TTP    C3936302  -1.375   6.980   1.604 -0.1608  0.2247 -0.0410
    2TTP    C4036303  -1.399   6.854   1.521  0.0519  0.4566 -0.1822
    2TTP    C4136304  -1.503   6.886   1.419  0.5864 -0.8509  0.0932
    2TTP    C4236305  -1.566   6.769   1.350  0.2422  0.3904 -0.2228
    3TTP     S136306   0.460   7.164   1.653  0.1045  0.0691 -0.1483
    3TTP     S536307   0.457   7.563   1.811 -0.1298  0.1285 -0.3004
    3TTP     C136308   0.624   7.493   1.833 -0.1421  0.1620 -0.0935
    3TTP     C236309   0.634   7.366   1.785 -0.0704  0.1459 -0.0343
    3TTP     C336310   0.511   7.319   1.730 -0.0033  0.1060 -0.1503
    3TTP     C436311   0.293   7.233   1.631  0.1168  0.0356 -0.3553
    3TTP    C1736312   0.283   7.361   1.679  0.0451  0.0518 -0.4144
    3TTP    C1836313   0.406   7.408   1.734 -0.0220  0.0914 -0.2985
    3TTP    C3236314   0.755   7.271   1.768  0.3111 -0.0812  0.1432
    3TTP    C3336315   0.779   7.165   1.874 -0.1112 -0.7546  0.0238
    3TTP    C3436316   0.912   7.096   1.859 -0.0892  0.0910  0.4766
    3TTP    C3536317   0.953   6.994   1.968  0.6341  0.6384  0.6140
    3TTP    C3636318   1.089   6.925   1.973  0.2973 -0.1554 -0.1351
    3TTP    C3736319   1.212   7.025   1.981  0.2550 -0.5195  0.2134
    3TTP    C3836320   1.345   6.960   2.002 -0.4465  0.1572  0.4820
    3TTP    C3936321   1.375   6.913   2.147 -1.3615  0.1817 -0.3983
    3TTP    C4036322   1.529   6.888   2.147  0.5452  0.3689  0.1523
    3TTP    C4136323   1.583   6.864   2.282  0.6895  0.3274  0.7218
    3TTP    C4236324   1.726   6.844   2.286 -0.6038 -0.1081 -0.4048
    4BIM     F136325  -1.004   8.175   1.485  0.0560  0.1652 -0.2523
    4BIM     F236326  -1.213   8.089   1.332 -0.0393 -0.0904  0.0204
    4BIM     O136327  -0.679   7.743   1.466  0.2055  0.2675 -0.0314
    4BIM     N536328  -1.280   7.658   1.099 -0.0701 -0.3844  0.5699
    4BIM     N636329  -0.984   7.338   1.115  0.0658 -0.2527  0.6875
    4BIM    C1936330  -0.762   7.508   1.313  0.1676  0.0600  0.3075
    4BIM    C2036331  -0.836   7.620   1.324  0.1338  0.0443  0.2413
    4BIM    C2136332  -0.786   7.737   1.404  0.1562  0.1559  0.0661
    4BIM    C2236333  -0.890   7.841   1.395  0.1087  0.1054  0.0340
    4BIM    C2336334  -0.889   7.967   1.453  0.1090  0.1729 -0.1114
    4BIM    C2436335  -0.999   8.049   1.431  0.0586  0.1042 -0.1124
    4BIM    C2536336  -1.106   8.004   1.352  0.0093 -0.0272  0.0282
    4BIM    C2636337  -1.108   7.878   1.293  0.0091 -0.0949  0.1737
    4BIM    C2736338  -0.997   7.795   1.315  0.0594 -0.0275  0.1771
    4BIM    C2836339  -0.968   7.657   1.269  0.0727 -0.0703  0.3102
    4BIM    C2936340  -1.049   7.579   1.189  0.0358 -0.1925  0.4669
    4BIM    C3036341  -1.176   7.623   1.140 -0.0224 -0.2977  0.5230
    4BIM    C3136342  -1.012   7.447   1.149  0.0527 -0.2251  0.5873
    5BIM     F136343   0.771   8.266   2.068  0.1366 -0.0482 -0.0200
    5BIM     F236344   1.002   8.179   2.183  0.1718 -0.1075 -0.1347
    5BIM     O136345   0.582   7.803   1.860 -0.1303 -0.0148  0.1481
    5BIM     N536346   1.199   7.726   2.201  0.0321 -0.1699 -0.1797
    5BIM     N636347   1.004   7.382   2.016 -0.1835 -0.1318 -0.0252
    5BIM    C1936348   0.735   7.556   1.897 -0.1915 -0.0600  0.0983
    5BIM    C2036349   0.774   7.676   1.944 -0.1257 -0.0660  0.0604
    5BIM    C2136350   0.689   7.798   1.922 -0.0980 -0.0416  0.0896
    5BIM    C2236351   0.760   7.910   1.986 -0.0254 -0.0558  0.0353
    5BIM    C2336352   0.721   8.044   1.992  0.0215 -0.0420  0.0384
    5BIM    C2436353   0.804   8.132   2.059  0.0875 -0.0600 -0.0196
    5BIM    C2536354   0.923   8.088   2.118  0.1055 -0.0910 -0.0785
    5BIM    C2636355   0.963   7.955   2.113  0.0589 -0.1047 -0.0820
    5BIM    C2736356   0.880   7.864   2.046 -0.0081 -0.0868 -0.0237
    5BIM    C2836357   0.893   7.718   2.022 -0.0690 -0.0943 -0.0107
    5BIM    C2936358   0.996   7.637   2.065 -0.0723 -0.1222 -0.0560
    5BIM    C3036359   1.107   7.686   2.140 -0.0148 -0.1484 -0.1239
    5BIM    C3136360   1.000   7.497   2.038 -0.1335 -0.1274 -0.0387
    1BTD     S236361   5.006   2.305   5.674 -0.0381 -0.0996  0.1064
    1BTD     N136362   4.928   2.185   5.564 -0.0479 -0.0453  0.0540
    1BTD     N236363   4.890   2.437   5.636  0.0056 -0.0566  0.1224
    1BTD     N336364   4.514   2.490   5.360  0.0772  0.1286  0.0602
    1BTD     N436365   4.561   2.180   5.271  0.0112  0.1426 -0.0240
    1BTD     C536366   4.736   2.186   5.412 -0.0162  0.0526  0.0143
    1BTD     C636367   4.826   2.247   5.507 -0.0194 -0.0004  0.0513
    1BTD     C736368   4.804   2.387   5.548  0.0105 -0.0067  0.0894
    1BTD     C836369   4.694   2.461   5.490  0.0421  0.0403  0.0889
    1BTD    C1536370   4.609   2.397   5.398  0.0442  0.0913  0.0520
    1BTD    C1636371   4.630   2.262   5.359  0.0153  0.0974  0.0152
    1BTD    C4336372   4.422   2.192   5.227  1.0032  0.4101 -0.0439
    1BTD    C4436373   4.344   2.144   5.104  0.6173  0.0271  0.0348
    1BTD    C4536374   4.191   2.137   5.129 -0.3119  0.3020  0.5181
    1BTD    C4636375   4.126   2.259   5.169 -0.2433 -1.2033  0.0939
    1BTD    C4736376   4.392   2.195   4.965 -0.2141  0.3726  0.4567
    1BTD    C4836377   4.333   2.140   4.835  0.0451  0.6393  0.1144
    1BTD    C4936378   4.346   1.984   4.806  0.7779 -0.1681  0.8243
    1BTD    C5036379   4.485   1.937   4.775  0.1605  0.2374  0.4317
    1BTD    C7536380   4.419   2.497   5.244 -0.3009  0.0960 -0.7663
    1BTD    C7636381   4.463   2.565   5.113  0.3361  0.3331 -0.2251
    1BTD    C7736382   4.573   2.484   5.050  0.1722 -0.2557  0.2953
    1BTD    C7836383   4.649   2.521   4.913 -0.3165 -0.3533 -0.2898
    1BTD    C7936384   4.353   2.593   5.015  0.5654 -0.5879 -0.1384
    1BTD    C8036385   4.253   2.704   5.052  0.2766 -0.4497  0.0913
    1BTD    C8136386   4.149   2.739   4.939 -0.0148  0.3483 -0.0746
    1BTD    C8236387   4.049   2.844   4.988 -0.3108 -0.4562  0.3305
    2TTP     S136388   4.804   1.893   5.378 -0.0830 -0.0885  0.0961
    2TTP     S536389   4.449   1.836   5.142  0.0722 -0.1853 -0.1147
    2TTP     C136390   4.529   1.675   5.166 -0.1218 -0.2251  0.2867
    2TTP     C236391   4.643   1.683   5.240 -0.1812 -0.1976  0.3754
    2TTP     C336392   4.672   1.817   5.281 -0.0755 -0.1440  0.1295
    2TTP     C436393   4.724   2.055   5.354  0.1112 -0.0488 -0.3052
    2TTP    C1736394   4.609   2.047   5.280  0.1706 -0.0762 -0.3940
    2TTP    C1836395   4.581   1.913   5.239  0.0648 -0.1298 -0.1483
    2TTP    C3236396   4.747   1.580   5.295 -0.2525  0.1453  0.1035
    2TTP    C3336397   4.847   1.530   5.199 -0.1479 -0.4839  0.2004
    2TTP    C3436398   4.948   1.429   5.254  0.0118 -0.1789 -0.0040
    2TTP    C3536399   5.050   1.376   5.151 -0.5790 -0.1659 -0.0207
    2TTP    C3636400   5.153   1.272   5.209  0.2105  0.0575  0.1241
    2TTP    C3736401   5.243   1.228   5.101 -0.2174  0.0310 -0.1444
    2TTP    C3836402   5.354   1.138   5.143  0.0950  0.3440 -0.1261
    2TTP    C3936403   5.420   1.072   5.028 -0.4594 -0.1830  0.3589
    2TTP    C4036404   5.533   0.984   5.079 -0.0669  0.5470 -0.2927
    2TTP    C4136405   5.603   0.894   4.970  0.6103  0.1474 -0.2492
    2TTP    C4236406   5.689   0.788   5.037 -0.4643 -0.2898 -0.0438
    3TTP     S136407   4.694   2.746   5.594 -0.0586  0.0124  0.0751
    3TTP     S536408   4.355   2.832   5.345  0.0248 -0.1343 -0.0900
    3TTP     C136409   4.401   2.984   5.435 -0.0726 -0.1095 -0.0811
    3TTP     C236410   4.509   2.966   5.517 -0.1043 -0.0628 -0.0297
    3TTP     C336411   4.558   2.832   5.512 -0.0526 -0.0449  0.0048
    3TTP     C436412   4.648   2.594   5.505  0.0387 -0.0124  0.0663
    3TTP    C1736413   4.540   2.612   5.423  0.0704 -0.0591  0.0147
    3TTP    C1836414   4.491   2.746   5.427  0.0187 -0.0771 -0.0196
    3TTP    C3236415   4.576   3.069   5.615 -0.5612 -0.3553  0.0482
    3TTP    C3336416   4.727   3.095   5.611  0.4490  0.1550  0.5856
    3TTP    C3436417   4.792   3.127   5.477  0.0329  0.0882  0.5530
    3TTP    C3536418   4.744   3.253   5.397  0.3755 -0.0273  0.2311
    3TTP    C3636419   4.753   3.382   5.485 -0.0971  0.0811 -0.1712
    3TTP    C3736420   4.655   3.504   5.444  0.2770 -0.1072  0.5552
    3TTP    C3836421   4.669   3.539   5.295  0.3163 -0.4186 -0.0903
    3TTP    C3936422   4.555   3.623   5.237 -0.1388 -0.6338 -0.1166
    3TTP    C4036423   4.564   3.677   5.101 -0.3694  0.0231  1.0504
    3TTP    C4136424   4.436   3.748   5.047  0.4067  0.1393 -0.2275
    3TTP    C4236425   4.437   3.781   4.896  0.1553  0.2105  0.0391
    4BIM     F136426   3.989   1.449   4.593  0.0380 -0.1216 -0.3448
    4BIM     F236427   4.052   1.189   4.645 -0.2924 -0.1232  0.0511
    4BIM     O136428   4.314   1.705   4.943  0.0515 -0.0167 -0.4338
    4BIM     N536429   4.373   0.998   4.970 -0.7577 -0.0508  0.5568
    4BIM     N636430   4.614   1.250   5.232 -0.6804  0.0314  0.4076
    4BIM    C1936431   4.489   1.548   5.117 -0.2593  0.0189 -0.0871
    4BIM    C2036432   4.405   1.493   5.027 -0.2499 -0.0074 -0.0802
    4BIM    C2136433   4.318   1.581   4.941 -0.0854 -0.0244 -0.2648
    4BIM    C2236434   4.240   1.490   4.855 -0.1196 -0.0518 -0.2049
    4BIM    C2336435   4.145   1.525   4.758 -0.0058 -0.0745 -0.3251
    4BIM    C2436436   4.084   1.422   4.689 -0.0677 -0.0983 -0.2349
    4BIM    C2536437   4.116   1.288   4.717 -0.2378 -0.0990 -0.0308
    4BIM    C2636438   4.210   1.253   4.812 -0.3519 -0.0764  0.0898
    4BIM    C2736439   4.273   1.356   4.883 -0.2918 -0.0522  0.0012
    4BIM    C2836440   4.376   1.352   4.990 -0.3787 -0.0249  0.0859
    4BIM    C2936441   4.434   1.240   5.045 -0.5462 -0.0174  0.2811
    4BIM    C3036442   4.400   1.108   5.003 -0.6620 -0.0358  0.4319
    4BIM    C3136443   4.533   1.246   5.148 -0.6192  0.0094  0.3496
    5BIM     F136444   4.194   3.400   4.754  0.4350 -0.2390 -0.2177
    5BIM     F236445   4.140   3.617   4.910 -0.0703 -0.2612 -0.3583
    5BIM     O136446   4.354   3.042   5.127  0.4337  0.1028  0.1119
    5BIM     N536447   4.176   3.672   5.401 -0.7974 -0.0495 -0.3257
    5BIM     N636448   4.312   3.349   5.661 -0.6963  0.2220 -0.0397
    5BIM    C1936449   4.359   3.122   5.409 -0.0492  0.2030  0.0946
    5BIM    C2036450   4.321   3.203   5.309 -0.0291  0.1178  0.0172
    5BIM    C2136451   4.321   3.155   5.167  0.2259  0.0709  0.0319
    5BIM    C2236452   4.274   3.268   5.084  0.1793 -0.0199 -0.0665
    5BIM    C2336453   4.258   3.271   4.946  0.3580 -0.0882 -0.0902
    5BIM    C2436454   4.212   3.390   4.890  0.2685 -0.1686 -0.1890
    5BIM    C2536455   4.184   3.501   4.971  0.0082 -0.1799 -0.2614
    5BIM    C2636456   4.201   3.499   5.109 -0.1711 -0.1121 -0.2383
    5BIM    C2736457   4.247   3.380   5.167 -0.0843 -0.0302 -0.1386
    5BIM    C2836458   4.274   3.344   5.309 -0.2227  0.0541 -0.0901
    5BIM    C2936459   4.259   3.426   5.418 -0.4809  0.0699 -0.1359
    5BIM    C3036460   4.213   3.561   5.408 -0.6540  0.0042 -0.2402
    5BIM    C3136461   4.288   3.383   5.551 -0.5980  0.1535 -0.0827
    1BTD     S236462   0.690   7.772   7.224  0.2352  0.0991  0.1229
    1BTD     N136463   0.564   7.651   7.183  0.4756  0.0744 -0.5542
    1BTD     N236464   0.589   7.914   7.177  0.0113  0.1597  0.7659
    1BTD     N336465   0.158   7.983   7.007 -0.0109  0.2389  0.8537
    1BTD     N436466   0.126   7.659   7.013  0.5613  0.1334 -0.7732
    1BTD     C536467   0.336   7.659   7.094  0.5134  0.1063 -0.6489
    1BTD     C636468   0.459   7.718   7.138  0.3815  0.1106 -0.2804
    1BTD     C736469   0.473   7.866   7.135  0.1215  0.1585  0.4586
    1BTD     C836470   0.364   7.946   7.088  0.0066  0.1998  0.7921
    1BTD    C1536471   0.245   7.883   7.046  0.1430  0.1941  0.4110
    1BTD    C1636472   0.231   7.741   7.049  0.3934  0.1479 -0.3012
    1BTD    C4336473   0.039   7.668   6.894 -0.1253  0.2571 -0.3321
    1BTD    C4436474  -0.100   7.602   6.880 -0.1544 -0.0152  0.1876
    1BTD    C4536475  -0.154   7.591   6.734 -0.3761 -0.3947  0.8403
    1BTD    C4636476  -0.082   7.489   6.649 -0.3694  0.5235  0.1027
    1BTD    C4736477  -0.199   7.654   6.988  0.4216 -0.2633  0.2180
    1BTD    C4836478  -0.336   7.598   6.993  0.1258 -0.2023  0.0731
    1BTD    C4936479  -0.420   7.658   7.106 -0.8823 -0.2159 -0.3964
    1BTD    C5036480  -0.382   7.633   7.257 -0.7424  0.1086 -0.7249
    1BTD    C7536481   0.012   7.970   7.000  0.0947 -0.1234 -0.2556
    1BTD    C7636482  -0.065   8.040   6.877 -0.3335  0.1126  0.2444
    1BTD    C7736483  -0.010   7.979   6.752 -0.5708 -0.1877  0.0243
    1BTD    C7836484  -0.026   8.060   6.619 -0.3133  0.4827 -0.2449
    1BTD    C7936485  -0.219   8.032   6.878  0.7297 -0.1127 -0.1097
    1BTD    C8036486  -0.290   8.072   7.012 -0.0899 -0.5007  0.0210
    1BTD    C8136487  -0.290   8.217   7.064 -0.3527 -0.3513 -0.6425
    1BTD    C8236488  -0.394   8.298   6.989  0.0392  0.1226 -0.7633
    2TTP     S136489   0.337   7.367   7.167 -0.0171  0.4446  0.0392
    2TTP     S536490  -0.079   7.346   7.062  0.1290 -0.0407 -0.4488
    2TTP     C136491  -0.031   7.188   7.138  0.1656  0.1016 -0.1774
    2TTP     C236492   0.101   7.185   7.175  0.1226  0.2599 -0.0106
    2TTP     C336493   0.168   7.308   7.145  0.0592  0.2744 -0.0912
    2TTP     C436494   0.289   7.525   7.090 -0.0536  0.3023 -0.2322
    2TTP    C1736495   0.157   7.527   7.053 -0.0107  0.1441 -0.3990
    2TTP    C1836496   0.090   7.405   7.084  0.0526  0.1295 -0.3183
    2TTP    C3236497   0.181   7.077   7.245 -0.2837  0.3177 -0.7933
    2TTP    C3336498   0.268   6.978   7.161  1.1371 -0.1837 -0.0775
    2TTP    C3436499   0.285   6.851   7.241 -0.4654 -0.0847 -0.2327
    2TTP    C3536500   0.370   6.747   7.172 -0.1805  0.8992 -0.3635
    2TTP    C3636501   0.331   6.610   7.224 -0.0460  0.1468 -0.9918
    2TTP    C3736502   0.405   6.489   7.178  0.2736 -0.2250 -0.4047
    2TTP    C3836503   0.366   6.439   7.039  0.7860 -0.1036  0.9279
    2TTP    C3936504   0.434   6.305   7.000 -0.3936 -0.3993  0.2529
    2TTP    C4036505   0.591   6.277   7.006  0.0188  0.2656 -0.0693
    2TTP    C4136506   0.681   6.375   6.927 -0.2940 -0.3934 -0.8028
    2TTP    C4236507   0.828   6.344   6.967  1.0309 -0.0334 -0.0249
    3TTP     S136508   0.439   8.241   7.090  0.0070 -0.1017 -0.0800
    3TTP     S536509   0.048   8.344   6.942  0.0498 -0.1061 -0.1975
    3TTP     C136510   0.142   8.498   6.969  0.0835 -0.1107 -0.2897
    3TTP     C236511   0.268   8.475   7.016  0.0723 -0.1097 -0.2587
    3TTP     C336512   0.295   8.336   7.033  0.0366 -0.1051 -0.1612
    3TTP     C436513   0.345   8.088   7.063 -0.0268 -0.0968  0.0120
    3TTP    C1736514   0.219   8.111   7.016 -0.0155 -0.0980 -0.0189
    3TTP    C1836515   0.192   8.250   6.999  0.0201 -0.1028 -0.1163
    3TTP    C3236516   0.367   8.578   7.077  0.1824  0.3854  0.1100
    3TTP    C3336517   0.500   8.576   7.015  0.6661 -0.2127  0.1763
    3TTP    C3436518   0.566   8.699   7.062  0.0218  0.2700 -0.0456
    3TTP    C3536519   0.693   8.722   6.980 -0.4541 -0.1980 -0.3479
    3TTP    C3636520   0.757   8.861   7.002  0.0677 -0.5848  0.1092
    3TTP    C3736521   0.671   8.979   6.952 -0.5933 -0.1395 -0.0377
    3TTP    C3836522   0.739   9.106   6.988  0.1802 -0.3202  0.2524
    3TTP    C3936523   0.653   9.227   6.987  0.4220 -0.7974  0.1858
    3TTP    C4036524   0.542   9.216   7.091  0.0088 -0.1049 -0.2469
    3TTP    C4136525   0.448   9.335   7.063 -0.2615 -0.2392  0.5366
    3TTP    C4236526   0.326   9.349   7.153  0.5567 -0.1161 -0.2712
    4BIM     F136527  -0.824   7.153   7.338 -0.3188 -0.3773 -0.0175
    4BIM     F236528  -0.811   6.882   7.314 -0.0641 -0.3788  0.1217
    4BIM     O136529  -0.311   7.289   7.229 -0.3633  0.0201  0.2645
    4BIM     N536530  -0.428   6.590   7.202  0.2694 -0.0978  0.5234
    4BIM     N636531  -0.030   6.751   7.121  0.1836  0.2131  0.7156
    4BIM    C1936532  -0.117   7.079   7.167 -0.1361  0.1598  0.4979
    4BIM    C2036533  -0.247   7.055   7.195 -0.1349  0.0600  0.4214
    4BIM    C2136534  -0.341   7.169   7.226 -0.2556 -0.0070  0.3030
    4BIM    C2236535  -0.472   7.108   7.252 -0.2205 -0.1104  0.2426
    4BIM    C2336536  -0.591   7.174   7.285 -0.3004 -0.1982  0.1307
    4BIM    C2436537  -0.703   7.095   7.305 -0.2455 -0.2875  0.0923
    4BIM    C2536538  -0.697   6.956   7.293 -0.1140 -0.2881  0.1642
    4BIM    C2636539  -0.579   6.890   7.260 -0.0341 -0.2006  0.2761
    4BIM    C2736540  -0.464   6.968   7.239 -0.0880 -0.1097  0.3165
    4BIM    C2836541  -0.325   6.929   7.204 -0.0300 -0.0050  0.4293
    4BIM    C2936542  -0.278   6.802   7.183  0.0963  0.0256  0.5227
    4BIM    C3036543  -0.361   6.686   7.193  0.1912 -0.0423  0.5227
    4BIM    C3136544  -0.142   6.775   7.149  0.1435  0.1286  0.6284
    5BIM     F136545  -0.511   8.854   6.615  0.1903  0.0391 -0.1663
    5BIM     F236546  -0.387   9.095   6.639 -0.0160  0.1283 -0.0030
    5BIM     O136547  -0.141   8.527   6.837  0.4537  0.2103 -0.3514
    5BIM     N536548   0.054   9.209   6.833 -0.1245  0.3796  0.0997
    5BIM     N636549   0.318   8.905   7.001  0.1227  0.4954 -0.0780
    5BIM    C1936550   0.109   8.641   6.939  0.3502  0.3567 -0.2613
    5BIM    C2036551   0.011   8.714   6.882  0.2921  0.3102 -0.2211
    5BIM    C2136552  -0.115   8.648   6.832  0.3512  0.2358 -0.2719
    5BIM    C2236553  -0.199   8.755   6.777  0.2635  0.1996 -0.2087
    5BIM    C2336554  -0.325   8.743   6.719  0.2778  0.1297 -0.2252
    5BIM    C2436555  -0.386   8.859   6.673  0.1822  0.1073 -0.1547
    5BIM    C2536556  -0.322   8.983   6.686  0.0763  0.1536 -0.0708
    5BIM    C2636557  -0.197   8.996   6.744  0.0615  0.2234 -0.0538
    5BIM    C2736558  -0.133   8.880   6.790  0.1571  0.2472 -0.1243
    5BIM    C2836559  -0.002   8.859   6.856  0.1705  0.3166 -0.1285
    5BIM    C2936560   0.091   8.957   6.886  0.0859  0.3765 -0.0598
    5BIM    C3036561   0.070   9.095   6.857 -0.0295  0.3781  0.0277
    5BIM    C3136562   0.215   8.928   6.949  0.1067  0.4416 -0.0702
    1BTD     S236563   0.994   2.666   4.668  0.1022  0.0544  0.0740
    1BTD     N136564   1.064   2.803   4.761  0.3199  0.0883 -0.1370
    1BTD     N236565   1.111   2.544   4.729 -0.1059 -0.0441  0.2800
    1BTD     N336566   1.477   2.544   5.023 -0.1372 -0.1838  0.3189
    1BTD     N436567   1.419   2.862   5.062  0.3875 -0.0206 -0.1948
    1BTD     C536568   1.250   2.830   4.918  0.3488  0.0294 -0.1611
    1BTD     C636569   1.166   2.753   4.830  0.2308  0.0275 -0.0474
    1BTD     C736570   1.192   2.609   4.812 -0.0076 -0.0466  0.1858
    1BTD     C836571   1.302   2.548   4.883 -0.1160 -0.1151  0.2942
    1BTD    C1536572   1.381   2.627   4.969  0.0063 -0.1104  0.1765
    1BTD    C1636573   1.356   2.766   4.986  0.2359 -0.0391 -0.0482
    1BTD    C4336574   1.548   2.850   5.124 -0.0354  0.1877 -0.6219
    1BTD    C4436575   1.648   2.967   5.133 -0.0096 -0.8218 -0.5942
    1BTD    C4536576   1.757   2.958   5.252  0.3801  0.4132  0.0801
    1BTD    C4636577   1.704   2.908   5.386 -0.7270  0.1949  0.5449
    1BTD    C4736578   1.686   3.037   4.999  0.3950 -0.2797 -0.9298
    1BTD    C4836579   1.749   3.182   5.016  0.0686  0.2349 -0.1948
    1BTD    C4936580   1.650   3.300   5.013  0.0569  0.2562 -0.4734
    1BTD    C5036581   1.602   3.333   4.875 -0.5681 -0.0800 -0.2603
    1BTD    C7536582   1.504   2.541   5.172 -0.0138 -0.5937  1.2067
    1BTD    C7636583   1.622   2.479   5.248 -0.9339  0.1067  0.0946
    1BTD    C7736584   1.760   2.557   5.230 -0.4999  0.4233 -0.1301
    1BTD    C7836585   1.825   2.551   5.091 -0.7274 -0.9064 -0.4715
    1BTD    C7936586   1.597   2.483   5.400  0.0841  0.0648  0.1629
    1BTD    C8036587   1.707   2.425   5.499  0.1805 -0.1982  0.3153
    1BTD    C8136588   1.780   2.294   5.475 -0.9379  0.8385 -0.6995
    1BTD    C8236589   1.698   2.160   5.492 -0.3962 -1.1338 -0.0686
    2TTP     S136590   1.127   3.103   4.976  0.4203  0.1355 -0.0950
    2TTP     S536591   1.409   3.162   5.295 -0.0927 -0.1982  0.4249
    2TTP     C136592   1.287   3.296   5.301  0.1630  0.0521  0.0823
    2TTP     C236593   1.193   3.286   5.202  0.3364  0.1698 -0.0987
    2TTP     C336594   1.214   3.171   5.119  0.2737  0.0667  0.0271
    2TTP     C436595   1.249   2.968   4.971  0.1646 -0.1148  0.2476
    2TTP    C1736596   1.344   2.979   5.069 -0.0089 -0.2326  0.4285
    2TTP    C1836597   1.323   3.093   5.152  0.0539 -0.1294  0.3027
    2TTP    C3236598   1.074   3.378   5.170 -0.4238  0.3080  0.2375
    2TTP    C3336599   1.088   3.481   5.057  0.1015 -0.0345  0.3259
    2TTP    C3436600   0.952   3.559   5.049 -0.0268 -0.0111 -0.3006
    2TTP    C3536601   0.957   3.678   4.962 -0.7600 -0.6537  0.0251
    2TTP    C3636602   0.833   3.763   4.972 -0.0816  0.1807  0.6423
    2TTP    C3736603   0.833   3.891   4.888 -0.5575 -0.0498 -0.1599
    2TTP    C3836604   0.700   3.960   4.880 -0.6727 -0.0357 -0.9900
    2TTP    C3936605   0.648   4.027   5.009  0.2620  0.1917  0.1533
    2TTP    C4036606   0.521   4.111   4.982  0.4042 -0.0093  0.1996
    2TTP    C4136607   0.435   4.148   5.099 -0.2713 -0.1874 -0.2240
    2TTP    C4236608   0.308   4.228   5.068  0.2571  0.4216  0.0867
    3TTP     S136609   1.331   2.256   4.798 -0.2222 -0.0928  0.0571
    3TTP     S536610   1.699   2.234   5.020 -0.3960 -0.2223  0.3344
    3TTP     C136611   1.680   2.080   4.925 -0.2972 -0.1464  0.1896
    3TTP     C236612   1.565   2.078   4.851 -0.2378 -0.1020  0.0956
    3TTP     C336613   1.488   2.198   4.867 -0.2680 -0.1262  0.1343
    3TTP     C436614   1.351   2.410   4.893 -0.3210 -0.1687  0.2019
    3TTP    C1736615   1.466   2.413   4.967 -0.3805 -0.2132  0.2960
    3TTP    C1836616   1.543   2.293   4.952 -0.3502 -0.1889  0.2573
    3TTP    C3236617   1.516   1.969   4.762 -0.5917  0.4450  0.7405
    3TTP    C3336618   1.408   1.884   4.829  0.0236  0.1292  0.4895
    3TTP    C3436619   1.347   1.774   4.742 -0.1529 -0.0058 -0.0341
    3TTP    C3536620   1.267   1.815   4.619 -0.7406 -0.1127  0.7217
    3TTP    C3636621   1.202   1.691   4.547  0.3184 -0.6038  0.3301
    3TTP    C3736622   1.106   1.731   4.435  0.5357  0.2935  0.2594
    3TTP    C3836623   0.979   1.818   4.464  0.2573 -0.0649  0.9495
    3TTP    C3936624   0.882   1.837   4.349  0.1692  0.4663  0.4643
    3TTP    C4036625   0.750   1.900   4.400 -0.3180 -0.3077 -0.1493
    3TTP    C4136626   0.639   1.937   4.296 -0.5252 -0.4089 -0.0021
    3TTP    C4236627   0.546   1.825   4.257 -0.0651 -0.5282 -0.4338
    4BIM     F136628   1.734   3.464   5.970 -0.3795  0.3091  0.1930
    4BIM     F236629   1.640   3.719   5.960 -0.1823  0.3678 -0.1692
    4BIM     O136630   1.474   3.241   5.550 -0.2626  0.0106  0.2785
    4BIM     N536631   1.320   3.928   5.645  0.1845  0.2394 -0.6288
    4BIM     N636632   1.136   3.702   5.319  0.2361 -0.0057 -0.4890
    4BIM    C1936633   1.293   3.406   5.391 -0.0327 -0.0394 -0.0373
    4BIM    C2036634   1.362   3.452   5.497 -0.0698  0.0334 -0.0445
    4BIM    C2136635   1.453   3.361   5.574 -0.1892  0.0547  0.1235
    4BIM    C2236636   1.512   3.443   5.682 -0.2013  0.1376  0.0679
    4BIM    C2336637   1.603   3.402   5.779 -0.2970  0.1833  0.1768
    4BIM    C2436638   1.644   3.497   5.871 -0.2881  0.2605  0.0934
    4BIM    C2536639   1.595   3.629   5.866 -0.1865  0.2906 -0.0932
    4BIM    C2636640   1.505   3.670   5.769 -0.0907  0.2454 -0.2028
    4BIM    C2736641   1.462   3.575   5.675 -0.0980  0.1670 -0.1206
    4BIM    C2836642   1.367   3.586   5.561 -0.0131  0.1042 -0.1971
    4BIM    C2936643   1.299   3.699   5.522  0.0969  0.1105 -0.3755
    4BIM    C3036644   1.311   3.824   5.589  0.1447  0.1814 -0.5141
    4BIM    C3136645   1.210   3.700   5.410  0.1729  0.0466 -0.4369
    5BIM     F136646   2.450   1.948   5.187 -0.0983 -0.0198  0.4256
    5BIM     F236647   2.429   1.691   5.098  0.2123  0.1983 -0.2877
    5BIM     O136648   1.964   2.144   5.049 -0.2163 -0.1338  0.6789
    5BIM     N536649   2.053   1.463   4.871  0.5746  0.4307 -1.1328
    5BIM     N636650   1.678   1.667   4.782  0.4197  0.2977 -0.7912
    5BIM    C1936651   1.772   1.968   4.915  0.0384  0.0341  0.0873
    5BIM    C2036652   1.895   1.929   4.953  0.0560  0.0543  0.0515
    5BIM    C2136653   1.988   2.025   5.022 -0.0806 -0.0363  0.3684
    5BIM    C2236654   2.112   1.950   5.049 -0.0211  0.0135  0.2365
    5BIM    C2336655   2.228   1.997   5.111 -0.1046 -0.0382  0.4320
    5BIM    C2436656   2.333   1.908   5.126 -0.0230  0.0261  0.2486
    5BIM    C2536657   2.322   1.776   5.080  0.1369  0.1384 -0.1187
    5BIM    C2636658   2.207   1.729   5.018  0.2209  0.1904 -0.3157
    5BIM    C2736659   2.099   1.818   5.002  0.1404  0.1268 -0.1347
    5BIM    C2836660   1.965   1.799   4.941  0.1941  0.1564 -0.2630
    5BIM    C2936661   1.916   1.684   4.885  0.3434  0.2588 -0.6074
    5BIM    C3036662   1.992   1.563   4.878  0.4700  0.3530 -0.8950
    5BIM    C3136663   1.785   1.675   4.829  0.3845  0.2796 -0.7064
    1BTD     S236664   2.212   4.845   4.496 -0.0217  0.0618  0.0846
    1BTD     N136665   2.222   4.672   4.544 -0.0993 -0.0607 -0.3281
    1BTD     N236666   2.033   4.847   4.485 -0.0423  0.2674  0.4333
    1BTD     N336667   1.685   4.539   4.550 -0.2246  0.4655  0.3984
    1BTD     N436668   1.918   4.324   4.624 -0.2949  0.0614 -0.5398
    1BTD     C536669   2.060   4.493   4.585 -0.2005  0.0079 -0.4274
    1BTD     C636670   2.097   4.627   4.550 -0.1348  0.0522 -0.1919
    1BTD     C736671   1.992   4.725   4.516 -0.1029  0.2359  0.2344
    1BTD     C836672   1.854   4.684   4.520 -0.1383  0.3660  0.4038
    1BTD    C1536673   1.822   4.551   4.555 -0.2026  0.3165  0.1617
    1BTD    C1636674   1.924   4.457   4.587 -0.2333  0.1396 -0.2491
    1BTD    C4336675   1.806   4.229   4.603 -0.2879  0.2461  0.4373
    1BTD    C4436676   1.766   4.117   4.699  1.1519 -0.0898  0.0997
    1BTD    C4536677   1.694   4.179   4.825 -0.5985  0.8364  1.2452
    1BTD    C4636678   1.628   4.096   4.938  0.3570 -0.4111  0.1234
    1BTD    C4736679   1.671   4.013   4.628 -0.0162 -0.3522  0.0026
    1BTD    C4836680   1.738   3.931   4.520 -0.4431 -0.2660 -0.3182
    1BTD    C4936681   1.634   3.876   4.424 -0.5993  0.1124  0.3284
    1BTD    C5036682   1.680   3.766   4.321  0.2216 -0.2021 -0.4276
    1BTD    C7536683   1.599   4.474   4.654 -0.2277  0.4751  0.2961
    1BTD    C7636684   1.460   4.412   4.630  0.0933 -0.3920  0.2857
    1BTD    C7736685   1.447   4.307   4.522  0.1738 -0.0099 -0.3792
    1BTD    C7836686   1.523   4.322   4.388  0.6978 -0.0904 -0.0559
    1BTD    C7936687   1.399   4.372   4.765  0.5666  0.5463  0.3866
    1BTD    C8036688   1.254   4.309   4.778 -0.2435  0.5892 -0.7787
    1BTD    C8136689   1.142   4.374   4.705  0.4969  0.7538 -0.0616
    1BTD    C8236690   1.007   4.310   4.715  0.3320  0.0250  0.4821
    2TTP     S136691   2.306   4.329   4.602  0.1362  0.1093  0.0429
    2TTP     S536692   2.059   3.977   4.610 -0.0735  0.2508 -0.1731
    2TTP     C136693   2.232   3.926   4.587 -0.0899  0.1548 -0.0823
    2TTP     C236694   2.319   4.031   4.584 -0.0260  0.1055 -0.0103
    2TTP     C336695   2.252   4.156   4.598  0.0380  0.1417 -0.0242
    2TTP     C436696   2.133   4.380   4.624  0.1526  0.2050 -0.0480
    2TTP    C1736697   2.047   4.274   4.628  0.0889  0.2546 -0.1201
    2TTP    C1836698   2.114   4.149   4.613  0.0248  0.2183 -0.1061
    2TTP    C3236699   2.467   4.022   4.577 -0.0439  0.3279  0.4970
    2TTP    C3336700   2.532   3.988   4.442 -0.2216  0.7085 -0.2293
    2TTP    C3436701   2.685   3.959   4.446  0.6390  0.2163  0.3467
    2TTP    C3536702   2.774   4.074   4.482 -1.0903 -0.1671  0.0144
    2TTP    C3636703   2.787   4.188   4.377  0.5442  0.2600 -0.0895
    2TTP    C3736704   2.875   4.296   4.419 -0.3018 -0.4918 -0.6256
    2TTP    C3836705   2.886   4.412   4.311  0.0494  0.2663 -0.0415
    2TTP    C3936706   3.005   4.502   4.336  0.0373 -0.0107 -0.2987
    2TTP    C4036707   2.999   4.631   4.260 -0.1993  0.3978  0.6780
    2TTP    C4136708   3.099   4.736   4.312 -0.1925  0.3174 -0.0069
    2TTP    C4236709   3.076   4.881   4.267  0.4618 -0.2438 -1.0888
    3TTP     S136710   1.680   4.921   4.450 -0.0796  0.2945  0.2146
    3TTP     S536711   1.331   4.675   4.500  0.1898 -0.1756 -0.1950
    3TTP     C136712   1.278   4.843   4.453  0.0112 -0.1920 -0.0538
    3TTP     C236713   1.382   4.928   4.435 -0.0825 -0.0478  0.0811
    3TTP     C336714   1.508   4.865   4.457 -0.0166  0.0807  0.0777
    3TTP     C436715   1.733   4.753   4.497  0.0989  0.3108  0.0734
    3TTP    C1736716   1.628   4.667   4.515  0.1927  0.1667 -0.0613
    3TTP    C1836717   1.502   4.731   4.493  0.1268  0.0380 -0.0581
    3TTP    C3236718   1.372   5.077   4.413  0.3432  0.3371 -0.2011
    3TTP    C3336719   1.376   5.134   4.268  0.4331 -0.2613 -0.0339
    3TTP    C3436720   1.445   5.267   4.238 -0.1812 -0.3857  0.5616
    3TTP    C3536721   1.565   5.307   4.314 -0.6986 -0.0734 -0.2731
    3TTP    C3636722   1.614   5.448   4.281 -0.4792  0.4618 -0.0844
    3TTP    C3736723   1.759   5.477   4.325  0.3414  0.2143 -0.1119
    3TTP    C3836724   1.866   5.379   4.282  0.0351 -0.2764  0.2312
    3TTP    C3936725   2.010   5.429   4.294 -0.3452  0.4400 -0.0935
    3TTP    C4036726   2.115   5.332   4.255 -0.4128 -0.0417  0.5253
    3TTP    C4136727   2.244   5.403   4.258 -0.5810 -0.1611 -0.3438
    3TTP    C4236728   2.362   5.322   4.204  0.0689 -0.8214 -0.3838
    4BIM     F136729   1.869   3.310   4.195 -0.0834 -0.1382  0.0255
    4BIM     F236730   2.057   3.140   4.295 -0.0162 -0.0950 -0.0271
    4BIM     O136731   2.037   3.782   4.398 -0.1157 -0.0944 -0.0494
    4BIM     N536732   2.447   3.234   4.585  0.0575 -0.0017 -0.1562
    4BIM     N636733   2.541   3.637   4.724  0.0187  0.0238 -0.2042
    4BIM    C1936734   2.277   3.788   4.567 -0.0629 -0.0376 -0.1263
    4BIM    C2036735   2.227   3.676   4.512 -0.0575 -0.0503 -0.1055
    4BIM    C2136736   2.104   3.681   4.426 -0.0859 -0.0795 -0.0660
    4BIM    C2236737   2.077   3.543   4.383 -0.0713 -0.0869 -0.0516
    4BIM    C2336738   1.973   3.497   4.302 -0.0878 -0.1119 -0.0162
    4BIM    C2436739   1.969   3.361   4.274 -0.0686 -0.1140 -0.0088
    4BIM    C2536740   2.066   3.274   4.326 -0.0341 -0.0917 -0.0360
    4BIM    C2636741   2.170   3.319   4.407 -0.0173 -0.0667 -0.0713
    4BIM    C2736742   2.176   3.456   4.436 -0.0363 -0.0642 -0.0793
    4BIM    C2836743   2.272   3.535   4.517 -0.0265 -0.0408 -0.1135
    4BIM    C2936744   2.381   3.486   4.585  0.0054 -0.0152 -0.1463
    4BIM    C3036745   2.417   3.347   4.585  0.0339 -0.0079 -0.1515
    4BIM    C3136746   2.468   3.569   4.661  0.0125  0.0061 -0.1781
    5BIM     F136747   0.535   4.492   4.525  0.0938  0.0552 -0.0533
    5BIM     F236748   0.426   4.740   4.551  0.1544  0.0708  0.0527
    5BIM     O136749   1.056   4.615   4.451  0.1151 -0.0384 -0.0588
    5BIM     N536750   0.643   5.185   4.536  0.2568  0.0261  0.2011
    5BIM     N636751   1.072   5.231   4.473  0.2612 -0.0503  0.1757
    5BIM    C1936752   1.138   4.896   4.449  0.1806 -0.0569  0.0407
    5BIM    C2036753   1.011   4.855   4.467  0.1728 -0.0340  0.0378
    5BIM    C2136754   0.977   4.709   4.466  0.1386 -0.0257 -0.0147
    5BIM    C2236755   0.831   4.700   4.488  0.1387  0.0000 -0.0035
    5BIM    C2336756   0.754   4.585   4.495  0.1125  0.0154 -0.0397
    5BIM    C2436757   0.617   4.602   4.517  0.1185  0.0391 -0.0197
    5BIM    C2536758   0.562   4.730   4.530  0.1498  0.0469  0.0349
    5BIM    C2636759   0.639   4.845   4.523  0.1760  0.0318  0.0713
    5BIM    C2736760   0.777   4.830   4.502  0.1704  0.0077  0.0517
    5BIM    C2836761   0.885   4.931   4.489  0.1926 -0.0130  0.0793
    5BIM    C2936762   0.871   5.067   4.497  0.2253 -0.0124  0.1332
    5BIM    C3036763   0.746   5.132   4.518  0.2425  0.0088  0.1702
    5BIM    C3136764   0.982   5.157   4.483  0.2448 -0.0333  0.1562
    1BTD     S236765   6.435   1.369   8.139 -0.1302 -0.0339  0.0228
    1BTD     N136766   6.516   1.315   8.290 -0.5379  0.2978  0.3638
    1BTD     N236767   6.521   1.526   8.131  0.3027 -0.2858 -0.4055
    1BTD     N336768   6.843   1.751   8.389  0.4489 -0.2002 -0.6621
    1BTD     N436769   6.837   1.490   8.584 -0.5867  0.5190  0.2861
    1BTD     C536770   6.683   1.410   8.441 -0.5509  0.4047  0.3116
    1BTD     C636771   6.599   1.412   8.325 -0.3405  0.2083  0.1521
    1BTD     C736772   6.602   1.531   8.236  0.1299 -0.1183 -0.2785
    1BTD     C836773   6.689   1.640   8.268  0.3666 -0.2325 -0.5276
    1BTD    C1536774   6.770   1.633   8.383  0.1470 -0.0319 -0.3581
    1BTD    C1636775   6.767   1.519   8.468 -0.3063  0.2830  0.0566
    1BTD    C4336776   6.987   1.500   8.596  0.8948  0.6205 -0.2573
    1BTD    C4436777   7.065   1.499   8.726  0.3574 -0.3964  0.5258
    1BTD    C4536778   7.003   1.612   8.809 -0.1514 -0.3913  0.4614
    1BTD    C4636779   7.036   1.620   8.954  0.0498 -0.3995 -0.0712
    1BTD    C4736780   7.223   1.505   8.709 -0.3971 -0.1279  0.2160
    1BTD    C4836781   7.281   1.628   8.638 -0.4069 -0.2986 -0.0059
    1BTD    C4936782   7.431   1.647   8.605 -0.2589  0.6191 -0.9149
    1BTD    C5036783   7.483   1.540   8.509  0.2982 -0.0069  0.5319
    1BTD    C7536784   6.900   1.806   8.515 -0.0828 -0.5951 -0.2396
    1BTD    C7636785   7.009   1.916   8.539 -0.2471 -0.4656 -0.3102
    1BTD    C7736786   7.131   1.899   8.449  0.7007 -0.1630  0.7520
    1BTD    C7836787   7.240   1.996   8.442  0.2374 -0.3064  0.1785
    1BTD    C7936788   7.043   1.944   8.684 -0.2187 -0.4589 -0.4718
    1BTD    C8036789   6.935   1.968   8.795  0.1018  0.1214  0.0211
    1BTD    C8136790   6.839   2.089   8.779  0.3678 -0.1767  0.3037
    1BTD    C8236791   6.726   2.087   8.886 -0.5326  0.4186 -0.1758
    2TTP     S136792   6.618   1.161   8.601  0.2019 -0.2643  0.1123
    2TTP     S536793   6.871   1.310   8.916  0.1311  0.1990 -0.0484
    2TTP     C136794   6.794   1.155   8.972  0.3160  0.1475  0.0662
    2TTP     C236795   6.711   1.100   8.878  0.3490  0.0014  0.1223
    2TTP     C336796   6.706   1.178   8.759  0.2290 -0.0752  0.0770
    2TTP     C436797   6.695   1.316   8.545  0.0169 -0.2128 -0.0021
    2TTP    C1736798   6.778   1.371   8.639 -0.0160 -0.0667 -0.0585
    2TTP    C1836799   6.783   1.293   8.759  0.1038  0.0098 -0.0134
    2TTP    C3236800   6.622   0.975   8.882  0.1612  0.1743 -0.9212
    2TTP    C3336801   6.686   0.853   8.818  0.4015  0.5821 -0.1520
    2TTP    C3436802   6.575   0.757   8.765  0.5947  0.3547  0.4799
    2TTP    C3536803   6.548   0.636   8.858  0.5074  0.1983  0.2794
    2TTP    C3636804   6.437   0.546   8.800  0.6170 -1.0964  0.0115
    2TTP    C3736805   6.397   0.422   8.883 -0.2467 -0.1135 -0.8231
    2TTP    C3836806   6.415   0.416   9.043  0.1664  0.1852  0.6666
    2TTP    C3936807   6.441   0.271   9.086  0.3831 -0.2049 -0.6805
    2TTP    C4036808   6.459   0.258   9.237 -0.1958  0.3864  0.4086
    2TTP    C4136809   6.482   0.110   9.283  0.0185 -0.1346  0.8225
    2TTP    C4236810   6.490   0.100   9.437  0.0453 -0.0492  0.8877
    3TTP     S136811   6.653   1.858   8.061  0.1137 -0.2134 -0.3158
    3TTP     S536812   6.946   2.096   8.265 -0.3176 -0.1723  0.2606
    3TTP     C136813   6.889   2.188   8.119 -0.0898 -0.1537  0.1819
    3TTP     C236814   6.795   2.120   8.047  0.0569 -0.1653 -0.0005
    3TTP     C336815   6.765   1.993   8.105 -0.0055 -0.1893 -0.0849
    3TTP     C436816   6.710   1.766   8.207 -0.1143 -0.2320 -0.2372
    3TTP    C1736817   6.804   1.835   8.279 -0.2607 -0.2204 -0.0545
    3TTP    C1836818   6.834   1.962   8.221 -0.1985 -0.1964  0.0298
    3TTP    C3236819   6.736   2.167   7.912  0.2820  0.2173 -0.5905
    3TTP    C3336820   6.785   2.095   7.793 -0.0090  0.1964  0.7981
    3TTP    C3436821   6.937   2.111   7.757 -0.0965  0.1455  0.4888
    3TTP    C3536822   6.985   2.250   7.725  0.0258 -0.0245 -0.0314
    3TTP    C3636823   7.132   2.293   7.726 -0.4513  0.2898  0.4640
    3TTP    C3736824   7.217   2.249   7.840 -0.3718  0.3396 -0.9190
    3TTP    C3836825   7.367   2.264   7.812 -0.1630 -0.1809  0.5258
    3TTP    C3936826   7.464   2.257   7.926 -0.4418 -0.3944 -0.1370
    3TTP    C4036827   7.619   2.260   7.891  0.6363  0.5539  0.9872
    3TTP    C4136828   7.668   2.388   7.818  0.4688  0.4468 -0.3351
    3TTP    C4236829   7.820   2.408   7.820 -0.1721 -0.9969  0.0528
    4BIM     F136830   6.999   1.421   9.725  0.3965 -0.1446  0.0477
    4BIM     F236831   6.976   1.165   9.813 -0.3638 -0.0660  0.0920
    4BIM     O136832   6.871   1.360   9.202  0.5190  0.0973 -0.0107
    4BIM     N536833   6.852   0.753   9.568 -1.3692  0.2195  0.1142
    4BIM     N636834   6.756   0.757   9.142 -1.1203  0.3926  0.0598
    4BIM    C1936835   6.803   1.094   9.101 -0.1637  0.2583  0.0107
    4BIM    C2036836   6.836   1.119   9.229 -0.1647  0.1944  0.0241
    4BIM    C2136837   6.870   1.259   9.274  0.1979  0.1135  0.0114
    4BIM    C2236838   6.901   1.251   9.417  0.0955  0.0580  0.0310
    4BIM    C2336839   6.938   1.355   9.502  0.3369 -0.0237  0.0279
    4BIM    C2436840   6.962   1.323   9.635  0.1744 -0.0638  0.0488
    4BIM    C2536841   6.951   1.191   9.680 -0.2173 -0.0232  0.0718
    4BIM    C2636842   6.914   1.087   9.596 -0.4597  0.0582  0.0746
    4BIM    C2736843   6.889   1.117   9.462 -0.3004  0.0999  0.0539
    4BIM    C2836844   6.848   1.031   9.348 -0.4760  0.1854  0.0503
    4BIM    C2936845   6.827   0.895   9.352 -0.8547  0.2448  0.0687
    4BIM    C3036846   6.841   0.817   9.471 -1.1363  0.2306  0.0937
    4BIM    C3136847   6.788   0.820   9.236 -0.9986  0.3258  0.0637
    5BIM     F136848   7.479   2.696   8.368  0.0745  0.0528 -0.2999
    5BIM     F236849   7.374   2.890   8.208 -0.3109  0.1236  0.0341
    5BIM     O136850   7.142   2.285   8.265  0.2651 -0.1233 -0.2217
    5BIM     N536851   6.983   2.876   7.905 -0.7291  0.0997  0.5699
    5BIM     N636852   6.741   2.515   7.857 -0.5023 -0.0522  0.5636
    5BIM    C1936853   6.922   2.324   8.076 -0.0355 -0.1183  0.1253
    5BIM    C2036854   7.011   2.420   8.108 -0.0682 -0.0768  0.0923
    5BIM    C2136855   7.121   2.393   8.206  0.0936 -0.0824 -0.0894
    5BIM    C2236856   7.199   2.517   8.218  0.0083 -0.0301 -0.0787
    5BIM    C2336857   7.311   2.540   8.298  0.1022 -0.0159 -0.2141
    5BIM    C2436858   7.368   2.667   8.292 -0.0089  0.0361 -0.1724
    5BIM    C2536859   7.314   2.766   8.210 -0.2073  0.0725 -0.0004
    5BIM    C2636860   7.202   2.744   8.130 -0.3018  0.0585  0.1354
    5BIM    C2736861   7.143   2.617   8.134 -0.1918  0.0061  0.0956
    5BIM    C2836862   7.025   2.561   8.063 -0.2469 -0.0211  0.2079
    5BIM    C2936863   6.945   2.627   7.973 -0.4287  0.0011  0.3846
    5BIM    C3036864   6.966   2.764   7.936 -0.5931  0.0553  0.4858
    5BIM    C3136865   6.833   2.565   7.910 -0.4681 -0.0284  0.4821
    1BTD     S236866   0.764   0.962   8.648  0.0592 -0.3311  0.1387
    1BTD     N136867   0.921   1.031   8.703  0.0315 -0.2512  0.1178
    1BTD     N236868   0.768   0.824   8.763  0.0877 -0.2633  0.2189
    1BTD     N336869   1.059   0.666   9.096  0.0958  0.0189  0.3462
    1BTD     N436870   1.247   0.921   9.022  0.0266  0.0338  0.2213
    1BTD     C536871   1.089   0.970   8.871  0.0298 -0.1026  0.1731
    1BTD     C636872   0.965   0.951   8.799  0.0443 -0.1818  0.1695
    1BTD     C736873   0.880   0.835   8.833  0.0757 -0.1885  0.2260
    1BTD     C836874   0.922   0.744   8.936  0.0911 -0.1158  0.2840
    1BTD    C1536875   1.043   0.767   9.003  0.0760 -0.0396  0.2856
    1BTD    C1636876   1.126   0.879   8.971  0.0458 -0.0331  0.2309
    1BTD    C4336877   1.290   0.915   9.167 -0.6595  0.5928 -0.1841
    1BTD    C4436878   1.436   0.918   9.214 -0.4306 -0.0031 -0.5246
    1BTD    C4536879   1.441   0.944   9.365  0.4758 -0.0279 -0.2207
    1BTD    C4636880   1.387   0.850   9.469  0.7483 -0.1103 -0.7548
    1BTD    C4736881   1.521   0.801   9.164 -0.2956 -0.1648  0.1178
    1BTD    C4836882   1.670   0.779   9.197 -0.6777 -0.0411 -0.2889
    1BTD    C4936883   1.742   0.654   9.137 -0.6753 -0.7326 -0.0426
    1BTD    C5036884   1.751   0.644   8.984  0.4173  0.0707  0.3930
    1BTD    C7536885   1.184   0.626   9.158  0.3227 -0.2184 -0.1966
    1BTD    C7636886   1.182   0.528   9.281 -0.4693 -0.5115 -0.2983
    1BTD    C7736887   1.106   0.582   9.404  0.1748  0.4813 -0.3843
    1BTD    C7836888   1.072   0.492   9.531 -0.7074 -0.2059  0.0408
    1BTD    C7936889   1.323   0.475   9.326  0.2401 -0.5152  0.5598
    1BTD    C8036890   1.395   0.381   9.232 -0.0730 -0.3142 -0.2430
    1BTD    C8136891   1.539   0.367   9.279  0.0593  0.0604  0.3277
    1BTD    C8236892   1.617   0.277   9.185  0.0161  0.3722 -0.3691
    2TTP     S136893   1.237   1.210   8.755  0.1481 -0.0215 -0.1268
    2TTP     S536894   1.571   1.114   9.008 -0.1305 -0.1754  0.1848
    2TTP     C136895   1.617   1.256   8.903  0.0881 -0.2963  0.1142
    2TTP     C236896   1.516   1.294   8.819  0.1870 -0.2559  0.0136
    2TTP     C336897   1.400   1.212   8.834  0.0938 -0.1281 -0.0110
    2TTP     C436898   1.192   1.068   8.860 -0.0705  0.0994 -0.0563
    2TTP    C1736899   1.292   1.030   8.944 -0.1694  0.0590  0.0441
    2TTP    C1836900   1.409   1.112   8.929 -0.0761 -0.0689  0.0691
    2TTP    C3236901   1.508   1.420   8.727 -0.4891 -0.0578  0.5928
    2TTP    C3336902   1.503   1.405   8.569 -0.1753 -0.5199 -0.1182
    2TTP    C3436903   1.480   1.544   8.493  0.2515 -0.0207  0.3886
    2TTP    C3536904   1.350   1.618   8.528 -0.0709  0.2283  0.9105
    2TTP    C3636905   1.330   1.725   8.425  0.3506 -0.0819  0.3307
    2TTP    C3736906   1.195   1.786   8.430  0.4809  0.2546 -0.0637
    2TTP    C3836907   1.157   1.870   8.309 -0.3693  0.3478 -0.2136
    2TTP    C3936908   1.020   1.924   8.325 -0.7095  0.1884 -0.6609
    2TTP    C4036909   0.970   2.018   8.209  0.1779  0.7791 -0.0652
    2TTP    C4136910   0.830   2.073   8.240 -0.2942 -0.2069  0.1204
    2TTP    C4236911   0.717   1.973   8.238  0.1168  0.7890  0.3002
    3TTP     S136912   0.758   0.506   8.906 -0.1500 -0.0918  0.3114
    3TTP     S536913   1.068   0.281   9.102  0.3336 -0.0921 -0.4447
    3TTP     C136914   0.958   0.165   9.014  0.2062 -0.0804 -0.3026
    3TTP     C236915   0.856   0.227   8.948  0.0494 -0.0796 -0.0606
    3TTP     C336916   0.860   0.369   8.965  0.0242 -0.0882  0.0210
    3TTP     C436917   0.867   0.622   8.993 -0.0226 -0.1034  0.1690
    3TTP    C1736918   0.969   0.559   9.059  0.1342 -0.1042 -0.0728
    3TTP    C1836919   0.965   0.417   9.042  0.1594 -0.0956 -0.1547
    3TTP    C3236920   0.737   0.161   8.872  0.3281 -0.1209  0.4998
    3TTP    C3336921   0.758   0.170   8.720 -0.3520  0.6849  0.2875
    3TTP    C3436922   0.885   0.107   8.663 -0.2818  0.0664 -0.3445
    3TTP    C3536923   0.950   0.159   8.536  0.7431  1.0106 -0.0113
    3TTP    C3636924   1.039   0.070   8.451 -0.3232 -0.2478 -0.4470
    3TTP    C3736925   0.985  -0.068   8.425 -0.2795 -0.3559 -0.9443
    3TTP    C3836926   1.045  -0.112   8.288  0.2166  0.0674 -0.5299
    3TTP    C3936927   0.969  -0.220   8.208  0.4541  0.0885 -0.3997
    3TTP    C4036928   0.838  -0.177   8.150 -0.0068  0.1876  0.5511
    3TTP    C4136929   0.753  -0.259   8.057 -0.4644  0.5621  0.6856
    3TTP    C4236930   0.720  -0.404   8.103 -0.2063  0.0595 -0.3132
    4BIM     F136931   2.216   1.342   9.461 -0.2215  0.1860  0.0296
    4BIM     F236932   2.367   1.464   9.270 -0.0549 -0.2325 -0.1080
    4BIM     O136933   1.762   1.241   9.183 -0.3426  0.4535  0.1307
    4BIM     N536934   2.261   1.567   8.798  0.0984 -0.6433 -0.2337
    4BIM     N636935   1.876   1.464   8.620 -0.0297 -0.3500 -0.1271
    4BIM    C1936936   1.745   1.322   8.902 -0.2264  0.1488  0.0348
    4BIM    C2036937   1.853   1.343   8.980 -0.2024  0.0978  0.0150
    4BIM    C2136938   1.854   1.298   9.123 -0.2659  0.2633  0.0672
    4BIM    C2236939   1.986   1.336   9.178 -0.2190  0.1551  0.0284
    4BIM    C2336940   2.034   1.315   9.307 -0.2509  0.2434  0.0544
    4BIM    C2436941   2.162   1.359   9.335 -0.1943  0.1092  0.0074
    4BIM    C2536942   2.240   1.422   9.237 -0.1084 -0.1063 -0.0633
    4BIM    C2636943   2.193   1.443   9.108 -0.0761 -0.1954 -0.0899
    4BIM    C2736944   2.063   1.399   9.077 -0.1325 -0.0621 -0.0429
    4BIM    C2836945   1.985   1.406   8.952 -0.1189 -0.1059 -0.0541
    4BIM    C2936946   2.026   1.460   8.832 -0.0434 -0.2984 -0.1163
    4BIM    C3036947   2.155   1.519   8.814  0.0343 -0.4874 -0.1807
    4BIM    C3136948   1.943   1.462   8.716 -0.0363 -0.3257 -0.1216
    5BIM     F136949   1.542  -0.367   9.225 -0.2068  0.0541  0.4556
    5BIM     F236950   1.369  -0.569   9.169  0.0016 -0.0002 -0.0029
    5BIM     O136951   1.236   0.064   9.107 -0.2478 -0.0258  0.2689
    5BIM     N536952   0.902  -0.553   9.005  0.2719 -0.1359 -0.7958
    5BIM     N636953   0.698  -0.175   8.925  0.1978 -0.1872 -0.8495
    5BIM    C1936954   0.962   0.024   9.012 -0.0634 -0.1063 -0.2362
    5BIM    C2036955   1.046  -0.076   9.044 -0.0612 -0.0839 -0.1709
    5BIM    C2136956   1.185  -0.048   9.092 -0.1593 -0.0429  0.0925
    5BIM    C2236957   1.248  -0.178   9.117 -0.1293 -0.0272  0.0985
    5BIM    C2336958   1.378  -0.203   9.163 -0.1938  0.0098  0.3021
    5BIM    C2436959   1.415  -0.335   9.180 -0.1476  0.0180  0.2623
    5BIM    C2536960   1.326  -0.439   9.151 -0.0403 -0.0101  0.0262
    5BIM    C2636961   1.197  -0.416   9.105  0.0246 -0.0470 -0.1781
    5BIM    C2736962   1.157  -0.282   9.088 -0.0208 -0.0560 -0.1416
    5BIM    C2836963   1.029  -0.224   9.042  0.0254 -0.0920 -0.3169
    5BIM    C2936964   0.916  -0.293   9.004  0.1286 -0.1261 -0.5660
    5BIM    C3036965   0.909  -0.436   9.005  0.2070 -0.1314 -0.6914
    5BIM    C3136966   0.797  -0.228   8.961  0.1661 -0.1597 -0.7205
    1BTD     S236967   7.529   4.743   4.186 -0.1191 -0.0100  0.1355
    1BTD     N136968   7.483   4.908   4.132 -0.0147  0.0966  0.3688
    1BTD     N236969   7.361   4.680   4.187 -0.1355  0.0292 -0.1751
    1BTD     N336970   6.934   4.849   4.090  0.0196  0.3009 -0.3868
    1BTD     N436971   7.084   5.130   4.023  0.1686  0.3839  0.2834
    1BTD     C536972   7.273   5.021   4.076  0.0793  0.2457  0.3163
    1BTD     C636973   7.351   4.907   4.118  0.0018  0.1528  0.2114
    1BTD     C736974   7.283   4.780   4.149 -0.0659  0.1149 -0.0932
    1BTD     C836975   7.140   4.772   4.135 -0.0527  0.1720 -0.2774
    1BTD    C1536976   7.067   4.885   4.094  0.0241  0.2625 -0.1657
    1BTD    C1636977   7.133   5.008   4.065  0.0894  0.2988  0.1278
    1BTD    C4336978   6.968   5.137   3.943  0.0144  0.3576  0.2488
    1BTD    C4436979   6.886   5.268   3.926 -1.2092 -0.4972  0.0574
    1BTD    C4536980   6.781   5.269   3.819 -0.2546 -0.4697 -0.5566
    1BTD    C4636981   6.798   5.201   3.687 -0.2324 -0.0272  0.2020
    1BTD    C4736982   6.838   5.324   4.060  0.5576  0.0040 -0.1027
    1BTD    C4836983   6.779   5.466   4.074  0.0439  0.9415  0.4226
    1BTD    C4936984   6.754   5.514   4.214 -0.0788 -0.0973 -0.5754
    1BTD    C5036985   6.657   5.445   4.302  0.1071  0.1151 -0.6385
    1BTD    C7536986   6.837   4.932   4.163  0.2214 -0.2992  0.2833
    1BTD    C7636987   6.684   4.924   4.128  0.3506 -0.0660  0.3852
    1BTD    C7736988   6.589   5.007   4.218  0.4244  0.8529 -0.7778
    1BTD    C7836989   6.592   4.981   4.372 -0.2639  0.4144  0.3382
    1BTD    C7936990   6.655   4.932   3.976  0.3348  0.2525 -0.1192
    1BTD    C8036991   6.515   4.897   3.931  0.3019  0.1553  0.6564
    1BTD    C8136992   6.497   4.943   3.784 -1.0750 -0.4813 -0.4030
    1BTD    C8236993   6.371   4.908   3.713 -0.1681 -0.0498  0.4303
    2TTP     S136994   7.460   5.252   4.027  0.0820  0.0662 -0.1262
    2TTP     S536995   7.124   5.485   3.892  0.0172  0.1649  0.2032
    2TTP     C136996   7.274   5.588   3.881 -0.0164  0.2324  0.3787
    2TTP     C236997   7.386   5.522   3.922  0.0017  0.2060  0.2872
    2TTP     C336998   7.358   5.388   3.963  0.0426  0.1314  0.0754
    2TTP     C436999   7.310   5.150   4.037  0.1154 -0.0014 -0.3017
    2TTP    C1737000   7.198   5.215   3.996  0.0975  0.0250 -0.2104
    2TTP    C1837001   7.226   5.349   3.955  0.0565  0.0995  0.0016
    2TTP    C3237002   7.531   5.575   3.930 -0.5076  0.7601  0.0952
    2TTP    C3337003   7.640   5.520   3.836  0.1753 -0.2390  0.7366
    2TTP    C3437004   7.776   5.551   3.902  0.0880  0.6359 -0.0612
    2TTP    C3537005   7.895   5.488   3.841  0.1845 -0.5346  0.3645
    2TTP    C3637006   8.022   5.566   3.854  0.3557 -0.1508 -1.0780
    2TTP    C3737007   8.134   5.527   3.762  0.4161 -0.0896  0.5673
    2TTP    C3837008   8.173   5.382   3.762  0.1398  0.1740 -0.1886
    2TTP    C3937009   8.247   5.328   3.887  1.1701  0.2685 -0.0252
    2TTP    C4037010   8.283   5.175   3.881 -0.1699 -0.3159 -0.4355
    2TTP    C4137011   8.410   5.151   3.963  0.1969  0.4002 -0.1446
    2TTP    C4237012   8.464   5.012   3.983  0.9478 -0.9080 -0.1671
    3TTP     S137013   7.050   4.481   4.183  0.0770  0.0632 -0.1131
    3TTP     S537014   6.648   4.605   4.097  0.0145 -0.1903 -0.1881
    3TTP     C137015   6.648   4.425   4.125  0.1020 -0.1706 -0.0634
    3TTP     C237016   6.773   4.376   4.153  0.1265 -0.0912 -0.0328
    3TTP     C337017   6.872   4.479   4.154  0.0770 -0.0429 -0.1069
    3TTP     C437018   7.050   4.660   4.155 -0.0105  0.0436 -0.2378
    3TTP    C1737019   6.925   4.709   4.126 -0.0349 -0.0358 -0.2684
    3TTP    C1837020   6.826   4.606   4.126  0.0144 -0.0842 -0.1944
    3TTP    C3237021   6.810   4.229   4.182 -0.1785  0.2681  0.2793
    3TTP    C3337022   6.861   4.199   4.325 -0.0324 -0.1897  0.5032
    3TTP    C3437023   6.923   4.065   4.355 -0.6176 -0.5909 -0.5835
    3TTP    C3537024   6.836   3.942   4.358  0.0889  0.1716 -0.1776
    3TTP    C3637025   6.917   3.820   4.399  0.4231  0.2582  0.6718
    3TTP    C3737026   6.825   3.694   4.382 -0.0115 -0.0050 -0.6423
    3TTP    C3837027   6.891   3.556   4.404 -0.2785  0.1881 -0.4686
    3TTP    C3937028   6.987   3.530   4.296 -0.4236 -0.2123 -0.0877
    3TTP    C4037029   7.077   3.408   4.321 -0.3239 -0.4822 -0.1875
    3TTP    C4137030   7.171   3.393   4.200  0.2914 -0.7540  0.3024
    3TTP    C4237031   7.257   3.275   4.205  0.0479  0.8854  0.1676
    4BIM     F137032   6.735   6.148   3.619  0.1360  0.3405  0.1261
    4BIM     F237033   6.938   6.329   3.605  0.4170 -0.0293 -0.6747
    4BIM     O137034   6.999   5.710   3.795 -0.2786  0.3127  0.6831
    4BIM     N537035   7.418   6.276   3.710  0.5255 -0.5810 -1.4289
    4BIM     N637036   7.584   5.897   3.851  0.1452 -0.5282 -0.8323
    4BIM    C1937037   7.287   5.727   3.845 -0.1573 -0.0508  0.1159
    4BIM    C2037038   7.213   5.830   3.801 -0.0639 -0.0292  0.0071
    4BIM    C2137039   7.065   5.813   3.778 -0.1351  0.1622  0.3162
    4BIM    C2237040   7.015   5.944   3.731 -0.0015  0.1351  0.0973
    4BIM    C2337041   6.885   5.978   3.696 -0.0085  0.2720  0.2562
    4BIM    C2437042   6.862   6.108   3.654  0.1342  0.2125 -0.0107
    4BIM    C2537043   6.966   6.201   3.647  0.2789  0.0220 -0.4230
    4BIM    C2637044   7.097   6.168   3.681  0.2867 -0.1154 -0.5836
    4BIM    C2737045   7.122   6.036   3.724  0.1436 -0.0578 -0.3182
    4BIM    C2837046   7.248   5.970   3.767  0.1109 -0.1664 -0.3901
    4BIM    C2937047   7.373   6.028   3.774  0.2215 -0.3576 -0.7550
    4BIM    C3037048   7.397   6.164   3.739  0.3884 -0.4799 -1.1243
    4BIM    C3137049   7.488   5.955   3.816  0.1788 -0.4505 -0.7954
    5BIM     F137050   5.854   4.529   3.941 -0.1540 -0.0592  0.4290
    5BIM     F237051   5.822   4.260   3.960  0.1259 -0.1092  0.1997
    5BIM     O137052   6.381   4.577   4.056 -0.1533  0.3694  0.2499
    5BIM     N537053   6.151   3.906   4.067  0.5287  0.1247 -0.2576
    5BIM     N637054   6.569   3.998   4.153  0.4729  0.4697 -0.3512
    5BIM    C1937055   6.537   4.337   4.114  0.1143  0.4742 -0.0329
    5BIM    C2037056   6.406   4.335   4.084  0.1032  0.3681  0.0212
    5BIM    C2137057   6.332   4.463   4.056 -0.0379  0.3203  0.1674
    5BIM    C2237058   6.193   4.426   4.028 -0.0124  0.2043  0.1928
    5BIM    C2337059   6.087   4.510   3.996 -0.1113  0.1265  0.3135
    5BIM    C2437060   5.963   4.452   3.973 -0.0619  0.0218  0.3130
    5BIM    C2537061   5.947   4.313   3.983  0.0825 -0.0039  0.1947
    5BIM    C2637062   6.052   4.228   4.015  0.1818  0.0733  0.0738
    5BIM    C2737063   6.178   4.285   4.038  0.1338  0.1800  0.0724
    5BIM    C2837064   6.308   4.224   4.073  0.2105  0.2797 -0.0377
    5BIM    C2937065   6.334   4.090   4.091  0.3536  0.2881 -0.1690
    5BIM    C3037066   6.233   3.989   4.078  0.4494  0.1982 -0.2172
    5BIM    C3137067   6.463   4.040   4.125  0.4184  0.3880 -0.2686
    1BTD     S237068   4.666   7.668   4.573  0.0146 -0.2244 -0.3231
    1BTD     N137069   4.776   7.549   4.651 -0.1580 -0.2527 -0.1215
    1BTD     N237070   4.542   7.547   4.528  0.0051 -0.1736 -0.4344
    1BTD     N337071   4.487   7.083   4.575 -0.3256 -0.1209 -0.2973
    1BTD     N437072   4.775   7.086   4.727 -0.5267 -0.2185  0.0883
    1BTD     C537073   4.772   7.307   4.689 -0.3480 -0.2337 -0.0165
    1BTD     C637074   4.717   7.431   4.640 -0.2110 -0.2241 -0.1462
    1BTD     C737075   4.586   7.429   4.571 -0.1198 -0.1799 -0.3214
    1BTD     C837076   4.517   7.304   4.554 -0.1700 -0.1471 -0.3581
    1BTD    C1537077   4.574   7.186   4.604 -0.3048 -0.1579 -0.2271
    1BTD    C1637078   4.700   7.187   4.671 -0.3928 -0.2006 -0.0583
    1BTD    C4337079   4.806   6.963   4.649  0.1565  0.4264  0.5249
    1BTD    C4437080   4.852   6.832   4.716  0.1059  0.3792 -0.1036
    1BTD    C4537081   4.894   6.717   4.623 -0.1796  0.6447  0.3075
    1BTD    C4637082   4.995   6.749   4.500  0.7197  0.5141 -0.3071
    1BTD    C4737083   4.764   6.783   4.826  0.0074  0.0037 -0.4609
    1BTD    C4837084   4.824   6.679   4.922  0.3108  0.9467  0.2678
    1BTD    C4937085   4.733   6.687   5.042  0.3611  0.1087 -0.3724
    1BTD    C5037086   4.793   6.627   5.166 -0.0384 -0.2545  0.0901
    1BTD    C7537087   4.474   6.966   4.659 -0.6948  1.0793  0.6758
    1BTD    C7637088   4.422   6.828   4.614  0.1265 -0.4921  0.0165
    1BTD    C7737089   4.500   6.767   4.501  0.1331  0.3238 -0.3974
    1BTD    C7837090   4.442   6.653   4.431  0.2955 -0.1140 -0.0425
    1BTD    C7937091   4.399   6.734   4.736 -0.4190 -0.2081  0.6554
    1BTD    C8037092   4.330   6.784   4.861 -0.0326  0.5168 -0.3237
    1BTD    C8137093   4.333   6.663   4.953  0.7084  0.1242  0.0010
    1BTD    C8237094   4.292   6.698   5.098  0.4904  0.0160 -0.1818
    2TTP     S137095   5.045   7.361   4.823  0.0296 -0.2082  0.0374
    2TTP     S537096   5.046   6.953   4.960  0.0168 -0.1312  0.2675
    2TTP     C137097   5.191   7.038   5.030  0.1189 -0.1444  0.0741
    2TTP     C237098   5.199   7.169   4.992  0.1291 -0.1692 -0.0082
    2TTP     C337099   5.091   7.207   4.906  0.0561 -0.1785  0.0783
    2TTP     C437100   4.900   7.276   4.753 -0.0725 -0.1949  0.2309
    2TTP    C1737101   4.892   7.145   4.791 -0.0826 -0.1705  0.3134
    2TTP    C1837102   5.000   7.107   4.877 -0.0099 -0.1613  0.2266
    2TTP    C3237103   5.309   7.275   5.030  0.3291  0.3669  0.6140
    2TTP    C3337104   5.251   7.395   5.098 -0.2945 -0.7255 -0.0726
    2TTP    C3437105   5.347   7.518   5.098  0.2004  0.1965 -0.0448
    2TTP    C3537106   5.300   7.628   5.188 -0.4257  0.1067  1.1752
    2TTP    C3637107   5.391   7.746   5.198 -0.5683 -0.1943  0.5813
    2TTP    C3737108   5.529   7.720   5.265  0.2592  0.0100  0.3009
    2TTP    C3837109   5.632   7.845   5.264  0.2626  1.0096 -0.0931
    2TTP    C3937110   5.767   7.818   5.343  0.1641  0.1506  0.2187
    2TTP    C4037111   5.840   7.684   5.314 -0.1547 -0.1476 -0.0852
    2TTP    C4137112   5.882   7.647   5.173 -0.2585  0.3222  0.1258
    2TTP    C4237113   5.992   7.540   5.153 -0.5904 -0.1850 -0.4988
    3TTP     S137114   4.234   7.349   4.444  0.1207  0.3003  0.1753
    3TTP     S537115   4.149   6.932   4.507 -0.2594  0.2956 -0.3575
    3TTP     C137116   3.998   7.014   4.447 -0.1265  0.4652 -0.4644
    3TTP     C237117   4.015   7.148   4.424 -0.0014  0.4767 -0.3064
    3TTP     C337118   4.149   7.190   4.453 -0.0058  0.3520 -0.0948
    3TTP     C437119   4.385   7.268   4.503 -0.0122  0.1305  0.2823
    3TTP    C1737120   4.368   7.134   4.526 -0.1373  0.1192  0.1242
    3TTP    C1837121   4.235   7.091   4.498 -0.1328  0.2440 -0.0873
    3TTP    C3237122   3.918   7.239   4.365  1.0282  0.1061 -0.4360
    3TTP    C3337123   3.914   7.390   4.403  0.8107  0.0141 -0.2137
    3TTP    C3437124   3.804   7.472   4.331 -0.6119  0.3016 -0.8194
    3TTP    C3537125   3.846   7.619   4.334 -0.3818  0.5440 -0.7216
    3TTP    C3637126   3.749   7.695   4.252  0.0579 -0.3852 -0.5769
    3TTP    C3737127   3.749   7.851   4.246  0.6992  0.1587 -0.0448
    3TTP    C3837128   3.739   7.929   4.370  0.6661 -0.5716  0.0930
    3TTP    C3937129   3.721   8.069   4.331  0.2336 -0.4654 -0.5772
    3TTP    C4037130   3.758   8.170   4.442  0.1532  0.8790  0.0883
    3TTP    C4137131   3.734   8.317   4.409 -0.5442  0.3742 -0.9287
    3TTP    C4237132   3.760   8.416   4.521 -0.2194 -0.2923  0.3751
    4BIM     F137133   5.128   6.420   5.555  0.0377  0.2968  0.1942
    4BIM     F237134   5.399   6.402   5.555  0.0139 -0.0997 -0.2055
    4BIM     O137135   5.054   6.850   5.234  0.1892  0.3496  0.2301
    4BIM     N537136   5.737   6.682   5.327  0.0877 -0.6320 -0.7546
    4BIM     N637137   5.625   7.021   5.076  0.2108 -0.5108 -0.6458
    4BIM    C1937138   5.287   6.985   5.120  0.2202 -0.0103 -0.1390
    4BIM    C2037139   5.295   6.877   5.201  0.1831 -0.0081 -0.1323
    4BIM    C2137140   5.171   6.813   5.255  0.1693  0.1831  0.0633
    4BIM    C2237141   5.215   6.700   5.339  0.1277  0.1324  0.0169
    4BIM    C2337142   5.135   6.611   5.410  0.1023  0.2607  0.1498
    4BIM    C2437143   5.200   6.511   5.482  0.0642  0.1784  0.0711
    4BIM    C2537144   5.340   6.502   5.482  0.0521 -0.0258 -0.1351
    4BIM    C2637145   5.420   6.591   5.411  0.0771 -0.1547 -0.2688
    4BIM    C2737146   5.356   6.692   5.338  0.1159 -0.0743 -0.1916
    4BIM    C2837147   5.411   6.801   5.253  0.1494 -0.1688 -0.2913
    4BIM    C2937148   5.544   6.826   5.227  0.1493 -0.3672 -0.4928
    4BIM    C3037149   5.650   6.746   5.282  0.1153 -0.5124 -0.6361
    4BIM    C3137150   5.588   6.933   5.144  0.1831 -0.4451 -0.5759
    5BIM     F137151   3.708   6.239   4.453 -0.0442  0.1093  0.7198
    5BIM     F237152   3.456   6.341   4.457 -0.1025  0.0422 -0.4487
    5BIM     O137153   4.002   6.693   4.440 -0.1322  0.1775  1.0858
    5BIM     N537154   3.302   6.811   4.454 -0.2491 -0.0057 -1.8678
    5BIM     N637155   3.583   7.146   4.443 -0.3064  0.0610 -1.3462
    5BIM    C1937156   3.865   6.952   4.439 -0.2194  0.1375  0.0995
    5BIM    C2037157   3.801   6.834   4.442 -0.1948  0.1230  0.0530
    5BIM    C2137158   3.878   6.705   4.442 -0.1504  0.1454  0.5803
    5BIM    C2237159   3.779   6.596   4.446 -0.1329  0.1214  0.3768
    5BIM    C2337160   3.802   6.459   4.448 -0.0927  0.1298  0.7081
    5BIM    C2437161   3.692   6.375   4.451 -0.0833  0.1027  0.4188
    5BIM    C2537162   3.562   6.428   4.453 -0.1135  0.0682 -0.1833
    5BIM    C2637163   3.537   6.565   4.452 -0.1537  0.0594 -0.5164
    5BIM    C2737164   3.648   6.651   4.448 -0.1637  0.0867 -0.2311
    5BIM    C2837165   3.657   6.799   4.446 -0.2030  0.0863 -0.4542
    5BIM    C2937166   3.551   6.887   4.447 -0.2398  0.0575 -1.0222
    5BIM    C3037167   3.415   6.845   4.451 -0.2448  0.0226 -1.4851
    5BIM    C3137168   3.569   7.029   4.445 -0.2761  0.0596 -1.1971
    1BTD     S237169   9.463   7.060   6.385  0.1667  0.0393 -0.0881
    1BTD     N137170   9.315   6.959   6.377  0.2153 -0.0049 -0.4339
    1BTD     N237171   9.575   6.921   6.404  0.1547  0.0794  0.2854
    1BTD     N337172   9.536   6.454   6.428  0.2179  0.0812  0.4227
    1BTD     N437173   9.215   6.500   6.394  0.2928 -0.0229 -0.4635
    1BTD     C537174   9.267   6.719   6.386  0.2546 -0.0131 -0.4386
    1BTD     C637175   9.354   6.833   6.388  0.2196  0.0114 -0.2618
    1BTD     C737176   9.500   6.812   6.404  0.1860  0.0588  0.1408
    1BTD     C837177   9.551   6.678   6.417  0.1886  0.0792  0.3464
    1BTD    C1537178   9.461   6.569   6.414  0.2233  0.0537  0.1616
    1BTD    C1637179   9.321   6.589   6.399  0.2560  0.0082 -0.2263
    1BTD    C4337180   9.211   6.362   6.352  0.1276  0.5233  0.2732
    1BTD    C4437181   9.217   6.327   6.206  0.1908 -0.4989  0.0988
    1BTD    C4537182   9.200   6.421   6.077 -0.2824  0.0116 -0.7059
    1BTD    C4637183   9.118   6.377   5.962 -0.2791 -0.0556  0.3128
    1BTD    C4737184   9.272   6.189   6.176 -0.0850 -0.1224  0.3837
    1BTD    C4837185   9.425   6.168   6.194  0.1045  0.2737  0.0285
    1BTD    C4937186   9.480   6.042   6.128  0.0986 -0.8833 -0.2015
    1BTD    C5037187   9.563   5.965   6.228 -0.3163 -0.1198  0.1044
    1BTD    C7537188   9.509   6.336   6.515  0.4077  0.3344 -0.6821
    1BTD    C7637189   9.603   6.220   6.551  0.3945 -0.2053 -0.2438
    1BTD    C7737190   9.713   6.274   6.645 -0.1352  0.0969 -0.1039
    1BTD    C7837191   9.838   6.180   6.657  0.3552  0.2776 -0.0022
    1BTD    C7937192   9.526   6.095   6.597 -1.1552 -0.5245 -0.0195
    1BTD    C8037193   9.428   6.080   6.717 -0.1446 -0.7151 -0.5103
    1BTD    C8137194   9.401   5.934   6.748 -0.0895  0.5827 -0.2443
    1BTD    C8237195   9.345   5.916   6.895 -0.1157  0.0042  0.1664
    2TTP     S137196   8.977   6.809   6.366  0.2667 -0.0599 -0.2299
    2TTP     S537197   8.843   6.403   6.411 -0.2387  0.1576  0.2577
    2TTP     C137198   8.697   6.511   6.405 -0.1027  0.3354  0.1622
    2TTP     C237199   8.730   6.643   6.391  0.0613  0.2787  0.0061
    2TTP     C337200   8.871   6.663   6.384  0.0856  0.0927 -0.0437
    2TTP     C437201   9.122   6.700   6.372  0.1311 -0.2377 -0.1345
    2TTP    C1737202   9.090   6.568   6.387 -0.0331 -0.1812  0.0218
    2TTP    C1837203   8.948   6.548   6.393 -0.0572  0.0048  0.0719
    2TTP    C3237204   8.633   6.753   6.371 -0.4536  0.5866  0.1360
    2TTP    C3337205   8.631   6.818   6.236  0.1811  0.4246  0.4342
    2TTP    C3437206   8.525   6.930   6.239 -0.1337  0.2615 -0.3746
    2TTP    C3537207   8.520   6.997   6.104 -0.2704  0.0180  0.4103
    2TTP    C3637208   8.405   7.097   6.087 -0.4212  0.9402  0.1098
    2TTP    C3737209   8.265   7.065   6.149 -0.0960  0.0002 -0.4857
    2TTP    C3837210   8.183   7.187   6.165  0.0177  0.1204  0.5974
    2TTP    C3937211   8.037   7.151   6.205 -0.5138 -0.6933  0.0152
    2TTP    C4037212   7.948   7.276   6.237 -0.1868  0.3617 -0.1740
    2TTP    C4137213   7.797   7.253   6.244  0.4632 -0.5819  0.3404
    2TTP    C4237214   7.758   7.138   6.333 -0.2468  0.4150 -0.6152
    3TTP     S137215   9.837   6.689   6.345  0.0498 -0.0785  0.1364
    3TTP     S537216   9.821   6.266   6.269 -0.1045 -0.0108 -0.2099
    3TTP     C137217   9.976   6.331   6.201 -0.1722  0.0231 -0.3322
    3TTP     C237218   9.991   6.466   6.220 -0.1285  0.0042 -0.2323
    3TTP     C337219   9.879   6.522   6.290 -0.0400 -0.0378 -0.0560
    3TTP     C437220   9.682   6.624   6.414  0.1175 -0.1123  0.2587
    3TTP    C1737221   9.668   6.490   6.394  0.0738 -0.0934  0.1587
    3TTP    C1837222   9.779   6.433   6.325 -0.0147 -0.0517 -0.0178
    3TTP    C3237223  10.091   6.561   6.170  0.1893 -0.2569  0.1208
    3TTP    C3337224  10.232   6.544   6.229 -0.0803 -0.8482  0.6903
    3TTP    C3437225  10.340   6.619   6.153  0.1387 -0.4424 -0.0734
    3TTP    C3537226  10.469   6.605   6.218 -0.0610 -0.1278  0.1996
    3TTP    C3637227  10.567   6.507   6.143  0.9360  0.6595 -0.0016
    3TTP    C3737228  10.709   6.502   6.193  0.5653  0.7279 -0.6290
    3TTP    C3837229  10.791   6.405   6.101 -1.1228  0.4736 -0.5971
    3TTP    C3937230  10.932   6.412   6.133 -0.0064 -1.4007 -0.0487
    3TTP    C4037231  11.018   6.337   6.028  0.3527 -0.1338 -0.5217
    3TTP    C4137232  11.160   6.311   6.076 -0.5759 -1.1074  0.1503
    3TTP    C4237233  11.241   6.250   5.959  0.3991 -0.2314 -0.2061
    4BIM     F137234   8.323   5.786   6.511  0.0615 -0.0098 -0.1029
    4BIM     F237235   8.094   5.898   6.417  0.0350 -0.1568 -0.2141
    4BIM     O137236   8.661   6.209   6.488 -0.1266  0.1351 -0.2011
    4BIM     N537237   8.004   6.361   6.266 -0.1366 -0.2650 -0.4441
    4BIM     N637238   8.314   6.669   6.267 -0.2780 -0.1222 -0.4983
    4BIM    C1937239   8.561   6.467   6.390 -0.2184  0.0460 -0.3422
    4BIM    C2037240   8.485   6.356   6.400 -0.1702  0.0154 -0.3132
    4BIM    C2137241   8.543   6.227   6.451 -0.1247  0.0650 -0.2403
    4BIM    C2237242   8.435   6.128   6.448 -0.0782  0.0137 -0.2252
    4BIM    C2337243   8.441   5.994   6.486 -0.0277  0.0333 -0.1640
    4BIM    C2437244   8.324   5.919   6.475  0.0103 -0.0252 -0.1618
    4BIM    C2537245   8.206   5.977   6.426 -0.0038 -0.1008 -0.2191
    4BIM    C2637246   8.200   6.110   6.388 -0.0544 -0.1210 -0.2803
    4BIM    C2737247   8.316   6.188   6.399 -0.0927 -0.0626 -0.2835
    4BIM    C2837248   8.342   6.330   6.367 -0.1497 -0.0645 -0.3400
    4BIM    C2937249   8.252   6.421   6.318 -0.1779 -0.1281 -0.4044
    4BIM    C3037250   8.116   6.388   6.290 -0.1550 -0.2031 -0.4258
    4BIM    C3137251   8.286   6.557   6.290 -0.2329 -0.1245 -0.4559
    5BIM     F137252  10.179   5.539   6.266  0.2868 -0.1884 -0.2365
    5BIM     F237253  10.346   5.571   6.054  0.2684  0.0218 -0.2198
    5BIM     O137254   9.984   6.041   6.319  0.0305 -0.3186  0.0603
    5BIM     N537255  10.448   5.975   5.787  0.0590  0.2308  0.0160
    5BIM     N637256  10.262   6.361   5.871 -0.1376  0.0868  0.2446
    5BIM    C1937257  10.074   6.250   6.135 -0.0783 -0.1645  0.1819
    5BIM    C2037258  10.117   6.123   6.130 -0.0130 -0.1396  0.1063
    5BIM    C2137259  10.066   6.021   6.228  0.0400 -0.2234  0.0473
    5BIM    C2237260  10.132   5.894   6.195  0.1048 -0.1702 -0.0281
    5BIM    C2337261  10.116   5.771   6.258  0.1684 -0.2153 -0.1003
    5BIM    C2437262  10.189   5.664   6.208  0.2225 -0.1489 -0.1637
    5BIM    C2537263  10.276   5.681   6.099  0.2129 -0.0406 -0.1549
    5BIM    C2637264  10.292   5.803   6.035  0.1496  0.0050 -0.0831
    5BIM    C2737265  10.218   5.912   6.084  0.0942 -0.0610 -0.0181
    5BIM    C2837266  10.213   6.054   6.040  0.0213 -0.0380  0.0650
    5BIM    C2937267  10.283   6.110   5.936 -0.0085  0.0590  0.0970
    5BIM    C3037268  10.373   6.036   5.854  0.0287  0.1533  0.0522
    5BIM    C3137269  10.271   6.248   5.901 -0.0793  0.0737  0.1780
    1BTD     S237270   3.000   3.267   2.701 -0.0843  0.0703  0.1918
    1BTD     N137271   2.887   3.130   2.730 -0.1383  0.1726  0.4735
    1BTD     N237272   2.874   3.376   2.634 -0.0067 -0.0796 -0.2017
    1BTD     N337273   2.413   3.352   2.548  0.0538 -0.2008 -0.4948
    1BTD     N437274   2.429   3.048   2.666 -0.1084  0.1100  0.3371
    1BTD     C537275   2.648   3.091   2.695 -0.1207  0.1361  0.3923
    1BTD     C637276   2.767   3.171   2.690 -0.0979  0.0937  0.2702
    1BTD     C737277   2.760   3.308   2.636 -0.0241 -0.0475 -0.1076
    1BTD     C837278   2.634   3.359   2.590  0.0229 -0.1392 -0.3446
    1BTD    C1537279   2.519   3.278   2.598 -0.0018 -0.0932 -0.2135
    1BTD    C1637280   2.526   3.145   2.650 -0.0728  0.0429  0.1507
    1BTD    C4337281   2.286   3.076   2.677  0.2488 -0.5447  0.1405
    1BTD    C4437282   2.172   2.975   2.646  0.1174 -0.3566  0.2617
    1BTD    C4537283   2.190   2.941   2.495 -0.0244 -0.1515  0.2561
    1BTD    C4637284   2.098   2.830   2.430 -0.3451  0.5214  0.3274
    1BTD    C4737285   2.031   3.015   2.704 -0.9901  0.2022  0.3090
    1BTD    C4837286   2.004   3.019   2.857  0.1949 -0.0219 -0.2014
    1BTD    C4937287   2.016   2.889   2.940  0.0652 -0.1161  0.4181
    1BTD    C5037288   1.979   2.906   3.088 -0.3792  0.0041 -0.1945
    1BTD    C7537289   2.321   3.294   2.454 -0.2507  0.3421  0.0939
    1BTD    C7637290   2.183   3.359   2.442  0.3858  1.0626 -0.0210
    1BTD    C7737291   2.141   3.320   2.299  0.7314 -0.4798  0.2842
    1BTD    C7837292   2.026   3.398   2.226  0.0400 -0.7816 -0.9068
    1BTD    C7937293   2.083   3.350   2.562  0.1121 -0.0658  0.4138
    1BTD    C8037294   2.126   3.407   2.700  0.0814  0.3318  0.4988
    1BTD    C8137295   2.024   3.403   2.810 -0.4538 -0.1938  0.3181
    1BTD    C8237296   2.071   3.436   2.953  0.9329 -0.1243  0.3228
    2TTP     S137297   2.712   2.829   2.825 -0.1241 -0.0759 -0.0377
    2TTP     S537298   2.298   2.719   2.786 -0.1074 -0.1084 -0.1230
    2TTP     C137299   2.385   2.587   2.877 -0.1317 -0.0655 -0.0374
    2TTP     C237300   2.518   2.614   2.894 -0.1382 -0.0530 -0.0061
    2TTP     C337301   2.556   2.739   2.836 -0.1243 -0.0767 -0.0485
    2TTP     C437302   2.625   2.961   2.734 -0.0997 -0.1187 -0.1233
    2TTP    C1737303   2.492   2.934   2.717 -0.0932 -0.1313 -0.1547
    2TTP    C1837304   2.454   2.809   2.775 -0.1072 -0.1075 -0.1122
    2TTP    C3237305   2.634   2.529   2.966  0.5316  0.1447  0.4397
    2TTP    C3337306   2.694   2.568   3.103  0.4518 -0.1076  0.5595
    2TTP    C3437307   2.598   2.605   3.221  0.6169  0.1274 -0.0734
    2TTP    C3537308   2.481   2.511   3.249  0.2630  0.5736 -0.1401
    2TTP    C3637309   2.358   2.594   3.277 -0.8021  0.1954 -0.3389
    2TTP    C3737310   2.244   2.501   3.294  0.4601 -0.0072  0.5840
    2TTP    C3837311   2.114   2.578   3.279  0.1223  0.3220 -0.2479
    2TTP    C3937312   2.002   2.474   3.297  0.5193 -0.3916 -0.3024
    2TTP    C4037313   1.855   2.510   3.288 -0.3530  0.4685 -0.5490
    2TTP    C4137314   1.802   2.564   3.158  0.2256  0.5417  0.0567
    2TTP    C4237315   1.657   2.608   3.160  0.3558 -0.4900  0.2404
    3TTP     S137316   2.676   3.635   2.478 -0.0531 -0.0177  0.2902
    3TTP     S537317   2.255   3.657   2.393  0.0731  0.0547 -0.3247
    3TTP     C137318   2.335   3.809   2.332  0.1639  0.1125 -0.0643
    3TTP     C237319   2.469   3.811   2.355  0.1302  0.0936  0.1410
    3TTP     C337320   2.515   3.693   2.421  0.0315  0.0327  0.0998
    3TTP     C437321   2.597   3.483   2.539 -0.1438 -0.0757  0.0297
    3TTP    C1737322   2.462   3.481   2.516 -0.1101 -0.0567 -0.1755
    3TTP    C1837323   2.417   3.599   2.450 -0.0116  0.0042 -0.1344
    3TTP    C3237324   2.570   3.921   2.305  0.2042  0.1119 -0.0370
    3TTP    C3337325   2.684   3.887   2.203  0.6257  0.5653 -0.3844
    3TTP    C3437326   2.795   3.989   2.180  0.1473  0.3117  0.1333
    3TTP    C3537327   2.746   4.122   2.127 -0.4837  0.2730 -0.2149
    3TTP    C3637328   2.855   4.217   2.081 -0.0152  0.4458 -0.6777
    3TTP    C3737329   2.827   4.353   2.004 -0.2377  0.4966 -0.5685
    3TTP    C3837330   2.718   4.436   2.056 -0.5221  0.2138  0.1957
    3TTP    C3937331   2.682   4.545   1.960  0.4003 -0.4066  0.3306
    3TTP    C4037332   2.531   4.572   1.969  0.2527 -0.3668 -0.3637
    3TTP    C4137333   2.481   4.696   1.892  0.1239  0.0065  0.3837
    3TTP    C4237334   2.326   4.706   1.876 -0.2866  0.4604  0.6498
    4BIM     F137335   1.639   2.247   2.901  0.0761 -0.1422  0.2610
    4BIM     F237336   1.753   2.018   2.994  0.1559 -0.1067  0.2505
    4BIM     O137337   2.073   2.567   2.854 -0.0063 -0.0575  0.0695
    4BIM     N537338   2.227   1.917   3.094  0.2119  0.0045  0.0987
    4BIM     N637339   2.543   2.213   3.040  0.1315  0.0634 -0.0489
    4BIM    C1937340   2.337   2.462   2.927  0.0407  0.0063 -0.0088
    4BIM    C2037341   2.223   2.390   2.935  0.0583 -0.0164  0.0399
    4BIM    C2137342   2.091   2.451   2.896  0.0321 -0.0486  0.0778
    4BIM    C2237343   1.989   2.347   2.916  0.0609 -0.0673  0.1266
    4BIM    C2337344   1.852   2.356   2.894  0.0510 -0.0986  0.1730
    4BIM    C2437345   1.775   2.244   2.921  0.0836 -0.1113  0.2140
    4BIM    C2537346   1.834   2.126   2.969  0.1247 -0.0930  0.2085
    4BIM    C2637347   1.971   2.116   2.991  0.1347 -0.0618  0.1623
    4BIM    C2737348   2.050   2.229   2.965  0.1022 -0.0485  0.1204
    4BIM    C2837349   2.197   2.251   2.978  0.1022 -0.0165  0.0668
    4BIM    C2937350   2.289   2.159   3.022  0.1365  0.0083  0.0463
    4BIM    C3037351   2.255   2.026   3.062  0.1779  0.0061  0.0752
    4BIM    C3137352   2.429   2.189   3.031  0.1336  0.0384 -0.0060
    5BIM     F137353   1.616   3.900   1.940 -0.1575 -0.0651  0.4307
    5BIM     F237354   1.664   4.168   1.932 -0.1166 -0.0790  0.1947
    5BIM     O137355   2.066   3.723   2.184  0.0309  0.0318  0.1550
    5BIM     N537356   2.053   4.427   2.095  0.0764 -0.0298 -0.3411
    5BIM     N637357   2.395   4.235   2.287  0.2154  0.0488 -0.5090
    5BIM    C1937358   2.271   3.916   2.263  0.1369  0.0531 -0.1683
    5BIM    C2037359   2.156   3.950   2.202  0.0879  0.0292 -0.0898
    5BIM    C2137360   2.055   3.845   2.165  0.0352  0.0196  0.0763
    5BIM    C2237361   1.943   3.916   2.100 -0.0100 -0.0068  0.1260
    5BIM    C2337362   1.826   3.861   2.049 -0.0663 -0.0235  0.2707
    5BIM    C2437363   1.734   3.948   1.993 -0.1012 -0.0477  0.2905
    5BIM    C2537364   1.759   4.086   1.989 -0.0801 -0.0546  0.1688
    5BIM    C2637365   1.875   4.142   2.040 -0.0239 -0.0383  0.0241
    5BIM    C2737366   1.970   4.055   2.097  0.0121 -0.0136  0.0018
    5BIM    C2837367   2.102   4.081   2.160  0.0730  0.0082 -0.1357
    5BIM    C2937368   2.162   4.204   2.175  0.1088  0.0089 -0.2781
    5BIM    C3037369   2.102   4.326   2.131  0.0909 -0.0123 -0.3122
    5BIM    C3137370   2.289   4.220   2.237  0.1673  0.0308 -0.4043
    1BTD     S237371   5.956   9.460   4.941 -0.3195 -0.0738  0.2527
    1BTD     N137372   6.120   9.465   5.014 -0.2177 -0.1245  0.0293
    1BTD     N237373   5.948   9.281   4.935 -0.4528 -0.0741  0.4163
    1BTD     N337374   6.230   8.924   5.055 -0.5397 -0.1664  0.3461
    1BTD     N437375   6.441   9.152   5.153 -0.2499 -0.2289 -0.1305
    1BTD     C537376   6.285   9.299   5.085 -0.2379 -0.1781 -0.0484
    1BTD     C637377   6.159   9.340   5.029 -0.2843 -0.1385  0.0852
    1BTD     C737378   6.063   9.236   4.985 -0.4160 -0.1099  0.3017
    1BTD     C837379   6.098   9.097   4.999 -0.4946 -0.1230  0.3737
    1BTD    C1537380   6.223   9.062   5.054 -0.4450 -0.1620  0.2375
    1BTD    C1637381   6.315   9.162   5.097 -0.3182 -0.1897  0.0289
    1BTD    C4337382   6.538   9.054   5.104 -0.9947 -0.2496  0.2292
    1BTD    C4437383   6.661   8.995   5.176 -0.1658 -0.4482 -0.5601
    1BTD    C4537384   6.730   8.880   5.102 -1.1172  0.2195  0.6062
    1BTD    C4637385   6.771   8.911   4.953  0.7368  0.2158 -0.3755
    1BTD    C4737386   6.641   8.967   5.327  0.6184 -0.3236  0.0831
    1BTD    C4837387   6.757   8.912   5.413  0.5001 -0.0286  0.3317
    1BTD    C4937388   6.881   8.999   5.412  0.2788 -0.3199  0.3262
    1BTD    C5037389   6.999   8.926   5.465  0.4563 -0.0569 -0.3304
    1BTD    C7537390   6.320   8.845   5.142 -0.8812  0.4894 -0.5558
    1BTD    C7637391   6.272   8.717   5.214  0.0969  0.8450  0.0736
    1BTD    C7737392   6.131   8.721   5.273 -1.0852 -0.1255 -0.3057
    1BTD    C7837393   6.067   8.587   5.310 -0.7614 -0.1086  0.8298
    1BTD    C7937394   6.384   8.641   5.292  0.0264 -0.2145  0.0902
    1BTD    C8037395   6.503   8.592   5.205  0.5782  0.0966  0.3130
    1BTD    C8137396   6.606   8.509   5.273  0.4279  0.0703 -0.2977
    1BTD    C8237397   6.708   8.451   5.171 -0.8424 -0.0603 -0.0797
    2TTP     S137398   6.427   9.543   5.175 -0.0364  0.0055 -0.0431
    2TTP     S537399   6.699   9.295   5.396 -0.2717 -0.2618 -0.0513
    2TTP     C137400   6.724   9.468   5.447 -0.0967 -0.2843 -0.0567
    2TTP     C237401   6.641   9.554   5.382 -0.0139 -0.2031 -0.0544
    2TTP     C337402   6.555   9.487   5.289 -0.0855 -0.1202 -0.0485
    2TTP     C437403   6.402   9.370   5.124 -0.2114  0.0281 -0.0378
    2TTP    C1737404   6.485   9.283   5.189 -0.2942 -0.0525 -0.0401
    2TTP    C1837405   6.571   9.350   5.282 -0.2227 -0.1361 -0.0461
    2TTP    C3237406   6.621   9.707   5.389 -0.5194  0.6738 -0.2315
    2TTP    C3337407   6.717   9.772   5.290  0.1859 -0.7963 -0.3184
    2TTP    C3437408   6.709   9.921   5.243 -0.0835 -0.6092  0.1040
    2TTP    C3537409   6.581   9.963   5.167  0.5156  0.6699  0.1908
    2TTP    C3637410   6.562  10.112   5.151  0.1128  0.3024  0.1390
    2TTP    C3737411   6.421  10.155   5.127  0.3936 -0.3313  0.0159
    2TTP    C3837412   6.406  10.302   5.147  0.0388  0.5512  0.3160
    2TTP    C3937413   6.475  10.397   5.040  0.6370  0.0256  0.0874
    2TTP    C4037414   6.416  10.388   4.898  0.2441  0.2074 -0.1518
    2TTP    C4137415   6.512  10.465   4.807 -0.2670 -0.3017  0.5911
    2TTP    C4237416   6.461  10.463   4.659 -0.2776  0.1212  0.1519
    3TTP     S137417   5.895   8.924   4.854 -0.0328 -0.0055 -0.1520
    3TTP     S537418   6.149   8.582   4.907 -0.0390  0.0241  0.0716
    3TTP     C137419   6.007   8.533   4.804 -0.0546 -0.0473  0.1269
    3TTP     C237420   5.920   8.636   4.782 -0.0534 -0.0606  0.0609
    3TTP     C337421   5.963   8.757   4.845 -0.0405 -0.0150 -0.0354
    3TTP     C437422   6.037   8.973   4.956 -0.0172  0.0663 -0.2072
    3TTP    C1737423   6.124   8.870   4.979 -0.0184  0.0792 -0.1412
    3TTP    C1837424   6.082   8.749   4.916 -0.0314  0.0334 -0.0449
    3TTP    C3237425   5.782   8.641   4.711 -0.0885 -0.3643 -0.8989
    3TTP    C3337426   5.753   8.757   4.620 -0.5286  0.0015  0.0239
    3TTP    C3437427   5.617   8.776   4.574  0.3214 -0.3445  0.0596
    3TTP    C3537428   5.541   8.666   4.499 -0.3619  0.2765 -0.4903
    3TTP    C3637429   5.436   8.731   4.414  0.0709  0.3302 -0.5869
    3TTP    C3737430   5.325   8.626   4.382 -0.5263 -0.1446 -0.2063
    3TTP    C3837431   5.217   8.683   4.296 -0.0440 -0.0458 -0.1678
    3TTP    C3937432   5.260   8.728   4.155  0.2367  0.0386 -0.4491
    3TTP    C4037433   5.140   8.765   4.073  0.5207 -0.6425  0.5123
    3TTP    C4137434   5.174   8.796   3.926  0.5089 -1.1463 -0.0024
    3TTP    C4237435   5.044   8.841   3.862 -0.5199  0.1669  0.4013
    4BIM     F137436   7.298   9.184   5.962 -0.2764 -0.1466  0.0522
    4BIM     F237437   7.324   9.435   6.063 -0.0942 -0.1326 -0.0291
    4BIM     O137438   6.919   9.262   5.584 -0.2004  0.0117  0.0086
    4BIM     N537439   7.090   9.853   5.938  0.2224  0.0007 -0.1773
    4BIM     N637440   6.788   9.864   5.623  0.2451  0.1214 -0.1950
    4BIM    C1937441   6.808   9.531   5.546  0.0008  0.0813 -0.0846
    4BIM    C2037442   6.903   9.501   5.637 -0.0254  0.0409 -0.0705
    4BIM    C2137443   6.955   9.361   5.651 -0.1304  0.0069 -0.0219
    4BIM    C2237444   7.056   9.364   5.758 -0.1333 -0.0329 -0.0181
    4BIM    C2337445   7.131   9.257   5.807 -0.2147 -0.0732  0.0204
    4BIM    C2437446   7.221   9.284   5.909 -0.1993 -0.1060  0.0156
    4BIM    C2537447   7.233   9.414   5.961 -0.1052 -0.0987 -0.0263
    4BIM    C2637448   7.158   9.520   5.913 -0.0237 -0.0587 -0.0650
    4BIM    C2737449   7.067   9.495   5.809 -0.0377 -0.0250 -0.0608
    4BIM    C2837450   6.974   9.585   5.737  0.0322  0.0208 -0.0947
    4BIM    C2937451   6.957   9.720   5.759  0.1312  0.0406 -0.1396
    4BIM    C3037452   7.030   9.792   5.857  0.1811  0.0185 -0.1601
    4BIM    C3137453   6.864   9.798   5.684  0.1935  0.0850 -0.1699
    5BIM     F137454   6.261   7.781   5.015 -0.2770 -0.0663  0.1264
    5BIM     F237455   6.086   7.678   4.833  0.0360  0.0544 -0.2457
    5BIM     O137456   6.168   8.311   4.957 -0.2515 -0.0322  0.3948
    5BIM     N537457   5.769   7.908   4.531  0.5046  0.2522 -0.5891
    5BIM     N637458   5.732   8.343   4.523  0.4615  0.2544 -0.3042
    5BIM    C1937459   5.968   8.401   4.763  0.0568  0.0953  0.1349
    5BIM    C2037460   5.998   8.272   4.785  0.0380  0.0818  0.0818
    5BIM    C2137461   6.102   8.233   4.886 -0.1242  0.0153  0.2236
    5BIM    C2237462   6.110   8.086   4.884 -0.1019  0.0176  0.1194
    5BIM    C2337463   6.193   8.004   4.961 -0.2182 -0.0327  0.1911
    5BIM    C2437464   6.182   7.867   4.942 -0.1684 -0.0188  0.0650
    5BIM    C2537465   6.092   7.815   4.848 -0.0069  0.0434 -0.1266
    5BIM    C2637466   6.010   7.895   4.771  0.1098  0.0936 -0.1990
    5BIM    C2737467   6.019   8.034   4.789  0.0615  0.0806 -0.0733
    5BIM    C2837468   5.946   8.146   4.724  0.1540  0.1228 -0.1043
    5BIM    C2937469   5.850   8.136   4.627  0.3160  0.1869 -0.2730
    5BIM    C3037470   5.806   8.011   4.575  0.4190  0.2227 -0.4462
    5BIM    C3137471   5.785   8.250   4.570  0.3951  0.2239 -0.2893
    1BTD     S237472   1.136   0.915   6.539 -0.0694  0.0887  0.2452
    1BTD     N137473   1.237   0.800   6.634 -0.0346  0.0234  0.1297
    1BTD     N237474   0.988   0.812   6.545 -0.0736  0.0949  0.2469
    1BTD     N337475   0.871   0.395   6.727 -0.0193 -0.0107  0.0415
    1BTD     N437476   1.177   0.381   6.837  0.0288 -0.0987 -0.1028
    1BTD     C537477   1.202   0.582   6.739 -0.0021 -0.0393  0.0101
    1BTD     C637478   1.160   0.697   6.663 -0.0282  0.0102  0.0999
    1BTD     C737479   1.020   0.703   6.613 -0.0501  0.0502  0.1655
    1BTD     C837480   0.931   0.594   6.641 -0.0447  0.0387  0.1379
    1BTD    C1537481   0.977   0.484   6.715 -0.0188 -0.0103  0.0494
    1BTD    C1637482   1.111   0.478   6.764  0.0023 -0.0488 -0.0139
    1BTD    C4337483   1.108   0.288   6.928  0.0941 -0.7521  0.1229
    1BTD    C4437484   1.171   0.194   7.027 -0.6551  0.5822  0.5847
    1BTD    C4537485   1.110   0.203   7.170 -0.1636  0.1304  0.3260
    1BTD    C4637486   0.973   0.154   7.202 -0.3379  0.0643 -0.5822
    1BTD    C4737487   1.195   0.056   6.965 -0.5310  0.2723 -0.4698
    1BTD    C4837488   1.268  -0.054   7.044 -0.2529 -0.6036 -0.1591
    1BTD    C4937489   1.259  -0.184   6.984 -0.3404  0.7048 -0.2004
    1BTD    C5037490   1.337  -0.288   7.064  0.7315 -0.1929  0.2692
    1BTD    C7537491   0.879   0.248   6.700 -0.1193 -0.4291  0.7234
    1BTD    C7637492   0.780   0.142   6.754  0.3091  0.1765 -1.1212
    1BTD    C7737493   0.761   0.147   6.910 -0.0606 -0.1999 -0.1579
    1BTD    C7837494   0.656   0.076   6.992 -0.3041 -0.5598  0.2293
    1BTD    C7937495   0.798  -0.002   6.696 -0.4154 -0.3170  0.2421
    1BTD    C8037496   0.930  -0.071   6.744  0.8180  0.1303 -0.1768
    1BTD    C8137497   0.932  -0.209   6.687  0.8280 -0.6736  0.4790
    1BTD    C8237498   1.034  -0.302   6.746 -0.1273  0.0571 -0.4030
    2TTP     S137499   1.498   0.588   6.763 -0.0968 -0.2801 -0.0239
    2TTP     S537500   1.484   0.171   6.866 -0.0401 -0.2705  0.0225
    2TTP     C137501   1.656   0.216   6.830 -0.0791 -0.3075 -0.2157
    2TTP     C237502   1.671   0.348   6.796 -0.0990 -0.3127 -0.2439
    2TTP     C337503   1.546   0.418   6.797 -0.0840 -0.2876 -0.0787
    2TTP     C437504   1.325   0.543   6.799 -0.0577 -0.2431  0.2145
    2TTP    C1737505   1.311   0.412   6.833 -0.0379 -0.2380  0.2427
    2TTP    C1837506   1.435   0.342   6.832 -0.0529 -0.2631  0.0774
    2TTP    C3237507   1.787   0.433   6.756 -0.1889  0.2115  0.2622
    2TTP    C3337508   1.852   0.525   6.862 -0.6725 -0.3282 -0.7905
    2TTP    C3437509   1.909   0.458   6.986  0.0801 -0.2488  0.5794
    2TTP    C3537510   2.019   0.353   6.969 -0.4689 -0.9104  0.7614
    2TTP    C3637511   2.159   0.382   6.915 -0.3109  0.0872 -0.1983
    2TTP    C3737512   2.242   0.249   6.931 -0.4381 -0.1815  0.2618
    2TTP    C3837513   2.375   0.239   6.861 -0.0096  0.1502 -0.1740
    2TTP    C3937514   2.361   0.204   6.709  0.1333 -0.1281  0.2872
    2TTP    C4037515   2.491   0.171   6.636  0.4184 -0.3443  0.8242
    2TTP    C4137516   2.471   0.144   6.490  0.6802 -0.0535  0.3158
    2TTP    C4237517   2.598   0.129   6.414 -0.0380 -0.1871  0.1842
    3TTP     S137518   0.657   0.671   6.545  0.2675 -0.2566 -0.0970
    3TTP     S537519   0.498   0.318   6.733  0.1144 -0.2205 -0.1581
    3TTP     C137520   0.360   0.412   6.660  0.1548 -0.1470 -0.1401
    3TTP     C237521   0.401   0.526   6.597  0.2044 -0.1538 -0.1202
    3TTP     C337522   0.543   0.544   6.605  0.2124 -0.2173 -0.1185
    3TTP     C437523   0.795   0.577   6.618  0.2272 -0.3301 -0.1148
    3TTP    C1737524   0.754   0.463   6.680  0.1775 -0.3233 -0.1348
    3TTP    C1837525   0.612   0.445   6.673  0.1695 -0.2598 -0.1366
    3TTP    C3237526   0.323   0.638   6.538 -0.2914 -0.1000  0.8173
    3TTP    C3337527   0.330   0.652   6.385 -0.4121 -0.5161  0.4265
    3TTP    C3437528   0.246   0.764   6.331  0.7144 -0.8926  0.0261
    3TTP    C3537529   0.282   0.795   6.188  0.2296 -0.4121 -0.1960
    3TTP    C3637530   0.204   0.903   6.129  0.5574 -0.2159 -0.3231
    3TTP    C3737531   0.054   0.871   6.094  0.2556 -0.5404  0.3999
    3TTP    C3837532  -0.024   0.984   6.024 -0.1974  0.1872 -0.1269
    3TTP    C3937533  -0.171   0.949   6.012 -0.3610  0.4340 -0.0456
    3TTP    C4037534  -0.254   1.047   5.930 -0.0021  0.1830 -0.0445
    3TTP    C4137535  -0.406   1.030   5.944  0.1566  0.1937  0.3302
    3TTP    C4237536  -0.500   1.104   5.844  0.1159 -0.2026  0.7765
    4BIM     F137537   1.790  -0.438   7.303 -0.1030 -0.1273 -0.3066
    4BIM     F237538   2.019  -0.483   7.164  0.1196  0.1357 -0.0281
    4BIM     O137539   1.613   0.014   7.062 -0.1581 -0.1467 -0.3024
    4BIM     N537540   2.224  -0.228   6.793  0.4004  0.4995  0.3753
    4BIM     N637541   2.040   0.135   6.633  0.3124  0.4312  0.3222
    4BIM    C1937542   1.770   0.131   6.844  0.0350  0.0974 -0.0349
    4BIM    C2037543   1.805   0.019   6.910  0.0402  0.0920 -0.0468
    4BIM    C2137544   1.720  -0.035   7.021 -0.0628 -0.0372 -0.1881
    4BIM    C2237545   1.787  -0.156   7.071 -0.0278 -0.0079 -0.1633
    4BIM    C2337546   1.745  -0.241   7.173 -0.0941 -0.0961 -0.2626
    4BIM    C2437547   1.825  -0.350   7.203 -0.0423 -0.0454 -0.2140
    4BIM    C2537548   1.943  -0.373   7.131  0.0724  0.0903 -0.0705
    4BIM    C2637549   1.986  -0.290   7.029  0.1391  0.1791  0.0291
    4BIM    C2737550   1.906  -0.179   6.998  0.0881  0.1292 -0.0181
    4BIM    C2837551   1.922  -0.072   6.896  0.1344  0.1960  0.0592
    4BIM    C2937552   2.025  -0.059   6.806  0.2437  0.3288  0.2019
    4BIM    C3037553   2.134  -0.152   6.799  0.3294  0.4222  0.2967
    4BIM    C3137554   2.033   0.047   6.711  0.2809  0.3843  0.2674
    5BIM     F137555  -0.101  -0.136   7.072 -0.1833  0.0651  0.3372
    5BIM     F237556  -0.318  -0.051   6.931 -0.0129 -0.2000 -0.0864
    5BIM     O137557   0.284   0.188   6.873 -0.0773  0.1543  0.6858
    5BIM     N537558  -0.354   0.302   6.586  0.3068 -0.5181 -0.4470
    5BIM     N637559  -0.009   0.538   6.458  0.3555 -0.3950 -0.0893
    5BIM    C1937560   0.215   0.384   6.667  0.1229 -0.0675  0.4048
    5BIM    C2037561   0.126   0.299   6.723  0.0896 -0.0796  0.3337
    5BIM    C2137562   0.169   0.201   6.828 -0.0143  0.0391  0.4882
    5BIM    C2237563   0.049   0.125   6.867 -0.0260 -0.0086  0.3583
    5BIM    C2337564   0.040   0.023   6.961 -0.1097  0.0653  0.4303
    5BIM    C2437565  -0.085  -0.035   6.980 -0.1032 -0.0018  0.2772
    5BIM    C2537566  -0.196   0.009   6.907 -0.0156 -0.1385  0.0590
    5BIM    C2637567  -0.188   0.111   6.813  0.0684 -0.2128 -0.0141
    5BIM    C2737568  -0.062   0.170   6.792  0.0632 -0.1467  0.1386
    5BIM    C2837569  -0.019   0.279   6.701  0.1376 -0.1957  0.1149
    5BIM    C2937570  -0.100   0.348   6.613  0.2329 -0.3242 -0.0739
    5BIM    C3037571  -0.239   0.322   6.598  0.2735 -0.4304 -0.2784
    5BIM    C3137572  -0.049   0.452   6.528  0.2999 -0.3624 -0.0813
    1BTD     S237573   7.132   6.980   7.491 -0.0209  0.0459  0.3560
    1BTD     N137574   6.970   7.054   7.466 -0.0082 -0.0011  0.1333
    1BTD     N237575   7.222   7.135   7.477 -0.0421  0.0656  0.4343
    1BTD     N337576   7.114   7.585   7.402 -0.0621  0.0207  0.1916
    1BTD     N437577   6.804   7.486   7.388 -0.0204 -0.0612 -0.1795
    1BTD     C537578   6.887   7.281   7.426 -0.0151 -0.0315 -0.0256
    1BTD     C637579   6.991   7.184   7.449 -0.0198  0.0002  0.1289
    1BTD     C737580   7.132   7.229   7.455 -0.0387  0.0376  0.2973
    1BTD     C837581   7.162   7.369   7.438 -0.0520  0.0411  0.3030
    1BTD    C1537582   7.057   7.460   7.415 -0.0469  0.0093  0.1485
    1BTD    C1637583   6.921   7.417   7.409 -0.0286 -0.0266 -0.0137
    1BTD    C4337584   6.793   7.596   7.293 -0.0153 -0.0325  0.2622
    1BTD    C4437585   6.689   7.705   7.283  0.1934 -0.0746  0.0258
    1BTD    C4537586   6.686   7.789   7.144  0.6079  0.3963  0.2127
    1BTD    C4637587   6.659   7.715   7.017  0.5031 -0.4743  0.2381
    1BTD    C4737588   6.688   7.783   7.414 -0.1420  0.5003  0.2466
    1BTD    C4837589   6.582   7.885   7.427  0.0907 -0.4076  0.2540
    1BTD    C4937590   6.639   8.022   7.467  0.4112  0.3787  0.0524
    1BTD    C5037591   6.536   8.099   7.556 -0.0682  0.1393  0.4080
    1BTD    C7537592   7.051   7.725   7.420 -0.7878  0.4227 -0.2406
    1BTD    C7637593   7.048   7.772   7.565  0.0969  0.1734 -0.3918
    1BTD    C7737594   6.993   7.915   7.585 -0.4226  0.0521 -0.0831
    1BTD    C7837595   7.048   8.024   7.493  0.4341 -0.7405 -0.1093
    1BTD    C7937596   6.983   7.673   7.668  0.0849 -0.2537 -0.2854
    1BTD    C8037597   7.001   7.690   7.822  0.6329 -0.3374  0.0092
    1BTD    C8137598   6.912   7.609   7.913 -0.2215  0.3323  0.1272
    1BTD    C8237599   6.909   7.673   8.052  1.1104 -0.0771 -0.3549
    2TTP     S137600   6.616   7.145   7.435  0.3998 -0.0960  0.4102
    2TTP     S537601   6.424   7.529   7.410 -0.1028 -0.3811 -0.1719
    2TTP     C137602   6.296   7.402   7.429  0.0492 -0.5424 -0.2263
    2TTP     C237603   6.347   7.275   7.438  0.2133 -0.4640 -0.0496
    2TTP     C337604   6.490   7.275   7.430  0.2249 -0.2736  0.1349
    2TTP     C437605   6.744   7.273   7.416  0.2478  0.0652  0.4647
    2TTP    C1737606   6.692   7.399   7.407  0.0837 -0.0132  0.2881
    2TTP    C1837607   6.549   7.399   7.415  0.0719 -0.2037  0.1035
    2TTP    C3237608   6.275   7.142   7.453  0.5639 -0.0222 -0.0303
    2TTP    C3337609   6.260   7.094   7.595  0.4409  1.0252 -0.3198
    2TTP    C3437610   6.205   6.941   7.591 -0.2545 -0.3658  0.4009
    2TTP    C3537611   6.061   6.927   7.538 -0.1087  0.1259  0.0146
    2TTP    C3637612   5.945   7.001   7.606 -0.8310  0.7531  0.0593
    2TTP    C3737613   5.915   6.953   7.749 -0.4605 -0.6380  0.1684
    2TTP    C3837614   5.798   7.019   7.814  0.1901 -0.1604  0.5182
    2TTP    C3937615   5.774   7.000   7.956 -0.0584 -0.7014 -0.0370
    2TTP    C4037616   5.780   6.858   8.014  0.2883 -0.9727 -0.9999
    2TTP    C4137617   5.782   6.858   8.164  0.2484 -0.1171  0.3250
    2TTP    C4237618   5.812   6.727   8.224  0.1883  0.0434 -0.2505
    3TTP     S137619   7.461   7.414   7.424  0.0107  0.3189 -0.0747
    3TTP     S537620   7.388   7.824   7.318 -0.0706  0.3203 -0.0120
    3TTP     C137621   7.566   7.791   7.300 -0.0600  0.3660  0.0090
    3TTP     C237622   7.599   7.662   7.332 -0.0342  0.3681 -0.0091
    3TTP     C337623   7.485   7.585   7.371 -0.0221  0.3339 -0.0404
    3TTP     C437624   7.283   7.448   7.441  0.0002  0.2732 -0.0958
    3TTP    C1737625   7.250   7.576   7.410 -0.0260  0.2711 -0.0777
    3TTP    C1837626   7.364   7.653   7.370 -0.0380  0.3053 -0.0465
    3TTP    C3237627   7.745   7.605   7.336 -0.7297 -0.3396 -0.5662
    3TTP    C3337628   7.788   7.510   7.221  0.0639 -0.4517  0.3625
    3TTP    C3437629   7.801   7.574   7.080  0.2363 -0.5144 -0.3130
    3TTP    C3537630   7.943   7.611   7.031  0.2971 -0.3729  0.1993
    3TTP    C3637631   7.938   7.692   6.895  0.5612  0.1015 -0.0977
    3TTP    C3737632   7.873   7.829   6.898 -0.2350  0.2799  0.3455
    3TTP    C3837633   7.826   7.867   6.759  0.4532  0.4738 -0.4450
    3TTP    C3937634   7.708   7.953   6.757  0.9381 -0.1885 -0.3250
    3TTP    C4037635   7.645   7.983   6.622 -0.4458  0.2422 -0.1269
    3TTP    C4137636   7.514   8.072   6.611 -0.3789  0.1841 -0.2563
    3TTP    C4237637   7.448   8.085   6.473  0.1364  0.2002 -0.1053
    4BIM     F137638   5.822   8.051   7.611 -0.3166 -0.3235  0.3848
    4BIM     F237639   5.608   7.912   7.516 -0.2252 -0.2807  0.1136
    4BIM     O137640   6.216   7.685   7.551 -0.1912 -0.1684  0.2577
    4BIM     N537641   5.581   7.451   7.337 -0.0042 -0.1085 -0.3661
    4BIM     N637642   5.932   7.193   7.309  0.0753  0.0043 -0.4108
    4BIM    C1937643   6.152   7.422   7.439 -0.0593 -0.0722 -0.0461
    4BIM    C2037644   6.061   7.519   7.458 -0.0944 -0.1130 -0.0036
    4BIM    C2137645   6.102   7.652   7.516 -0.1619 -0.1612  0.1547
    4BIM    C2237646   5.979   7.734   7.523 -0.1858 -0.1975  0.1626
    4BIM    C2337647   5.967   7.865   7.570 -0.2462 -0.2469  0.2866
    4BIM    C2437648   5.841   7.922   7.566 -0.2580 -0.2743  0.2667
    4BIM    C2537649   5.731   7.850   7.517 -0.2107 -0.2522  0.1271
    4BIM    C2637650   5.742   7.720   7.470 -0.1506 -0.2027  0.0029
    4BIM    C2737651   5.869   7.660   7.473 -0.1377 -0.1744  0.0206
    4BIM    C2837652   5.915   7.525   7.431 -0.0795 -0.1218 -0.0869
    4BIM    C2937653   5.837   7.425   7.378 -0.0229 -0.0875 -0.2354
    4BIM    C3037654   5.697   7.440   7.356 -0.0128 -0.0991 -0.3068
    4BIM    C3137655   5.890   7.298   7.340  0.0308 -0.0373 -0.3310
    5BIM     F137656   7.533   8.475   6.863  0.1372  0.0169 -0.1606
    5BIM     F237657   7.786   8.533   6.946 -0.0241  0.1431  0.2502
    5BIM     O137658   7.459   7.991   7.094  0.1320 -0.1795 -0.5718
    5BIM     N537659   8.096   8.272   7.229 -0.2594  0.1841  0.5476
    5BIM     N637660   7.987   7.882   7.393 -0.2310  0.0052  0.1434
    5BIM    C1937661   7.674   7.875   7.255 -0.0238 -0.1289 -0.3255
    5BIM    C2037662   7.683   7.994   7.194 -0.0163 -0.0844 -0.2381
    5BIM    C2137663   7.568   8.048   7.113  0.0659 -0.1144 -0.3752
    5BIM    C2237664   7.611   8.179   7.061  0.0525 -0.0520 -0.2302
    5BIM    C2337665   7.538   8.266   6.980  0.1104 -0.0525 -0.2840
    5BIM    C2437666   7.600   8.384   6.943  0.0831  0.0137 -0.1188
    5BIM    C2537667   7.730   8.414   6.985 -0.0002  0.0787  0.0926
    5BIM    C2637668   7.803   8.328   7.066 -0.0584  0.0799  0.1472
    5BIM    C2737669   7.742   8.207   7.104 -0.0318  0.0131 -0.0176
    5BIM    C2837670   7.792   8.095   7.188 -0.0774 -0.0043 -0.0139
    5BIM    C2937671   7.915   8.086   7.249 -0.1600  0.0446  0.1633
    5BIM    C3037672   8.014   8.189   7.238 -0.2143  0.1211  0.3738
    5BIM    C3137673   7.954   7.974   7.328 -0.1986  0.0226  0.1513
    1BTD     S237674   6.244   6.697   8.398 -0.0361  0.1825 -0.4305
    1BTD     N137675   6.414   6.662   8.445 -0.1631  0.3376  0.1595
    1BTD     N237676   6.187   6.528   8.424  0.0651  0.0888 -0.8075
    1BTD     N337677   6.379   6.122   8.561  0.0416  0.1779 -0.5097
    1BTD     N437678   6.658   6.287   8.587 -0.2398  0.4846  0.6816
    1BTD     C537679   6.538   6.465   8.519 -0.1997  0.4106  0.4177
    1BTD     C637680   6.419   6.533   8.476 -0.1256  0.3130  0.0508
    1BTD     C737681   6.292   6.458   8.464  0.0021  0.1736 -0.4904
    1BTD     C837682   6.290   6.318   8.496  0.0494  0.1391 -0.6378
    1BTD    C1537683   6.409   6.255   8.538 -0.0265  0.2381 -0.2654
    1BTD    C1637684   6.531   6.327   8.549 -0.1497  0.3723  0.2562
    1BTD    C4337685   6.702   6.179   8.682 -0.5502 -0.6121  0.1571
    1BTD    C4437686   6.831   6.099   8.679 -0.3604 -0.3567 -0.5436
    1BTD    C4537687   6.845   6.016   8.548  0.0139 -0.3455 -0.0843
    1BTD    C4637688   6.972   5.932   8.523  0.3547  0.1768 -0.2078
    1BTD    C4737689   6.874   6.032   8.813  0.0163  0.4214  0.5338
    1BTD    C4837690   6.881   6.096   8.945  0.2192  0.0890 -0.6361
    1BTD    C4937691   6.760   6.162   9.024 -0.0345  0.1410 -0.4200
    1BTD    C5037692   6.638   6.079   9.044  0.1300  0.4407 -0.0666
    1BTD    C7537693   6.471   6.009   8.561 -0.0655 -0.3143 -0.2409
    1BTD    C7637694   6.458   5.879   8.641 -0.3066  0.1469 -0.1403
    1BTD    C7737695   6.575   5.784   8.615 -0.2727  0.3108  0.5257
    1BTD    C7837696   6.597   5.734   8.479  0.0172  0.7118  0.1692
    1BTD    C7937697   6.409   5.891   8.793 -1.0055  0.1751  0.2996
    1BTD    C8037698   6.407   5.768   8.884  0.3573 -0.0670  0.2980
    1BTD    C8137699   6.335   5.799   9.017 -0.3581 -0.5223  0.2144
    1BTD    C8237700   6.188   5.847   9.020 -0.3545 -0.6170  0.5773
    2TTP     S137701   6.764   6.660   8.532 -0.2360 -0.3036 -0.0270
    2TTP     S537702   7.022   6.351   8.685  0.0286 -0.0278  0.0846
    2TTP     C137703   7.114   6.508   8.684 -0.0811  0.0360 -0.0438
    2TTP     C237704   7.039   6.613   8.637 -0.1694 -0.0453 -0.0856
    2TTP     C337705   6.907   6.573   8.599 -0.1533 -0.1611 -0.0184
    2TTP     C437706   6.673   6.502   8.532 -0.1262 -0.3675  0.1011
    2TTP    C1737707   6.747   6.398   8.580 -0.0380 -0.2860  0.1431
    2TTP    C1837708   6.879   6.438   8.617 -0.0540 -0.1702  0.0756
    2TTP    C3237709   7.083   6.754   8.619  0.0463 -0.7568 -0.0021
    2TTP    C3337710   7.107   6.802   8.476  0.0265 -0.0815 -0.8627
    2TTP    C3437711   7.157   6.945   8.446  0.1164  0.5145  0.9312
    2TTP    C3537712   7.204   6.963   8.300  0.3011 -0.5446 -0.2952
    2TTP    C3637713   7.278   7.088   8.262  0.0486 -0.2096  0.0987
    2TTP    C3737714   7.220   7.232   8.298 -0.0580  1.4013  0.0084
    2TTP    C3837715   7.288   7.336   8.231 -0.6408 -0.0950 -0.4794
    2TTP    C3937716   7.233   7.478   8.250 -0.6956  0.2057  0.0329
    2TTP    C4037717   7.290   7.575   8.154 -1.1230  0.2776 -0.1715
    2TTP    C4137718   7.275   7.718   8.203  0.1165 -0.1918 -0.1352
    2TTP    C4237719   7.351   7.820   8.127 -0.3764  0.2516 -0.2265
    3TTP     S137720   6.009   6.223   8.462 -0.1118 -0.2124 -0.1597
    3TTP     S537721   6.134   5.825   8.568 -0.0665 -0.1286  0.1032
    3TTP     C137722   5.957   5.821   8.525 -0.0406 -0.1965  0.0028
    3TTP     C237723   5.908   5.943   8.490 -0.0530 -0.2261 -0.0844
    3TTP     C337724   6.008   6.045   8.495 -0.0834 -0.1966 -0.0751
    3TTP     C437725   6.186   6.227   8.505 -0.1379 -0.1444 -0.0594
    3TTP    C1737726   6.235   6.104   8.541 -0.1254 -0.1147  0.0278
    3TTP    C1837727   6.134   6.002   8.535 -0.0949 -0.1444  0.0186
    3TTP    C3237728   5.761   5.986   8.471 -0.1951  0.1569  0.5238
    3TTP    C3337729   5.700   6.106   8.538  0.0149 -0.5360  0.9611
    3TTP    C3437730   5.690   6.109   8.691  0.5371  0.0191  0.5415
    3TTP    C3537731   5.576   6.009   8.745 -0.7391 -0.0001  0.5884
    3TTP    C3637732   5.436   6.049   8.714  0.8458 -0.3377  0.2430
    3TTP    C3737733   5.334   5.954   8.778  0.6044  0.6402 -0.4062
    3TTP    C3837734   5.312   5.943   8.928 -0.7093  0.0835  0.4474
    3TTP    C3937735   5.274   6.075   9.004  0.3575  0.3117 -1.0587
    3TTP    C4037736   5.185   6.187   8.941 -0.1032  0.5486  0.4057
    3TTP    C4137737   5.041   6.149   8.922  0.2808 -0.8424 -0.1476
    3TTP    C4237738   4.967   6.274   8.888  0.3105 -0.0135  0.1053
    4BIM     F137739   7.697   6.012   8.977  0.1490 -0.0768  0.0467
    4BIM     F237740   7.871   6.222   8.974  0.1525 -0.0819 -0.1070
    4BIM     O137741   7.247   6.249   8.792  0.0821 -0.1428  0.1264
    4BIM     N537742   7.798   6.692   8.837  0.1093 -0.1365 -0.2720
    4BIM     N637743   7.411   6.835   8.693  0.0561 -0.1869 -0.1791
    4BIM    C1937744   7.252   6.533   8.723  0.0614 -0.1710  0.0075
    4BIM    C2037745   7.359   6.465   8.770  0.0781 -0.1543 -0.0069
    4BIM    C2137746   7.348   6.319   8.803  0.0880 -0.1404  0.0575
    4BIM    C2237747   7.481   6.277   8.851  0.1056 -0.1237  0.0226
    4BIM    C2337748   7.520   6.151   8.893  0.1193 -0.1072  0.0596
    4BIM    C2437749   7.652   6.135   8.934  0.1349 -0.0934  0.0140
    4BIM    C2537750   7.741   6.243   8.932  0.1366 -0.0962 -0.0651
    4BIM    C2637751   7.703   6.370   8.890  0.1228 -0.1127 -0.1020
    4BIM    C2737752   7.570   6.388   8.848  0.1072 -0.1268 -0.0572
    4BIM    C2837753   7.498   6.508   8.799  0.0902 -0.1457 -0.0782
    4BIM    C2937754   7.551   6.634   8.782  0.0867 -0.1535 -0.1509
    4BIM    C3037755   7.687   6.666   8.812  0.0992 -0.1442 -0.2172
    4BIM    C3137756   7.473   6.743   8.733  0.0701 -0.1719 -0.1659
    5BIM     F137757   6.048   5.011   8.667 -0.0294  0.0470  0.0913
    5BIM     F237758   5.789   4.975   8.591  0.0626 -0.0683 -0.1721
    5BIM     O137759   6.097   5.548   8.614 -0.2506  0.0845  0.2608
    5BIM     N537760   5.451   5.306   8.445  0.0372 -0.2078 -0.4301
    5BIM     N637761   5.542   5.733   8.419 -0.1540 -0.1552 -0.2449
    5BIM    C1937762   5.867   5.704   8.523 -0.2411 -0.0127  0.0690
    5BIM    C2037763   5.864   5.570   8.539 -0.1891 -0.0174  0.0367
    5BIM    C2137764   5.987   5.497   8.587 -0.1979  0.0346  0.1409
    5BIM    C2237765   5.950   5.354   8.593 -0.1318  0.0141  0.0727
    5BIM    C2337766   6.031   5.248   8.632 -0.1153  0.0465  0.1278
    5BIM    C2437767   5.974   5.121   8.630 -0.0494  0.0177  0.0430
    5BIM    C2537768   5.840   5.103   8.591 -0.0020 -0.0416 -0.0924
    5BIM    C2637769   5.759   5.209   8.553 -0.0184 -0.0745 -0.1485
    5BIM    C2737770   5.815   5.338   8.554 -0.0848 -0.0459 -0.0641
    5BIM    C2837771   5.757   5.470   8.519 -0.1180 -0.0677 -0.0916
    5BIM    C2937772   5.629   5.494   8.476 -0.0887 -0.1237 -0.2129
    5BIM    C3037773   5.532   5.391   8.459 -0.0194 -0.1698 -0.3319
    5BIM    C3137774   5.582   5.625   8.445 -0.1248 -0.1408 -0.2298
    1BTD     S237775   5.101   2.718   0.603  0.3071 -0.1815 -0.2937
    1BTD     N137776   5.171   2.868   0.535  0.2440 -0.1971 -0.3930
    1BTD     N237777   4.945   2.734   0.516  0.1600 -0.1088 -0.0175
    1BTD     N337778   4.753   3.039   0.215 -0.2539  0.0111  0.3659
    1BTD     N437779   5.032   3.204   0.238 -0.1504 -0.0976 -0.0968
    1BTD     C537780   5.095   3.042   0.379  0.0368 -0.1439 -0.2328
    1BTD     C637781   5.079   2.920   0.455  0.1228 -0.1498 -0.2240
    1BTD     C737782   4.952   2.845   0.444  0.0757 -0.1004 -0.0138
    1BTD     C837783   4.848   2.895   0.359 -0.0548 -0.0474  0.1771
    1BTD    C1537784   4.868   3.014   0.288 -0.1356 -0.0436  0.1607
    1BTD    C1637785   4.990   3.087   0.298 -0.0902 -0.0913 -0.0418
    1BTD    C4337786   4.949   3.313   0.194  0.6621  0.0613  0.5370
    1BTD    C4437787   4.993   3.425   0.091  0.5549 -0.4921 -0.1246
    1BTD    C4537788   5.050   3.391  -0.047 -0.4430  0.4124 -0.6528
    1BTD    C4637789   4.958   3.317  -0.142 -0.1520 -0.2872 -0.3006
    1BTD    C4737790   4.898   3.550   0.080  0.6429 -0.6937 -0.2474
    1BTD    C4837791   4.853   3.619   0.213  0.5161 -0.0084  0.4413
    1BTD    C4937792   4.955   3.712   0.272  0.1742 -0.0943 -0.1511
    1BTD    C5037793   4.930   3.759   0.414  0.0674 -0.5505 -0.3944
    1BTD    C7537794   4.763   3.074   0.076 -0.7024 -0.4630  0.2881
    1BTD    C7637795   4.642   3.123   0.001  0.4884 -0.5885  0.2732
    1BTD    C7737796   4.650   3.139  -0.156  0.2813 -0.2699  0.1668
    1BTD    C7837797   4.682   3.010  -0.239  0.1182 -0.0620  0.4771
    1BTD    C7937798   4.595   3.257   0.067  0.3663  0.0255 -0.1479
    1BTD    C8037799   4.463   3.320   0.023  0.2171  0.6169 -0.4019
    1BTD    C8137800   4.428   3.435   0.112  0.4845  0.2691 -0.9523
    1BTD    C8237801   4.296   3.503   0.090 -0.2309 -0.4313  0.6053
    2TTP     S137802   5.366   3.161   0.453  0.0232  0.1269  0.0285
    2TTP     S537803   5.262   3.514   0.231 -0.0620  0.0666 -0.0272
    2TTP     C137804   5.421   3.543   0.314 -0.0563  0.1088 -0.0527
    2TTP     C237805   5.462   3.435   0.387 -0.0296  0.1298 -0.0370
    2TTP     C337806   5.370   3.326   0.381 -0.0128  0.1135 -0.0043
    2TTP     C437807   5.206   3.132   0.370  0.0175  0.0848  0.0540
    2TTP    C1737808   5.165   3.239   0.296 -0.0092  0.0637  0.0384
    2TTP    C1837809   5.257   3.348   0.303 -0.0261  0.0800  0.0056
    2TTP    C3237810   5.586   3.430   0.476 -0.1345 -0.1942 -0.2098
    2TTP    C3337811   5.561   3.368   0.620 -0.6368 -0.7430 -0.1361
    2TTP    C3437812   5.694   3.360   0.701  0.5768  0.0611  0.2650
    2TTP    C3537813   5.671   3.336   0.848  0.1582  0.3546 -0.2602
    2TTP    C3637814   5.790   3.268   0.918 -0.1444  0.3862  0.5039
    2TTP    C3737815   5.763   3.222   1.058 -0.6813  0.2523 -0.9841
    2TTP    C3837816   5.901   3.178   1.117  0.3342 -0.8321  0.4986
    2TTP    C3937817   5.887   3.114   1.261 -0.1674  0.5294  0.4336
    2TTP    C4037818   5.833   2.972   1.263  0.2656  0.7629  0.3322
    2TTP    C4137819   5.840   2.888   1.385 -0.5820 -0.4414 -0.4541
    2TTP    C4237820   5.987   2.865   1.445  0.3112  0.0974 -0.7423
    3TTP     S137821   4.596   2.749   0.433  0.1874  0.1953  0.1210
    3TTP     S537822   4.379   3.033   0.193  0.3083  0.0477 -0.1632
    3TTP     C137823   4.260   2.931   0.285  0.2608  0.0758 -0.1938
    3TTP     C237824   4.320   2.838   0.365  0.2208  0.1230 -0.1078
    3TTP     C337825   4.462   2.843   0.356  0.2259  0.1388 -0.0147
    3TTP     C437826   4.716   2.851   0.341  0.2348  0.1673  0.1516
    3TTP    C1737827   4.656   2.945   0.262  0.2751  0.1200  0.0656
    3TTP    C1837828   4.513   2.939   0.271  0.2697  0.1042 -0.0275
    3TTP    C3237829   4.250   2.731   0.461 -0.6613 -0.2553  0.3100
    3TTP    C3337830   4.268   2.588   0.414  0.1594  0.1606  0.2323
    3TTP    C3437831   4.200   2.469   0.488  0.4224  0.6912  0.7565
    3TTP    C3537832   4.231   2.444   0.639 -0.1653 -0.1970  0.0946
    3TTP    C3637833   4.381   2.427   0.670 -0.7371 -0.1179 -0.6369
    3TTP    C3737834   4.415   2.397   0.820 -0.4579  0.5645  0.3366
    3TTP    C3837835   4.564   2.385   0.849  0.3828 -0.0249 -0.2978
    3TTP    C3937836   4.588   2.321   0.989 -0.4034 -0.6642 -0.0310
    3TTP    C4037837   4.730   2.338   1.032 -0.7940  1.0848  0.2483
    3TTP    C4137838   4.741   2.285   1.176 -0.3041  0.3786  0.0618
    3TTP    C4237839   4.879   2.238   1.212  0.1926  0.0134  0.0119
    4BIM     F137840   5.201   4.332   0.239 -0.0668  0.0762  0.5514
    4BIM     F237841   5.461   4.402   0.275 -0.0013  0.0497  0.1401
    4BIM     O137842   5.235   3.793   0.275 -0.0738  0.0761  0.5583
    4BIM     N537843   5.860   4.119   0.353  0.0873  0.0119 -0.4463
    4BIM     N637844   5.834   3.684   0.373  0.0685  0.0173 -0.3580
    4BIM    C1937845   5.496   3.669   0.322 -0.0140  0.0510  0.1678
    4BIM    C2037846   5.477   3.802   0.312 -0.0149  0.0520  0.1821
    4BIM    C2137847   5.340   3.858   0.287 -0.0466  0.0653  0.3885
    4BIM    C2237848   5.355   4.004   0.282 -0.0386  0.0628  0.3485
    4BIM    C2337849   5.256   4.099   0.261 -0.0602  0.0721  0.4923
    4BIM    C2437850   5.294   4.233   0.259 -0.0469  0.0673  0.4177
    4BIM    C2537851   5.429   4.269   0.278 -0.0133  0.0539  0.2057
    4BIM    C2637852   5.528   4.174   0.298  0.0083  0.0446  0.0615
    4BIM    C2737853   5.491   4.039   0.300 -0.0045  0.0491  0.1340
    4BIM    C2837854   5.571   3.916   0.320  0.0113  0.0419  0.0233
    4BIM    C2937855   5.707   3.909   0.341  0.0442  0.0284 -0.1863
    4BIM    C3037856   5.791   4.025   0.347  0.0677  0.0194 -0.3285
    4BIM    C3137857   5.776   3.785   0.359  0.0572  0.0224 -0.2795
    5BIM     F137858   3.721   3.443  -0.075  0.1397  0.3192  0.0851
    5BIM     F237859   3.519   3.308   0.048  0.0108  0.1205 -0.3382
    5BIM     O137860   4.152   3.171   0.106 -0.0455  0.0571  0.1332
    5BIM     N537861   3.537   2.921   0.355 -0.3064 -0.3522 -0.9123
    5BIM     N637862   3.914   2.735   0.472 -0.4251 -0.5169 -0.7893
    5BIM    C1937863   4.113   2.946   0.289 -0.2343 -0.2258 -0.2540
    5BIM    C2037864   4.012   3.019   0.238 -0.1827 -0.1522 -0.2496
    5BIM    C2137865   4.040   3.134   0.145 -0.0861 -0.0072 -0.0442
    5BIM    C2237866   3.910   3.192   0.109 -0.0500  0.0424 -0.0960
    5BIM    C2337867   3.885   3.300   0.025  0.0367  0.1709  0.0428
    5BIM    C2437868   3.753   3.337   0.006  0.0553  0.1943 -0.0431
    5BIM    C2537869   3.649   3.267   0.070 -0.0112  0.0917 -0.2612
    5BIM    C2637870   3.673   3.159   0.154 -0.0979 -0.0367 -0.4006
    5BIM    C2737871   3.806   3.121   0.174 -0.1180 -0.0623 -0.3166
    5BIM    C2837872   3.865   3.012   0.256 -0.2022 -0.1860 -0.4196
    5BIM    C2937873   3.796   2.921   0.334 -0.2828 -0.3084 -0.6320
    5BIM    C3037874   3.654   2.921   0.345 -0.2953 -0.3320 -0.7854
    5BIM    C3137875   3.862   2.819   0.410 -0.3606 -0.4224 -0.7173
    1BTD     S237876   5.144   8.476   2.128 -0.1767  0.0915  0.1999
    1BTD     N137877   5.136   8.655   2.143 -0.1854  0.0947  0.1568
    1BTD     N237878   5.290   8.459   2.231 -0.1080  0.1349  0.1096
    1BTD     N337879   5.573   8.748   2.469  0.0165  0.2286 -0.1521
    1BTD     N437880   5.383   8.989   2.361 -0.0792  0.1795 -0.0939
    1BTD     C537881   5.267   8.827   2.258 -0.1289  0.1395  0.0253
    1BTD     C637882   5.237   8.691   2.220 -0.1391  0.1264  0.0813
    1BTD     C737883   5.323   8.582   2.270 -0.0956  0.1488  0.0550
    1BTD     C837884   5.436   8.613   2.354 -0.0442  0.1836 -0.0263
    1BTD    C1537885   5.461   8.747   2.388 -0.0359  0.1950 -0.0791
    1BTD    C1637886   5.378   8.853   2.341 -0.0777  0.1738 -0.0537
    1BTD    C4337887   5.505   9.066   2.411 -0.3947  0.7681  0.5670
    1BTD    C4437888   5.541   9.213   2.382 -0.7769  0.1731 -0.2824
    1BTD    C4537889   5.630   9.281   2.496  0.1928  0.3477 -0.0292
    1BTD    C4637890   5.562   9.310   2.632 -0.2730 -0.0593  0.5852
    1BTD    C4737891   5.613   9.224   2.242  0.2529 -0.2000  0.0512
    1BTD    C4837892   5.652   9.364   2.194 -0.4128 -0.5495 -0.3861
    1BTD    C4937893   5.541   9.460   2.165 -0.4371 -0.7885 -0.7717
    1BTD    C5037894   5.590   9.606   2.144 -0.5403  0.2103 -0.5066
    1BTD    C7537895   5.586   8.829   2.593  0.3844 -0.4166  0.3496
    1BTD    C7637896   5.720   8.848   2.664  0.3200  0.0654  0.5144
    1BTD    C7737897   5.808   8.956   2.593 -0.1202 -0.0968 -0.0712
    1BTD    C7837898   5.937   8.999   2.668  0.7871 -0.1878  0.2021
    1BTD    C7937899   5.709   8.868   2.814  0.6277  0.0790  0.2011
    1BTD    C8037900   5.621   8.766   2.892 -0.1617  0.6492  0.0281
    1BTD    C8137901   5.656   8.618   2.860  0.8597  0.1783 -0.2804
    1BTD    C8237902   5.561   8.520   2.924  0.1559  0.4162  0.4698
    2TTP     S137903   5.052   9.013   2.150 -0.1930  0.0131  0.2342
    2TTP     S537904   5.250   9.342   2.343  0.0824  0.1411 -0.2625
    2TTP     C137905   5.103   9.405   2.258 -0.1762  0.0459  0.1077
    2TTP     C237906   5.033   9.308   2.193 -0.2763  0.0010  0.2829
    2TTP     C337907   5.093   9.179   2.209 -0.1527  0.0401  0.1310
    2TTP     C437908   5.199   8.949   2.235  0.0657  0.1085 -0.1361
    2TTP    C1737909   5.269   9.047   2.300  0.1656  0.1534 -0.3113
    2TTP    C1837910   5.209   9.176   2.284  0.0420  0.1147 -0.1594
    2TTP    C3237911   4.908   9.314   2.095 -1.2589 -0.3360 -0.1647
    2TTP    C3337912   4.930   9.275   1.951 -0.2174  0.2622  0.3518
    2TTP    C3437913   4.799   9.304   1.876 -0.4881  0.5185  0.0268
    2TTP    C3537914   4.774   9.195   1.776  0.0318  0.1561  0.0493
    2TTP    C3637915   4.631   9.187   1.721  0.8286 -0.1473 -0.9596
    2TTP    C3737916   4.576   9.069   1.637  0.3538 -0.5039 -0.5949
    2TTP    C3837917   4.588   8.934   1.710  0.0422 -0.2552  0.4091
    2TTP    C3937918   4.500   8.824   1.652  0.2128  0.5872  0.8581
    2TTP    C4037919   4.521   8.682   1.702 -0.0770 -0.7625  0.0106
    2TTP    C4137920   4.413   8.582   1.667  0.2005  0.6972  0.2485
    2TTP    C4237921   4.443   8.457   1.754 -0.1301 -0.4629  1.3520
    3TTP     S137922   5.609   8.368   2.380 -0.1415  0.0639 -0.0995
    3TTP     S537923   5.912   8.618   2.555 -0.2433 -0.0076  0.1804
    3TTP     C137924   5.981   8.452   2.531 -0.1645  0.0567 -0.0394
    3TTP     C237925   5.892   8.365   2.475 -0.1281  0.0830 -0.1388
    3TTP     C337926   5.765   8.426   2.450 -0.1618  0.0527 -0.0449
    3TTP     C437927   5.540   8.534   2.404 -0.2207 -0.0007  0.1203
    3TTP    C1737928   5.629   8.621   2.460 -0.2568 -0.0265  0.2197
    3TTP    C1837929   5.755   8.560   2.485 -0.2233  0.0038  0.1258
    3TTP    C3237930   5.914   8.222   2.430  0.1245  0.1705 -0.4626
    3TTP    C3337931   5.843   8.113   2.508  0.1345  0.7915 -0.2095
    3TTP    C3437932   5.855   8.119   2.657  0.2553 -0.0827 -0.4243
    3TTP    C3537933   5.804   7.997   2.734 -0.2332 -0.3399  0.3351
    3TTP    C3637934   5.867   7.858   2.699 -0.3879  0.2208  0.2001
    3TTP    C3737935   6.020   7.832   2.720  0.1333  0.2057 -0.0021
    3TTP    C3837936   6.057   7.687   2.676 -0.1184 -0.6058 -0.8285
    3TTP    C3937937   6.208   7.655   2.685 -0.1566  0.0783 -0.5027
    3TTP    C4037938   6.306   7.751   2.606 -0.2685 -0.1265 -0.2197
    3TTP    C4137939   6.454   7.731   2.638 -0.1644  0.2059  0.4404
    3TTP    C4237940   6.558   7.827   2.575 -0.3450  0.5202  0.8982
    4BIM     F137941   5.384  10.140   2.498  0.0416 -0.1740  0.1491
    4BIM     F237942   5.159  10.252   2.394  0.1757 -0.0421  0.0004
    4BIM     O137943   5.299   9.617   2.384 -0.1490 -0.1145  0.0164
    4BIM     N537944   4.775  10.041   2.163  0.2326  0.1900 -0.3080
    4BIM     N637945   4.754   9.610   2.095  0.0566  0.2100 -0.3816
    4BIM    C1937946   5.054   9.539   2.244 -0.0888  0.0328 -0.1727
    4BIM    C2037947   5.084   9.666   2.277 -0.0460  0.0126 -0.1336
    4BIM    C2137948   5.212   9.698   2.349 -0.0812 -0.0641 -0.0359
    4BIM    C2237949   5.213   9.844   2.369 -0.0192 -0.0674 -0.0153
    4BIM    C2337950   5.312   9.921   2.431 -0.0242 -0.1272  0.0667
    4BIM    C2437951   5.291  10.058   2.438  0.0424 -0.1171  0.0699
    4BIM    C2537952   5.175  10.116   2.384  0.1112 -0.0491 -0.0067
    4BIM    C2637953   5.076  10.040   2.322  0.1168  0.0108 -0.0888
    4BIM    C2737954   5.096   9.901   2.314  0.0501  0.0017 -0.0934
    4BIM    C2837955   5.012   9.794   2.255  0.0364  0.0535 -0.1691
    4BIM    C2937956   4.890   9.810   2.193  0.0898  0.1257 -0.2556
    4BIM    C3037957   4.827   9.937   2.177  0.1681  0.1608 -0.2841
    4BIM    C3137958   4.816   9.700   2.140  0.0710  0.1716 -0.3245
    5BIM     F137959   6.651   8.804   2.849 -0.0668 -0.0296  0.0496
    5BIM     F237960   6.800   8.614   2.723 -0.0651  0.1574 -0.2305
    5BIM     O137961   6.150   8.646   2.716 -0.0865 -0.1600  0.2787
    5BIM     N537962   6.657   8.229   2.447 -0.0769  0.3333 -0.4699
    5BIM     N637963   6.236   8.144   2.369 -0.0926  0.1938 -0.2345
    5BIM    C1937964   6.114   8.409   2.549 -0.0920 -0.0274  0.0925
    5BIM    C2037965   6.235   8.456   2.587 -0.0871 -0.0021  0.0457
    5BIM    C2137966   6.245   8.579   2.673 -0.0846 -0.0741  0.1481
    5BIM    C2237967   6.389   8.602   2.696 -0.0793 -0.0231  0.0626
    5BIM    C2337968   6.447   8.704   2.770 -0.0753 -0.0603  0.1106
    5BIM    C2437969   6.586   8.706   2.777 -0.0706  0.0023  0.0097
    5BIM    C2537970   6.662   8.608   2.712 -0.0699  0.0983 -0.1347
    5BIM    C2637971   6.604   8.506   2.638 -0.0736  0.1359 -0.1833
    5BIM    C2737972   6.464   8.502   2.630 -0.0786  0.0739 -0.0825
    5BIM    C2837973   6.373   8.409   2.560 -0.0833  0.0906 -0.0986
    5BIM    C2937974   6.409   8.299   2.485 -0.0842  0.1757 -0.2236
    5BIM    C3037975   6.545   8.261   2.465 -0.0800  0.2625 -0.3586
    5BIM    C3137976   6.313   8.214   2.422 -0.0888  0.1855 -0.2289
    1BTD     S237977   2.033   5.922   8.508 -0.1650  0.3167 -0.0474
    1BTD     N137978   1.887   5.820   8.530 -0.1131  0.2812  0.1445
    1BTD     N237979   1.942   6.067   8.454 -0.2427  0.1830 -0.2799
    1BTD     N337980   1.492   6.180   8.383 -0.3073 -0.1532 -0.4070
    1BTD     N437981   1.423   5.875   8.476 -0.1476 -0.0323  0.1161
    1BTD     C537982   1.646   5.852   8.500 -0.1330  0.1162  0.1235
    1BTD     C637983   1.783   5.896   8.497 -0.1542  0.1770  0.0312
    1BTD     C737984   1.814   6.034   8.455 -0.2267  0.1222 -0.2060
    1BTD     C837985   1.706   6.122   8.418 -0.2745  0.0088 -0.3400
    1BTD    C1537986   1.574   6.075   8.423 -0.2514 -0.0475 -0.2428
    1BTD    C1637987   1.544   5.942   8.463 -0.1815  0.0056 -0.0137
    1BTD    C4337988   1.297   5.938   8.488  0.5376 -0.4239  0.1539
    1BTD    C4437989   1.158   5.875   8.458 -0.0359  0.4263  0.7327
    1BTD    C4537990   1.170   5.813   8.314 -0.0457  0.1332  0.1411
    1BTD    C4637991   1.060   5.720   8.271 -0.3300 -0.2116 -0.1915
    1BTD    C4737992   1.031   5.953   8.482  0.5998 -1.1644 -0.3380
    1BTD    C4837993   1.005   5.998   8.627 -0.0210  0.2779 -0.0698
    1BTD    C4937994   0.992   5.904   8.750 -0.1705 -0.0905 -0.5678
    1BTD    C5037995   0.894   5.794   8.743 -0.0187  0.4624 -0.6021
    1BTD    C7537996   1.388   6.161   8.276 -0.1936 -0.4321 -0.7039
    1BTD    C7637997   1.280   6.259   8.240  0.9473  0.1823  0.4569
    1BTD    C7737998   1.184   6.266   8.361  0.3172  0.1199 -0.0496
    1BTD    C7837999   1.053   6.353   8.363 -0.5763  0.2268 -0.0294
    1BTD    C7938000   1.214   6.205   8.114 -0.6293  0.0783 -0.2292
    1BTD    C8038001   1.124   6.290   8.038 -0.5180 -0.2802  0.0408
    1BTD    C8138002   1.050   6.225   7.919  0.1206  0.1850 -0.0433
    1BTD    C8238003   0.951   6.305   7.840  0.2209 -0.4588  0.0816
    2TTP     S138004   1.635   5.564   8.596 -0.1158  0.1120  0.0610
    2TTP     S538005   1.206   5.592   8.614 -0.1405 -0.2725  0.0780
    2TTP     C138006   1.257   5.431   8.682 -0.0147 -0.3576 -0.2144
    2TTP     C238007   1.392   5.413   8.680  0.0003 -0.2439 -0.2365
    2TTP     C338008   1.461   5.526   8.625 -0.0870 -0.0855 -0.0236
    2TTP     C438009   1.584   5.725   8.528 -0.2415  0.1972  0.3531
    2TTP    C1738010   1.449   5.743   8.529 -0.2566  0.0836  0.3758
    2TTP    C1838011   1.380   5.631   8.584 -0.1693 -0.0751  0.1628
    2TTP    C3238012   1.477   5.295   8.731 -0.1293 -0.2287  0.6025
    2TTP    C3338013   1.438   5.164   8.673 -0.1640  0.3858 -0.4740
    2TTP    C3438014   1.537   5.054   8.713 -0.2097 -0.0793 -0.1678
    2TTP    C3538015   1.508   4.923   8.643 -0.1017 -0.2529 -0.5382
    2TTP    C3638016   1.598   4.811   8.694 -0.0841  0.0239  0.9253
    2TTP    C3738017   1.533   4.670   8.678  0.3258 -0.1735  0.2710
    2TTP    C3838018   1.619   4.562   8.743 -0.3161 -0.4723  0.3416
    2TTP    C3938019   1.566   4.423   8.717 -0.3683  0.0847  0.1457
    2TTP    C4038020   1.636   4.319   8.795  0.5800  0.8383  0.2331
    2TTP    C4138021   1.612   4.170   8.753 -0.2875 -0.5626 -0.5445
    2TTP    C4238022   1.681   4.082   8.854  0.1820  0.2914  0.0004
    3TTP     S138023   1.820   6.399   8.365 -0.0897 -0.4053 -0.1293
    3TTP     S538024   1.420   6.550   8.316  0.0135 -0.0048  0.2503
    3TTP     C138025   1.537   6.687   8.295  0.1454 -0.1742 -0.1289
    3TTP     C238026   1.668   6.649   8.308  0.1213 -0.3078 -0.2687
    3TTP     C338027   1.680   6.509   8.337 -0.0022 -0.2813 -0.0806
    3TTP     C438028   1.703   6.261   8.387 -0.2217 -0.2359  0.2496
    3TTP    C1738029   1.573   6.300   8.373 -0.1975 -0.1022  0.3897
    3TTP    C1838030   1.561   6.439   8.345 -0.0740 -0.1287  0.2024
    3TTP    C3238031   1.786   6.746   8.314  0.3942 -0.1054 -0.0887
    3TTP    C3338032   1.931   6.695   8.313  0.7581  0.4610  0.2794
    3TTP    C3438033   2.036   6.808   8.289 -0.0801  1.2559  0.2302
    3TTP    C3538034   2.035   6.935   8.363 -0.3382 -0.3878 -0.7007
    3TTP    C3638035   2.149   7.032   8.327  0.5187 -0.0703 -0.4741
    3TTP    C3738036   2.164   7.176   8.376  0.1769  0.2172  0.6396
    3TTP    C3838037   2.049   7.279   8.347  0.3799  0.4612 -0.1782
    3TTP    C3938038   2.077   7.426   8.363 -0.2984 -0.4958 -0.4158
    3TTP    C4038039   2.175   7.471   8.261 -0.1657  0.3916 -0.1975
    3TTP    C4138040   2.193   7.625   8.272  0.1668  0.1175 -0.6285
    3TTP    C4238041   2.322   7.668   8.206 -0.5844 -0.0801 -0.5133
    4BIM     F138042   0.442   5.348   8.674 -0.0290  0.1841  0.1197
    4BIM     F238043   0.468   5.143   8.851 -0.0346  0.1469  0.0775
    4BIM     O138044   0.961   5.482   8.595 -0.0093 -0.0052 -0.0765
    4BIM     N538045   0.876   4.943   9.049 -0.0286 -0.0417 -0.1235
    4BIM     N638046   1.276   5.090   8.952 -0.0121 -0.1823 -0.2685
    4BIM    C1938047   1.170   5.334   8.737 -0.0077 -0.1081 -0.1867
    4BIM    C2038048   1.039   5.308   8.749 -0.0124 -0.0590 -0.1354
    4BIM    C2138049   0.937   5.389   8.673 -0.0129 -0.0079 -0.0808
    4BIM    C2238050   0.805   5.335   8.710 -0.0186  0.0378 -0.0336
    4BIM    C2338051   0.680   5.377   8.665 -0.0210  0.0931  0.0248
    4BIM    C2438052   0.569   5.311   8.714 -0.0264  0.1288  0.0610
    4BIM    C2538053   0.582   5.205   8.805 -0.0293  0.1096  0.0395
    4BIM    C2638054   0.706   5.162   8.851 -0.0269  0.0545 -0.0188
    4BIM    C2738055   0.821   5.228   8.802 -0.0214  0.0175 -0.0567
    4BIM    C2838056   0.965   5.208   8.830 -0.0178 -0.0426 -0.1202
    4BIM    C2938057   1.019   5.113   8.914 -0.0191 -0.0768 -0.1574
    4BIM    C3038058   0.940   5.020   8.988 -0.0243 -0.0575 -0.1385
    4BIM    C3138059   1.160   5.101   8.935 -0.0153 -0.1346 -0.2184
    5BIM     F138060   0.847   7.115   8.164  0.1497  0.1253  0.1385
    5BIM     F238061   0.991   7.342   8.203  0.2200  0.1853 -0.4585
    5BIM     O138062   1.234   6.739   8.213  0.1321  0.1640  0.5839
    5BIM     N538063   1.474   7.402   8.293  0.3084  0.2989 -0.9997
    5BIM     N638064   1.747   7.063   8.323  0.2804  0.3170 -0.5310
    5BIM    C1938065   1.509   6.823   8.267  0.1929  0.2352  0.1719
    5BIM    C2038066   1.406   6.909   8.254  0.1946  0.2229  0.0832
    5BIM    C2138067   1.268   6.858   8.226  0.1622  0.1861  0.3085
    5BIM    C2238068   1.180   6.977   8.217  0.1733  0.1816  0.1376
    5BIM    C2338069   1.043   6.980   8.192  0.1524  0.1518  0.2491
    5BIM    C2438070   0.982   7.104   8.188  0.1688  0.1538  0.0434
    5BIM    C2538071   1.057   7.221   8.208  0.2050  0.1845 -0.2641
    5BIM    C2638072   1.194   7.219   8.232  0.2260  0.2143 -0.3772
    5BIM    C2738073   1.257   7.094   8.237  0.2098  0.2129 -0.1724
    5BIM    C2838074   1.399   7.057   8.260  0.2244  0.2396 -0.2179
    5BIM    C2938075   1.503   7.143   8.284  0.2589  0.2732 -0.4878
    5BIM    C3038076   1.487   7.285   8.289  0.2860  0.2872 -0.7684
    5BIM    C3138077   1.637   7.099   8.305  0.2705  0.2971 -0.5100
    1BTD     S238078   2.762   2.447   0.236 -0.0929 -0.1493 -0.1026
    1BTD     N138079   2.939   2.474   0.225 -0.0755 -0.2611 -0.0952
    1BTD     N238080   2.726   2.526   0.079 -0.0619  0.0794  0.0051
    1BTD     N338081   2.973   2.737  -0.260  0.0331  0.3438  0.2382
    1BTD     N438082   3.236   2.672  -0.080  0.0162 -0.0758  0.1142
    1BTD     C538083   3.091   2.578   0.064 -0.0274 -0.1593  0.0157
    1BTD     C638084   2.962   2.537   0.111 -0.0488 -0.1290 -0.0169
    1BTD     C738085   2.842   2.567   0.029 -0.0411  0.0616  0.0393
    1BTD     C838086   2.858   2.636  -0.096 -0.0125  0.2123  0.1254
    1BTD    C1538087   2.987   2.674  -0.138  0.0077  0.1762  0.1544
    1BTD    C1638088   3.102   2.645  -0.059  0.0004 -0.0076  0.1001
    1BTD    C4338089   3.301   2.781  -0.156  0.2990 -0.7647 -0.4470
    1BTD    C4438090   3.323   2.911  -0.068 -0.5028 -0.2374  0.9229
    1BTD    C4538091   3.422   3.007  -0.131  0.3413 -0.2049  0.5730
    1BTD    C4638092   3.551   2.952  -0.190 -0.1101 -0.1048  0.0166
    1BTD    C4738093   3.196   2.971  -0.016  0.6389  0.6913 -0.5194
    1BTD    C4838094   3.190   3.079   0.090 -0.7529 -0.6562 -0.8124
    1BTD    C4938095   3.258   3.034   0.221 -0.4800  0.2816 -0.3270
    1BTD    C5038096   3.258   3.141   0.329  0.3312 -0.2582  0.5219
    1BTD    C7538097   3.072   2.733  -0.375  0.6602  0.6114 -0.6033
    1BTD    C7638098   3.087   2.844  -0.475  0.0325  0.8505 -0.4546
    1BTD    C7738099   3.119   2.983  -0.417 -0.2912  0.3714 -0.8824
    1BTD    C7838100   3.033   3.062  -0.322  0.5026 -0.1422 -0.4504
    1BTD    C7938101   3.177   2.805  -0.590 -0.5766  0.1998  0.3215
    1BTD    C8038102   3.150   2.686  -0.678  0.0880  0.4108 -0.1631
    1BTD    C8138103   3.024   2.681  -0.769 -0.2097 -0.6396 -0.8846
    1BTD    C8238104   3.009   2.781  -0.883  0.5379 -0.0616  0.1481
    2TTP     S138105   3.308   2.479   0.247 -0.2302  0.0394 -0.0234
    2TTP     S538106   3.600   2.631  -0.029 -0.1598  0.2715  0.1783
    2TTP     C138107   3.687   2.549   0.109 -0.1991 -0.0051  0.0391
    2TTP     C238108   3.602   2.498   0.202 -0.2232 -0.0930 -0.0314
    2TTP     C338109   3.465   2.521   0.168 -0.2115  0.0549  0.0220
    2TTP     C438110   3.221   2.562   0.110 -0.1909  0.3160  0.1159
    2TTP    C1738111   3.306   2.613   0.017 -0.1668  0.4040  0.1864
    2TTP    C1838112   3.443   2.590   0.050 -0.1786  0.2561  0.1330
    2TTP    C3238113   3.633   2.431   0.333  0.3063 -0.7625 -0.3032
    2TTP    C3338114   3.610   2.519   0.459  0.1758  0.6368  0.0574
    2TTP    C3438115   3.615   2.450   0.598  0.1376 -0.0971 -0.3398
    2TTP    C3538116   3.741   2.378   0.652  0.4321  0.0951 -0.4139
    2TTP    C3638117   3.717   2.294   0.774 -0.0395  0.2278  0.0938
    2TTP    C3738118   3.824   2.191   0.797 -0.4689  0.2296  0.0844
    2TTP    C3838119   3.839   2.154   0.947 -0.2450  0.0563  0.8641
    2TTP    C3938120   3.716   2.127   1.036 -0.3609 -0.1902 -0.1150
    2TTP    C4038121   3.609   2.037   0.988 -0.2867 -0.0847  0.0573
    2TTP    C4138122   3.501   2.035   1.094  0.3389  0.1074  0.0867
    2TTP    C4238123   3.366   1.980   1.061 -0.8340 -0.1005  0.4665
    3TTP     S138124   2.590   2.659  -0.221  0.1957 -0.1193 -0.0702
    3TTP     S538125   2.766   2.872  -0.550 -0.0573 -0.4768 -0.4380
    3TTP     C138126   2.585   2.868  -0.574 -0.0918 -0.3517 -0.2042
    3TTP     C238127   2.520   2.802  -0.473 -0.0156 -0.2340 -0.0770
    3TTP     C338128   2.611   2.752  -0.374  0.0727 -0.2383 -0.1595
    3TTP     C438129   2.770   2.664  -0.197  0.2303 -0.2444 -0.3040
    3TTP    C1738130   2.835   2.730  -0.297  0.1541 -0.3620 -0.4313
    3TTP    C1838131   2.745   2.779  -0.397  0.0658 -0.3579 -0.3490
    3TTP    C3238132   2.371   2.795  -0.441 -0.0669  0.8581 -0.1718
    3TTP    C3338133   2.309   2.653  -0.452 -0.0683 -0.6427  0.0141
    3TTP    C3438134   2.169   2.640  -0.385 -0.3094 -0.0349 -0.2593
    3TTP    C3538135   2.109   2.501  -0.375  0.3547 -0.0138 -0.0375
    3TTP    C3638136   1.964   2.497  -0.317 -0.1114  0.1008  0.0616
    3TTP    C3738137   1.915   2.355  -0.297 -0.0296  0.0870  0.0483
    3TTP    C3838138   1.954   2.299  -0.166 -0.2834  0.3463 -0.0828
    3TTP    C3938139   1.914   2.152  -0.142 -0.2600  0.4354  0.6742
    3TTP    C4038140   1.942   2.089  -0.008 -0.0499 -0.2621 -0.1151
    3TTP    C4138141   2.089   2.077   0.044 -0.1014  0.4916 -0.1298
    3TTP    C4238142   2.082   1.971   0.152 -0.3150 -0.4023  0.6386
    4BIM     F138143   4.284   2.979  -0.246 -0.2546  0.2539  0.1655
    4BIM     F238144   4.459   2.782  -0.179 -0.2958  0.1400 -0.0608
    4BIM     O138145   3.828   2.792  -0.021 -0.2375  0.2148  0.1674
    4BIM     N538146   4.385   2.365   0.077 -0.3427 -0.0516 -0.3847
    4BIM     N638147   3.994   2.258   0.239 -0.3210 -0.0593 -0.3377
    4BIM    C1938148   3.833   2.537   0.122 -0.2708  0.0920 -0.0482
    4BIM    C2038149   3.941   2.592   0.063 -0.2734  0.1063 -0.0398
    4BIM    C2138150   3.930   2.723  -0.009 -0.2556  0.1705  0.0741
    4BIM    C2238151   4.065   2.754  -0.061 -0.2638  0.1701  0.0527
    4BIM    C2338152   4.104   2.865  -0.135 -0.2532  0.2189  0.1321
    4BIM    C2438153   4.238   2.872  -0.173 -0.2643  0.2075  0.0917
    4BIM    C2538154   4.328   2.770  -0.139 -0.2855  0.1488 -0.0250
    4BIM    C2638155   4.289   2.659  -0.065 -0.2964  0.0998 -0.1049
    4BIM    C2738156   4.154   2.650  -0.025 -0.2853  0.1104 -0.0656
    4BIM    C2838157   4.082   2.546   0.052 -0.2921  0.0690 -0.1268
    4BIM    C2938158   4.135   2.431   0.104 -0.3117  0.0077 -0.2422
    4BIM    C3038159   4.272   2.395   0.089 -0.3287 -0.0247 -0.3201
    4BIM    C3138160   4.057   2.337   0.178 -0.3167 -0.0288 -0.2941
    5BIM     F138161   2.767   3.535  -1.015 -0.0148  0.0932 -0.2396
    5BIM     F238162   2.538   3.497  -1.156  0.1091 -0.0515 -0.4032
    5BIM     O138163   2.741   3.124  -0.664 -0.1829  0.2876 -0.0236
    5BIM     N538164   2.189   3.149  -1.109  0.1673 -0.1209 -0.4845
    5BIM     N638165   2.215   2.836  -0.806  0.0109  0.0603 -0.2825
    5BIM    C1938166   2.513   2.942  -0.674 -0.1243  0.2185 -0.1035
    5BIM    C2038167   2.528   3.047  -0.757 -0.0868  0.1753 -0.1514
    5BIM    C2138168   2.649   3.136  -0.745 -0.1207  0.2151 -0.1054
    5BIM    C2238169   2.634   3.239  -0.850 -0.0655  0.1512 -0.1767
    5BIM    C2338170   2.721   3.344  -0.878 -0.0718  0.1590 -0.1671
    5BIM    C2438171   2.686   3.430  -0.982 -0.0122  0.0898 -0.2440
    5BIM    C2538172   2.568   3.410  -1.054  0.0515  0.0153 -0.3286
    5BIM    C2638173   2.481   3.305  -1.026  0.0582  0.0071 -0.3388
    5BIM    C2738174   2.514   3.218  -0.922 -0.0016  0.0765 -0.2611
    5BIM    C2838175   2.444   3.099  -0.867 -0.0121  0.0883 -0.2489
    5BIM    C2938176   2.325   3.047  -0.912  0.0377  0.0299 -0.3152
    5BIM    C3038177   2.251   3.103  -1.020  0.1088 -0.0528 -0.4079
    5BIM    C3138178   2.265   2.931  -0.853  0.0227  0.0469 -0.2968
    1BTD     S238179   5.391   2.096   8.046  0.0066 -0.2473 -0.1230
    1BTD     N138180   5.512   2.047   8.171  0.1587 -0.3307 -0.3023
    1BTD     N238181   5.293   1.946   8.062 -0.1764 -0.1016  0.1500
    1BTD     N338182   5.311   1.552   8.317 -0.2751  0.0446  0.3829
    1BTD     N438183   5.580   1.677   8.452  0.1374 -0.2377 -0.1743
    1BTD     C538184   5.544   1.853   8.316  0.1425 -0.2788 -0.2286
    1BTD     C638185   5.474   1.928   8.215  0.0695 -0.2499 -0.1569
    1BTD     C738186   5.352   1.871   8.154 -0.1178 -0.1217  0.0963
    1BTD     C838187   5.306   1.742   8.197 -0.2230 -0.0287  0.2649
    1BTD    C1538188   5.377   1.672   8.296 -0.1458 -0.0612  0.1864
    1BTD    C1638189   5.495   1.726   8.355  0.0347 -0.1847 -0.0573
    1BTD    C4338190   5.630   1.532   8.447  0.3484 -0.0491 -0.1859
    1BTD    C4438191   5.691   1.453   8.562  0.2289  0.0236 -0.0628
    1BTD    C4538192   5.619   1.480   8.698  0.1536  0.5641 -0.3138
    1BTD    C4638193   5.700   1.446   8.823 -0.4865  0.3132  0.5239
    1BTD    C4738194   5.720   1.303   8.529 -0.3005 -0.6918  0.7674
    1BTD    C4838195   5.601   1.208   8.530  0.0695 -0.5814  0.6391
    1BTD    C4938196   5.626   1.060   8.524 -0.1746  0.4043 -0.4132
    1BTD    C5038197   5.497   0.997   8.579 -0.0190 -0.6070 -0.3112
    1BTD    C7538198   5.321   1.460   8.435 -0.8224  0.0525 -0.3954
    1BTD    C7638199   5.218   1.461   8.553 -0.0178 -0.4482  0.1978
    1BTD    C7738200   5.184   1.599   8.614 -0.7917  0.1368  0.2996
    1BTD    C7838201   5.294   1.680   8.685  0.6988 -0.8994 -0.1563
    1BTD    C7938202   5.252   1.340   8.642  0.2870 -0.2995 -0.2541
    1BTD    C8038203   5.151   1.312   8.753  0.0633 -0.2888  0.4672
    1BTD    C8138204   5.180   1.193   8.844  0.1170  0.4616 -0.8721
    1BTD    C8238205   5.086   1.171   8.961 -0.6220 -0.0931 -0.1940
    2TTP     S138206   5.773   2.022   8.415  0.1739  0.3264  0.4506
    2TTP     S538207   5.902   1.702   8.672  0.7274 -0.0591 -0.3014
    2TTP     C138208   6.016   1.842   8.692  0.6055  0.0151 -0.1257
    2TTP     C238209   5.983   1.949   8.614  0.4274  0.1386  0.1163
    2TTP     C338210   5.866   1.925   8.535  0.3808  0.1790  0.1729
    2TTP     C438211   5.659   1.882   8.395  0.2959  0.2521  0.2749
    2TTP    C1738212   5.692   1.775   8.472  0.4741  0.1287  0.0326
    2TTP    C1838213   5.808   1.800   8.551  0.5206  0.0883 -0.0234
    2TTP    C3238214   6.069   2.075   8.604 -0.3903  0.1856 -0.8205
    2TTP    C3338215   6.067   2.160   8.477 -0.1684 -0.1150  0.0793
    2TTP    C3438216   6.131   2.296   8.492  0.5408 -0.4403  0.2864
    2TTP    C3538217   6.121   2.401   8.378 -0.2203  0.4421 -0.1597
    2TTP    C3638218   5.984   2.418   8.322  0.1880  0.2696 -0.0744
    2TTP    C3738219   5.962   2.519   8.204 -0.5078  0.5854  0.7379
    2TTP    C3838220   6.014   2.662   8.234  0.2151 -0.1961  0.8727
    2TTP    C3938221   6.040   2.757   8.109 -0.2163  0.0230 -0.4709
    2TTP    C4038222   5.923   2.784   8.012 -0.1045 -0.4478  0.0210
    2TTP    C4138223   5.964   2.898   7.918  0.6518  0.4154  0.1715
    2TTP    C4238224   5.864   2.926   7.798  0.7120  0.9392  0.2238
    3TTP     S138225   5.082   1.652   8.012  0.4791 -0.1741 -0.0495
    3TTP     S538226   5.102   1.267   8.202 -0.5392 -0.0314  0.3591
    3TTP     C138227   4.985   1.257   8.063 -0.2326  0.0173  0.0945
    3TTP     C238228   4.972   1.376   7.996  0.0999 -0.0239 -0.0472
    3TTP     C338229   5.054   1.478   8.052  0.1246 -0.0954  0.0482
    3TTP     C438230   5.200   1.662   8.151  0.1726 -0.2227  0.2155
    3TTP    C1738231   5.213   1.544   8.218 -0.1600 -0.1815  0.3573
    3TTP    C1838232   5.130   1.441   8.162 -0.1847 -0.1100  0.2618
    3TTP    C3238233   4.893   1.406   7.863 -0.7900 -0.5033 -0.1144
    3TTP    C3338234   4.791   1.519   7.869  0.3401  0.5118 -0.3234
    3TTP    C3438235   4.725   1.535   7.734  0.2040 -0.1447  0.6614
    3TTP    C3538236   4.640   1.661   7.718 -0.0029  0.0852  0.1875
    3TTP    C3638237   4.580   1.663   7.577 -0.4221  0.7954 -0.3389
    3TTP    C3738238   4.526   1.802   7.541 -0.1214  0.6344  0.5254
    3TTP    C3838239   4.468   1.819   7.396 -0.1236 -0.8678 -0.1584
    3TTP    C3938240   4.409   1.961   7.364  0.4020 -0.0691  0.2564
    3TTP    C4038241   4.339   1.980   7.228 -0.1664  0.7783  0.0673
    3TTP    C4138242   4.315   2.125   7.210 -0.4675 -0.2380 -0.4215
    3TTP    C4238243   4.276   2.168   7.068  0.0951  0.1738 -0.5656
    4BIM     F138244   6.449   1.236   9.042  0.3402  0.1810 -0.2148
    4BIM     F238245   6.598   1.424   9.169  0.0093  0.2851  0.0212
    4BIM     O138246   6.111   1.548   8.757  0.2074 -0.0530 -0.3145
    4BIM     N538247   6.572   1.918   9.150 -0.5610  0.2677  0.2894
    4BIM     N638248   6.278   2.124   8.901 -0.5980  0.0638  0.1640
    4BIM    C1938249   6.134   1.840   8.777 -0.1558 -0.0368 -0.1243
    4BIM    C2038250   6.213   1.753   8.844 -0.1094  0.0180 -0.1085
    4BIM    C2138251   6.195   1.605   8.828  0.0801  0.0055 -0.2108
    4BIM    C2238252   6.296   1.541   8.914  0.0839  0.0758 -0.1631
    4BIM    C2338253   6.319   1.405   8.933  0.2304  0.0912 -0.2241
    4BIM    C2438254   6.421   1.369   9.019  0.2013  0.1621 -0.1600
    4BIM    C2538255   6.498   1.466   9.085  0.0307  0.2156 -0.0385
    4BIM    C2638256   6.476   1.602   9.067 -0.1159  0.2006  0.0234
    4BIM    C2738257   6.373   1.641   8.980 -0.0892  0.1292 -0.0405
    4BIM    C2838258   6.325   1.775   8.939 -0.2148  0.0957 -0.0019
    4BIM    C2938259   6.374   1.896   8.982 -0.3943  0.1303  0.1104
    4BIM    C3038260   6.483   1.908   9.074 -0.4854  0.2057  0.2086
    4BIM    C3138261   6.321   2.021   8.937 -0.5053  0.0935  0.1392
    5BIM     F138262   5.175   0.463   8.140 -0.0108 -0.0352 -0.1769
    5BIM     F238263   4.918   0.403   8.074 -0.0395  0.0030 -0.1006
    5BIM     O138264   5.167   1.003   8.099  0.0726 -0.0379 -0.2308
    5BIM     N538265   4.543   0.700   7.950 -0.0210  0.0558 -0.0292
    5BIM     N638266   4.588   1.134   7.931  0.0498  0.0460 -0.0869
    5BIM    C1938267   4.918   1.137   8.022  0.0749 -0.0025 -0.1770
    5BIM    C2038268   4.930   1.003   8.034  0.0550 -0.0033 -0.1667
    5BIM    C2138269   5.062   0.942   8.075  0.0552 -0.0221 -0.1960
    5BIM    C2238270   5.040   0.796   8.079  0.0309 -0.0178 -0.1748
    5BIM    C2338271   5.133   0.698   8.112  0.0224 -0.0307 -0.1898
    5BIM    C2438272   5.089   0.566   8.109 -0.0013 -0.0233 -0.1642
    5BIM    C2538273   4.956   0.535   8.075 -0.0159 -0.0036 -0.1247
    5BIM    C2638274   4.863   0.633   8.043 -0.0077  0.0093 -0.1097
    5BIM    C2738275   4.906   0.767   8.045  0.0163  0.0021 -0.1352
    5BIM    C2838276   4.833   0.893   8.016  0.0306  0.0118 -0.1285
    5BIM    C2938277   4.701   0.905   7.979  0.0225  0.0311 -0.0937
    5BIM    C3038278   4.615   0.792   7.963 -0.0013  0.0446 -0.0584
    5BIM    C3138279   4.640   1.031   7.953  0.0377  0.0391 -0.0901
    1BTD     S238280   8.311   7.630   5.676  0.0822  0.0517 -0.2652
    1BTD     N138281   8.393   7.767   5.594  0.3126 -0.2382 -0.5236
    1BTD     N238282   8.458   7.573   5.762 -0.0951  0.1842  0.1308
    1BTD     N338283   8.908   7.705   5.789 -0.0412 -0.0691  0.4712
    1BTD     N438284   8.828   7.944   5.583  0.4611 -0.5897 -0.3349
    1BTD     C538285   8.621   7.856   5.591  0.3841 -0.4156 -0.4153
    1BTD     C638286   8.520   7.764   5.633  0.2484 -0.2222 -0.3123
    1BTD     C738287   8.556   7.655   5.727  0.0205  0.0142  0.0538
    1BTD     C838288   8.692   7.645   5.774 -0.0608  0.0455  0.2987
    1BTD    C1538289   8.788   7.738   5.730  0.0779 -0.1488  0.1860
    1BTD    C1638290   8.753   7.843   5.639  0.2975 -0.3766 -0.1668
    1BTD    C4338291   8.972   7.953   5.570  0.0134  0.6646 -0.2306
    1BTD    C4438292   9.046   7.875   5.458  0.5142 -0.3059  0.5177
    1BTD    C4538293   9.197   7.866   5.481  0.0245  0.2318 -0.1207
    1BTD    C4638294   9.293   7.779   5.407 -0.3062  0.3986  0.2098
    1BTD    C4738295   9.007   7.922   5.314  0.0535  0.9506  0.0673
    1BTD    C4838296   9.066   8.051   5.262 -0.1668 -0.0529  0.0147
    1BTD    C4938297   9.037   8.110   5.124  0.1890  0.3695  0.4508
    1BTD    C5038298   9.126   8.227   5.092 -0.1107 -0.0933 -0.8565
    1BTD    C7538299   9.009   7.801   5.845 -0.1068  0.1177  0.2426
    1BTD    C7638300   9.142   7.775   5.924 -0.2571  0.2979  0.2908
    1BTD    C7738301   9.228   7.902   5.939 -0.0648 -0.5608  0.4128
    1BTD    C7838302   9.308   7.940   5.803 -0.1037 -1.0764  0.1811
    1BTD    C7938303   9.104   7.710   6.059  0.4579  0.7353 -0.1376
    1BTD    C8038304   9.016   7.795   6.161  0.1318  0.2242  0.1392
    1BTD    C8138305   9.001   7.711   6.292 -0.2000 -0.4152  0.4394
    1BTD    C8238306   8.916   7.795   6.394 -0.3389 -0.0336 -0.0016
    2TTP     S138307   8.493   8.079   5.432 -0.1589  0.3186  0.2130
    2TTP     S538308   8.872   8.280   5.420  0.1414 -0.2792 -0.4231
    2TTP     C138309   8.749   8.383   5.335  0.2100 -0.1848 -0.4079
    2TTP     C238310   8.625   8.327   5.334  0.1211  0.0055 -0.2104
    2TTP     C338311   8.622   8.201   5.400 -0.0041  0.0834 -0.0641
    2TTP     C438312   8.616   7.975   5.517 -0.2277  0.2241  0.1978
    2TTP    C1738313   8.740   8.031   5.518 -0.1386  0.0338  0.0003
    2TTP    C1838314   8.743   8.158   5.452 -0.0134 -0.0441 -0.1459
    2TTP    C3238315   8.496   8.391   5.281 -0.0586  0.0838  0.8331
    2TTP    C3338316   8.409   8.297   5.191  0.3150  0.0359 -0.2443
    2TTP    C3438317   8.264   8.336   5.151 -0.4198  0.5616  0.3971
    2TTP    C3538318   8.256   8.474   5.089 -0.2913 -0.5252  0.4213
    2TTP    C3638319   8.115   8.508   5.049 -0.0656 -0.2197 -0.6062
    2TTP    C3738320   8.112   8.646   4.991  0.1547 -0.2997  0.5871
    2TTP    C3838321   7.967   8.689   4.954 -0.2953  0.1660  0.3137
    2TTP    C3938322   7.958   8.825   4.887  0.3118  0.4285 -0.1929
    2TTP    C4038323   7.810   8.862   4.887 -0.2831 -0.9495 -0.5419
    2TTP    C4138324   7.770   8.999   4.829  0.6262  0.0659  0.2641
    2TTP    C4238325   7.833   9.127   4.901 -0.0070  0.4435 -0.0334
    3TTP     S138326   8.724   7.377   5.895  0.0553  0.1278 -0.2196
    3TTP     S538327   9.151   7.422   5.879  0.1228 -0.4796 -0.1478
    3TTP     C138328   9.112   7.248   5.918 -0.1314 -0.4394 -0.2190
    3TTP     C238329   8.978   7.224   5.925 -0.1671 -0.2494 -0.2453
    3TTP     C338330   8.901   7.342   5.900  0.0045 -0.1287 -0.2103
    3TTP     C438331   8.763   7.551   5.857  0.3092  0.0876 -0.1484
    3TTP    C1738332   8.897   7.575   5.850  0.3449 -0.1025 -0.1220
    3TTP    C1838333   8.974   7.457   5.874  0.1731 -0.2230 -0.1572
    3TTP    C3238334   8.901   7.096   5.969 -0.0369  0.3296 -0.3091
    3TTP    C3338335   8.901   7.052   6.116  0.3696  0.4042  0.3436
    3TTP    C3438336   8.867   7.169   6.215  0.2268  1.3681  0.4196
    3TTP    C3538337   8.939   7.155   6.353  0.9310  0.0791  0.4794
    3TTP    C3638338   9.084   7.201   6.369  0.1612 -0.0880 -0.2867
    3TTP    C3738339   9.116   7.340   6.324 -0.7423 -0.3778  0.1497
    3TTP    C3838340   9.266   7.369   6.333  0.1072  0.2389  0.3699
    3TTP    C3938341   9.306   7.490   6.257  0.1900  0.5305  0.2256
    3TTP    C4038342   9.448   7.531   6.243  0.8553 -0.2839  0.1459
    3TTP    C4138343   9.482   7.637   6.131  0.4812  0.1737 -0.3589
    3TTP    C4238344   9.617   7.697   6.151  0.1199 -1.0056  0.0641
    4BIM     F138345   9.407   8.865   5.241  0.1352 -0.2718 -0.4312
    4BIM     F238346   9.244   9.060   5.144  0.0553 -0.0756  0.0883
    4BIM     O138347   9.050   8.471   5.339  0.1299 -0.2449 -0.3426
    4BIM     N538348   8.754   9.059   5.074 -0.0637  0.2255  0.8986
    4BIM     N638349   8.507   8.711   5.171 -0.0517  0.2067  0.8631
    4BIM    C1938350   8.766   8.517   5.282  0.0515 -0.0477  0.1852
    4BIM    C2038351   8.863   8.608   5.261  0.0560 -0.0625  0.1426
    4BIM    C2138352   9.006   8.577   5.293  0.0973 -0.1659 -0.1346
    4BIM    C2238353   9.084   8.698   5.258  0.0913 -0.1547 -0.1094
    4BIM    C2338354   9.221   8.717   5.270  0.1209 -0.2301 -0.3127
    4BIM    C2438355   9.272   8.839   5.231  0.1076 -0.2011 -0.2402
    4BIM    C2538356   9.188   8.940   5.181  0.0667 -0.1006  0.0275
    4BIM    C2638357   9.051   8.921   5.169  0.0370 -0.0246  0.2314
    4BIM    C2738358   8.997   8.798   5.208  0.0496 -0.0522  0.1619
    4BIM    C2838359   8.858   8.747   5.207  0.0262  0.0086  0.3276
    4BIM    C2938360   8.746   8.815   5.166 -0.0150  0.1109  0.6001
    4BIM    C3038361   8.751   8.949   5.116 -0.0417  0.1736  0.7633
    4BIM    C3138362   8.615   8.758   5.169 -0.0350  0.1633  0.7433
    5BIM     F138363   9.923   7.188   6.050  0.0973  0.3430 -0.2651
    5BIM     F238364   9.890   6.922   6.096  0.3104  0.3564 -0.0305
    5BIM     O138365   9.413   7.338   5.946 -0.0892 -0.0725  0.0467
    5BIM     N538366   9.479   6.646   6.088  0.4838  0.0794  0.5293
    5BIM     N638367   9.088   6.817   5.998  0.2949 -0.2481  0.7256
    5BIM    C1938368   9.201   7.137   5.954  0.0481 -0.2075  0.3818
    5BIM    C2038369   9.330   7.110   5.978  0.0865 -0.1034  0.2942
    5BIM    C2138370   9.434   7.218   5.972  0.0110 -0.0393  0.1225
    5BIM    C2238371   9.563   7.155   6.003  0.0792  0.0697  0.0633
    5BIM    C2338372   9.688   7.215   6.010  0.0453  0.1576 -0.0892
    5BIM    C2438373   9.797   7.135   6.041  0.1247  0.2530 -0.1172
    5BIM    C2538374   9.779   6.998   6.065  0.2346  0.2597  0.0039
    5BIM    C2638375   9.655   6.936   6.059  0.2689  0.1725  0.1563
    5BIM    C2738376   9.544   7.017   6.027  0.1898  0.0752  0.1869
    5BIM    C2838377   9.400   6.983   6.012  0.1988 -0.0310  0.3335
    5BIM    C2938378   9.343   6.859   6.028  0.2925 -0.0571  0.4783
    5BIM    C3038379   9.418   6.742   6.061  0.3972  0.0180  0.5058
    5BIM    C3138380   9.203   6.837   6.011  0.2933 -0.1619  0.6136
    1BTD     S238381   3.693   2.766   3.546  0.0981 -0.0360 -0.2674
    1BTD     N138382   3.522   2.823   3.538  0.1231  0.0376 -0.2804
    1BTD     N238383   3.650   2.592   3.540  0.0250 -0.0168 -0.3072
    1BTD     N338384   3.255   2.339   3.514 -0.0786  0.1549 -0.4118
    1BTD     N438385   3.098   2.624   3.512  0.0423  0.2220 -0.3788
    1BTD     C538386   3.303   2.716   3.524  0.0795  0.1330 -0.3322
    1BTD     C638387   3.446   2.715   3.532  0.0780  0.0709 -0.3121
    1BTD     C738388   3.518   2.585   3.533  0.0231  0.0404 -0.3271
    1BTD     C838389   3.442   2.463   3.526 -0.0277  0.0737 -0.3614
    1BTD    C1538390   3.301   2.469   3.519 -0.0242  0.1345 -0.3800
    1BTD    C1638391   3.233   2.594   3.518  0.0286  0.1638 -0.3657
    1BTD    C4338392   2.991   2.539   3.562  0.6829 -0.4638  0.4616
    1BTD    C4438393   2.906   2.579   3.683 -0.1765  0.4173 -0.4827
    1BTD    C4538394   2.789   2.485   3.707 -0.0207 -0.0279  0.0252
    1BTD    C4638395   2.678   2.476   3.604  0.0128 -0.2290  0.0676
    1BTD    C4738396   2.989   2.593   3.814  0.0306  0.1780 -0.1613
    1BTD    C4838397   2.920   2.669   3.928 -0.2096 -0.1081 -1.1271
    1BTD    C4938398   2.884   2.814   3.904 -0.1901 -1.3639 -0.0390
    1BTD    C5038399   3.003   2.907   3.855  0.4604  0.5880 -0.3579
    1BTD    C7538400   3.135   2.286   3.446  0.2148  0.0141 -0.4227
    1BTD    C7638401   3.121   2.297   3.291  0.3428 -0.0807 -1.2302
    1BTD    C7738402   2.971   2.275   3.256 -0.7294 -0.0473  0.0469
    1BTD    C7838403   2.935   2.263   3.112 -1.0989 -0.1217  0.3947
    1BTD    C7938404   3.231   2.212   3.227 -0.0627  0.2929  0.0732
    1BTD    C8038405   3.239   2.063   3.241  0.2512  0.5171 -0.4903
    1BTD    C8138406   3.378   2.011   3.203  0.6777 -0.2558  0.0700
    1BTD    C8238407   3.409   1.875   3.254  0.3855 -0.2855 -0.6813
    2TTP     S138408   3.198   3.003   3.507 -0.0439  0.4459 -0.5731
    2TTP     S538409   2.802   2.844   3.458 -0.1467  0.3109  0.6287
    2TTP     C138410   2.794   3.025   3.441 -0.2207  0.2903  0.4293
    2TTP     C238411   2.916   3.085   3.456 -0.1932  0.3307  0.0466
    2TTP     C338412   3.020   2.990   3.480 -0.1129  0.3795 -0.1032
    2TTP     C438413   3.206   2.822   3.524  0.0300  0.4666 -0.3736
    2TTP    C1738414   3.084   2.762   3.509  0.0026  0.4261  0.0092
    2TTP    C1838415   2.980   2.858   3.485 -0.0778  0.3774  0.1590
    2TTP    C3238416   2.956   3.230   3.458 -0.0667  0.1589 -0.3924
    2TTP    C3338417   2.932   3.304   3.593  0.2976  0.4469 -0.1138
    2TTP    C3438418   2.969   3.453   3.593  0.1668  0.2923 -0.0573
    2TTP    C3538419   3.113   3.475   3.627 -0.3713 -0.1263  0.0268
    2TTP    C3638420   3.166   3.619   3.625  0.1765 -0.0599  0.8887
    2TTP    C3738421   3.315   3.607   3.651  0.2274 -0.0482  0.1075
    2TTP    C3838422   3.389   3.733   3.638 -0.5711 -0.1147 -0.1163
    2TTP    C3938423   3.523   3.729   3.714 -0.4286 -0.1950  0.2454
    2TTP    C4038424   3.594   3.855   3.693 -0.5311 -0.5948 -0.2772
    2TTP    C4138425   3.738   3.856   3.756  0.1609  0.6273 -0.0719
    2TTP    C4238426   3.822   3.987   3.742 -0.4019 -0.3887  0.6964
    3TTP     S138427   3.626   2.225   3.561  0.0411  0.0549  0.2208
    3TTP     S538428   3.277   1.978   3.607 -0.0291  0.0804 -0.1698
    3TTP     C138429   3.424   1.876   3.639 -0.0764  0.0997  0.1166
    3TTP     C238430   3.541   1.947   3.626 -0.0576  0.0930  0.2539
    3TTP     C338431   3.518   2.083   3.591 -0.0050  0.0724  0.1382
    3TTP     C438432   3.479   2.327   3.529  0.0885  0.0356 -0.0655
    3TTP    C1738433   3.362   2.256   3.541  0.0696  0.0424 -0.2030
    3TTP    C1838434   3.385   2.120   3.576  0.0170  0.0629 -0.0872
    3TTP    C3238435   3.680   1.898   3.652 -0.1451  0.4509 -0.0693
    3TTP    C3338436   3.792   1.906   3.541 -0.2794  0.5752 -0.0888
    3TTP    C3438437   3.754   1.858   3.402 -0.0874  0.3049  0.3131
    3TTP    C3538438   3.858   1.866   3.291  0.2935  0.4396  0.4989
    3TTP    C3638439   3.889   2.004   3.250  0.3459 -0.6363  0.3612
    3TTP    C3738440   3.982   2.028   3.134 -0.5683  0.3820  0.2978
    3TTP    C3838441   3.983   2.175   3.075  0.4264  0.6385  0.0086
    3TTP    C3938442   4.074   2.185   2.956 -0.0655  0.5316 -0.0433
    3TTP    C4038443   4.219   2.182   2.986  0.3546 -0.7345 -0.7005
    3TTP    C4138444   4.293   2.204   2.854  0.4517  0.5111 -0.7526
    3TTP    C4238445   4.441   2.204   2.882  0.0353 -0.0371  0.4172
    4BIM     F138446   1.991   2.872   3.499 -0.0801  0.0117  0.1447
    4BIM     F238447   1.943   3.117   3.390 -0.0598 -0.1599 -0.2555
    4BIM     O138448   2.532   2.872   3.519 -0.0912  0.1317  0.4528
    4BIM     N538449   2.260   3.470   3.249 -0.0386 -0.3209 -0.6110
    4BIM     N638450   2.693   3.421   3.286 -0.0514 -0.1926 -0.2896
    4BIM    C1938451   2.679   3.107   3.422 -0.0757  0.0105  0.1800
    4BIM    C2038452   2.544   3.097   3.421 -0.0737 -0.0131  0.1181
    4BIM    C2138453   2.476   2.973   3.473 -0.0821  0.0530  0.2675
    4BIM    C2238454   2.331   2.996   3.457 -0.0773  0.0060  0.1504
    4BIM    C2338455   2.228   2.909   3.491 -0.0820  0.0399  0.2232
    4BIM    C2438456   2.098   2.953   3.468 -0.0759 -0.0175  0.0831
    4BIM    C2538457   2.074   3.079   3.412 -0.0656 -0.1059 -0.1229
    4BIM    C2638458   2.177   3.166   3.378 -0.0608 -0.1400 -0.1965
    4BIM    C2738459   2.309   3.124   3.401 -0.0669 -0.0830 -0.0572
    4BIM    C2838460   2.439   3.191   3.377 -0.0642 -0.0982 -0.0851
    4BIM    C2938461   2.457   3.316   3.323 -0.0548 -0.1764 -0.2651
    4BIM    C3038462   2.349   3.400   3.282 -0.0459 -0.2556 -0.4547
    4BIM    C3138463   2.587   3.373   3.303 -0.0529 -0.1848 -0.2775
    5BIM     F138464   2.917   1.265   3.434 -0.0481  0.0527 -0.0651
    5BIM     F238465   3.092   1.091   3.548 -0.1498  0.0281  0.0544
    5BIM     O138466   3.169   1.736   3.522 -0.0445  0.0181  0.1112
    5BIM     N538467   3.524   1.177   3.775 -0.2937 -0.0318  0.3520
    5BIM     N638468   3.685   1.580   3.820 -0.2704 -0.0538  0.4657
    5BIM    C1938469   3.426   1.738   3.662 -0.1405 -0.0176  0.2881
    5BIM    C2038470   3.355   1.626   3.635 -0.1375 -0.0079  0.2390
    5BIM    C2138471   3.224   1.633   3.563 -0.0867  0.0103  0.1486
    5BIM    C2238472   3.175   1.495   3.551 -0.0970  0.0170  0.1140
    5BIM    C2338473   3.057   1.451   3.491 -0.0619  0.0334  0.0324
    5BIM    C2438474   3.032   1.315   3.492 -0.0808  0.0368  0.0142
    5BIM    C2538475   3.122   1.226   3.551 -0.1332  0.0241  0.0759
    5BIM    C2638476   3.240   1.268   3.610 -0.1686  0.0078  0.1573
    5BIM    C2738477   3.267   1.406   3.611 -0.1501  0.0041  0.1770
    5BIM    C2838478   3.382   1.483   3.665 -0.1771 -0.0118  0.2564
    5BIM    C2938479   3.492   1.431   3.730 -0.2289 -0.0270  0.3315
    5BIM    C3038480   3.509   1.292   3.754 -0.2643 -0.0296  0.3424
    5BIM    C3138481   3.598   1.514   3.779 -0.2513 -0.0417  0.4048
    1BTD     S238482   0.261   1.040   7.518 -0.1333 -0.3225 -0.0663
    1BTD     N138483   0.395   0.953   7.600 -0.0064 -0.5250 -0.4833
    1BTD     N238484   0.364   1.178   7.464 -0.2796 -0.0397  0.3710
    1BTD     N338485   0.815   1.301   7.504 -0.3488  0.1710  0.5082
    1BTD     N438486   0.854   1.024   7.671 -0.0122 -0.4269 -0.5443
    1BTD     C538487   0.634   0.993   7.635 -0.0135 -0.4666 -0.5023
    1BTD     C638488   0.504   1.027   7.584 -0.0761 -0.3789 -0.2856
    1BTD     C738489   0.486   1.153   7.508 -0.2290 -0.1073  0.1925
    1BTD     C838490   0.600   1.239   7.487 -0.3117  0.0631  0.4299
    1BTD    C1538491   0.725   1.201   7.538 -0.2459 -0.0312  0.2038
    1BTD    C1638492   0.743   1.080   7.611 -0.0985 -0.2929 -0.2566
    1BTD    C4338493   0.993   1.036   7.623 -0.0654  0.9251  0.4865
    1BTD    C4438494   1.115   1.017   7.716 -0.0960  0.0687 -0.2792
    1BTD    C4538495   1.092   1.114   7.831  0.6931  0.5094  0.2965
    1BTD    C4638496   1.166   1.103   7.967  0.5729  0.0311  0.6282
    1BTD    C4738497   1.249   1.007   7.644  0.3618 -0.1850  0.0388
    1BTD    C4838498   1.369   0.951   7.726  0.3026 -0.5734 -0.0006
    1BTD    C4938499   1.484   0.951   7.627 -0.3571  1.0925  0.0337
    1BTD    C5038500   1.629   0.927   7.674 -0.2042  0.0085 -0.2020
    1BTD    C7538501   0.945   1.346   7.562 -0.4517 -0.2016  0.1563
    1BTD    C7638502   0.946   1.450   7.675 -0.1231  0.6915  0.8132
    1BTD    C7738503   1.083   1.504   7.701 -0.3098 -0.2538 -0.2634
    1BTD    C7838504   1.161   1.562   7.582 -0.2552 -0.2007 -0.9027
    1BTD    C7938505   0.852   1.420   7.794 -0.2412 -0.3516  0.1161
    1BTD    C8038506   0.850   1.532   7.902 -0.5496  0.1214  0.2701
    1BTD    C8138507   0.722   1.542   7.983 -0.1670  0.2595 -0.5897
    1BTD    C8238508   0.751   1.649   8.084  0.4252 -0.3661 -0.0010
    2TTP     S138509   0.613   0.738   7.798  0.1433 -0.1788  0.1599
    2TTP     S538510   1.035   0.755   7.879  0.1948  0.6522 -0.2584
    2TTP     C138511   0.967   0.606   7.958  0.5618  0.5279 -0.1715
    2TTP     C238512   0.832   0.592   7.937  0.5675  0.2640 -0.0373
    2TTP     C338513   0.778   0.698   7.859  0.2822  0.1504  0.0020
    2TTP     C438514   0.681   0.887   7.719 -0.2237 -0.0545  0.0731
    2TTP    C1738515   0.815   0.901   7.739 -0.2294  0.2094 -0.0612
    2TTP    C1838516   0.869   0.794   7.818  0.0558  0.3230 -0.1004
    2TTP    C3238517   0.749   0.475   7.982  0.5796 -0.0806 -0.0481
    2TTP    C3338518   0.711   0.368   7.870  0.4262 -0.7928  0.0383
    2TTP    C3438519   0.627   0.258   7.934 -0.0721 -0.2120  0.1622
    2TTP    C3538520   0.564   0.153   7.847  0.1694 -0.3482  0.4162
    2TTP    C3638521   0.456   0.067   7.914  0.0171 -0.8782 -0.7812
    2TTP    C3738522   0.310   0.092   7.891 -0.0935  0.1522 -0.0780
    2TTP    C3838523   0.280   0.065   7.740  0.0447 -0.4910 -0.5338
    2TTP    C3938524   0.132   0.100   7.700  0.1917  0.2693 -0.6268
    2TTP    C4038525   0.136   0.073   7.551  0.1653 -0.6284  0.4278
    2TTP    C4138526   0.017   0.145   7.483  0.4290  0.4676 -0.9085
    2TTP    C4238527  -0.010   0.101   7.341 -0.5642 -0.3920 -0.0247
    3TTP     S138528   0.520   1.470   7.308 -0.0694  0.0011 -0.1750
    3TTP     S538529   0.932   1.594   7.298 -0.2132  0.5081  0.1385
    3TTP     C138530   0.836   1.703   7.188 -0.2148  0.2060 -0.1614
    3TTP     C238531   0.703   1.671   7.185 -0.1705  0.0317 -0.2757
    3TTP     C338532   0.672   1.559   7.269 -0.1337  0.1304 -0.1309
    3TTP     C438533   0.616   1.361   7.418 -0.0678  0.3033  0.1248
    3TTP    C1738534   0.749   1.393   7.422 -0.1121  0.4776  0.2393
    3TTP    C1838535   0.780   1.505   7.337 -0.1489  0.3789  0.0943
    3TTP    C3238536   0.591   1.751   7.115  0.2406 -0.3894 -0.3538
    3TTP    C3338537   0.484   1.820   7.197 -0.0136 -0.0329 -0.6096
    3TTP    C3438538   0.517   1.911   7.316  0.6157 -0.3092  0.2037
    3TTP    C3538539   0.630   2.017   7.293 -0.5858  0.1602 -0.0250
    3TTP    C3638540   0.666   2.094   7.425  0.3706  0.1299 -0.0936
    3TTP    C3738541   0.783   2.189   7.409  0.2599 -0.2356  0.0646
    3TTP    C3838542   0.914   2.117   7.386 -0.8016  0.4791 -0.2617
    3TTP    C3938543   1.033   2.208   7.361 -0.7050 -1.0592 -0.3884
    3TTP    C4038544   1.159   2.156   7.429  0.6871 -0.2019 -0.4288
    3TTP    C4138545   1.275   2.256   7.432  0.0394  0.3910  0.4562
    3TTP    C4238546   1.400   2.208   7.513  0.2591  0.2530  0.1186
    4BIM     F138547   1.655   0.666   8.394 -0.5017  0.0208  0.7193
    4BIM     F238548   1.659   0.394   8.410  0.1059 -0.0449 -0.3264
    4BIM     O138549   1.193   0.744   8.121 -0.6075  0.0303  0.9010
    4BIM     N538550   1.336   0.059   8.241  0.9040 -0.1326 -1.7004
    4BIM     N638551   0.975   0.175   8.025  0.6988 -0.1119 -1.3473
    4BIM    C1938552   1.033   0.512   8.041 -0.0646 -0.0291 -0.0334
    4BIM    C2038553   1.149   0.503   8.109 -0.0618 -0.0289 -0.0379
    4BIM    C2138554   1.226   0.627   8.147 -0.3503  0.0026  0.4585
    4BIM    C2238555   1.346   0.581   8.219 -0.2665 -0.0059  0.3142
    4BIM    C2338556   1.447   0.660   8.273 -0.4575  0.0152  0.6430
    4BIM    C2438557   1.551   0.594   8.337 -0.3260  0.0014  0.4167
    4BIM    C2538558   1.553   0.454   8.346 -0.0129 -0.0325 -0.1221
    4BIM    C2638559   1.453   0.375   8.292  0.1791 -0.0537 -0.4525
    4BIM    C2738560   1.346   0.440   8.227  0.0501 -0.0402 -0.2306
    4BIM    C2838561   1.226   0.386   8.159  0.1883 -0.0556 -0.4685
    4BIM    C2938562   1.191   0.254   8.146  0.4903 -0.0884 -0.9885
    4BIM    C3038563   1.271   0.147   8.198  0.7167 -0.1126 -1.3781
    4BIM    C3138564   1.072   0.211   8.079  0.6033 -0.1012 -1.1830
    5BIM     F138565   1.568   2.078   7.133  0.0769 -0.2514 -0.4181
    5BIM     F238566   1.451   2.271   6.981 -0.1104  0.0779  0.1400
    5BIM     O138567   1.145   1.755   7.231  0.1249 -0.2834 -0.3169
    5BIM     N538568   0.981   2.319   6.833 -0.3454  0.5282  1.0144
    5BIM     N638569   0.674   2.027   6.940 -0.2702  0.4368  0.9809
    5BIM    C1938570   0.883   1.824   7.121 -0.0369  0.0196  0.2521
    5BIM    C2038571   0.994   1.898   7.102 -0.0417  0.0149  0.2049
    5BIM    C2138572   1.125   1.856   7.162  0.0446 -0.1458 -0.0939
    5BIM    C2238573   1.224   1.958   7.123  0.0148 -0.1069 -0.0685
    5BIM    C2338574   1.360   1.961   7.154  0.0702 -0.2160 -0.2881
    5BIM    C2438575   1.434   2.068   7.105  0.0263 -0.1504 -0.2115
    5BIM    C2538576   1.373   2.168   7.027 -0.0702  0.0192  0.0760
    5BIM    C2638577   1.238   2.165   6.995 -0.1260  0.1288  0.2962
    5BIM    C2738578   1.161   2.057   7.044 -0.0827  0.0647  0.2230
    5BIM    C2838579   1.018   2.024   7.028 -0.1213  0.1463  0.4025
    5BIM    C2938580   0.924   2.098   6.958 -0.2132  0.3119  0.6957
    5BIM    C3038581   0.956   2.219   6.890 -0.2856  0.4303  0.8699
    5BIM    C3138582   0.787   2.058   6.949 -0.2440  0.3797  0.8509
    1BTD     S238583   1.867   6.264   0.717  0.2027 -0.1565  0.0931
    1BTD     N138584   1.709   6.181   0.742  0.1654 -0.0767  0.1229
    1BTD     N238585   1.959   6.149   0.820  0.1604 -0.1916  0.0919
    1BTD     N338586   1.863   5.765   1.073  0.0066 -0.1192  0.1432
    1BTD     N438587   1.554   5.805   0.977  0.0129  0.0223  0.1814
    1BTD     C538588   1.632   5.984   0.865  0.0857 -0.0267  0.1530
    1BTD     C638589   1.732   6.077   0.821  0.1253 -0.0803  0.1301
    1BTD     C738590   1.872   6.059   0.865  0.1225 -0.1446  0.1127
    1BTD     C838591   1.905   5.949   0.951  0.0802 -0.1521  0.1191
    1BTD    C1538592   1.804   5.860   0.992  0.0422 -0.0983  0.1418
    1BTD    C1638593   1.669   5.878   0.950  0.0450 -0.0363  0.1585
    1BTD    C4338594   1.516   5.746   1.108 -0.0934 -0.1927  0.0588
    1BTD    C4438595   1.410   5.634   1.124 -0.2531 -0.6010  0.2839
    1BTD    C4538596   1.466   5.504   1.065 -0.3750 -0.7207 -0.3392
    1BTD    C4638597   1.376   5.384   1.049  0.3093 -0.2437 -0.1179
    1BTD    C4738598   1.357   5.621   1.265 -0.2385 -0.4323 -0.0140
    1BTD    C4838599   1.302   5.740   1.344  0.2822  0.3258 -0.5659
    1BTD    C4938600   1.244   5.694   1.479 -0.4137 -0.4578 -0.3762
    1BTD    C5038601   1.187   5.804   1.568 -0.2410 -0.6213 -0.0998
    1BTD    C7538602   1.824   5.628   1.112  0.0480 -0.6349  0.2383
    1BTD    C7638603   1.867   5.508   1.023  0.2761 -0.5757  0.3569
    1BTD    C7738604   1.873   5.538   0.871  0.2624  0.0045 -0.1289
    1BTD    C7838605   1.925   5.432   0.771  0.3416  0.2764 -0.5741
    1BTD    C7938606   1.813   5.375   1.073 -0.0326  0.2276 -0.1641
    1BTD    C8038607   1.883   5.326   1.198 -0.2684  0.4285 -0.5352
    1BTD    C8138608   1.918   5.177   1.183  0.7355 -0.4703 -0.0268
    1BTD    C8238609   2.009   5.135   1.302 -0.0335 -0.4544 -0.7356
    2TTP     S138610   1.371   6.053   0.733 -0.1106  0.0579 -0.0981
    2TTP     S538611   1.203   5.688   0.886  0.0162  0.0987  0.1383
    2TTP     C138612   1.083   5.764   0.772  0.0671 -0.1135 -0.0569
    2TTP     C238613   1.128   5.881   0.718  0.0311 -0.1385 -0.1415
    2TTP     C338614   1.259   5.915   0.765 -0.0382  0.0088 -0.0550
    2TTP     C438615   1.491   5.978   0.847 -0.1615  0.2700  0.0971
    2TTP    C1738616   1.446   5.861   0.901 -0.1254  0.2949  0.1816
    2TTP    C1838617   1.316   5.826   0.854 -0.0562  0.1476  0.0952
    2TTP    C3238618   1.050   5.967   0.614 -0.5519  0.0892 -0.8558
    2TTP    C3338619   0.967   6.093   0.656  0.8220 -0.0650  0.2986
    2TTP    C3438620   1.036   6.211   0.721  0.1413 -0.4032 -0.5226
    2TTP    C3538621   0.936   6.315   0.761  0.2034  0.0994 -0.0073
    2TTP    C3638622   0.999   6.413   0.856  0.8199 -0.5608 -0.4216
    2TTP    C3738623   0.908   6.510   0.934 -0.7954 -0.1338 -0.4732
    2TTP    C3838624   0.815   6.602   0.851 -0.4401 -0.0278 -0.0300
    2TTP    C3938625   0.723   6.704   0.929  0.0691  0.0827 -0.7982
    2TTP    C4038626   0.647   6.790   0.826 -0.0885  0.6014 -0.7300
    2TTP    C4138627   0.551   6.893   0.889  0.0258  0.7910  0.4246
    2TTP    C4238628   0.530   6.993   0.786 -0.4411 -0.4567 -0.1082
    3TTP     S138629   2.204   5.951   1.013 -0.1450 -0.1895 -0.2900
    3TTP     S538630   2.141   5.616   1.275  0.3546  0.2244  0.3650
    3TTP     C138631   2.317   5.663   1.282  0.3822  0.1958 -0.0947
    3TTP     C238632   2.347   5.769   1.201  0.2296  0.0663 -0.3240
    3TTP     C338633   2.232   5.817   1.131  0.0853 -0.0150 -0.1450
    3TTP     C438634   2.028   5.904   1.006 -0.1726 -0.1609  0.1696
    3TTP    C1738635   1.999   5.798   1.087 -0.0200 -0.0315  0.3990
    3TTP    C1838636   2.114   5.750   1.157  0.1244  0.0498  0.2200
    3TTP    C3238637   2.482   5.832   1.184  0.4917 -0.2012  0.4466
    3TTP    C3338638   2.539   5.830   1.042  0.0340  0.2718 -0.0999
    3TTP    C3438639   2.691   5.833   1.050 -0.6824  0.4928  0.4808
    3TTP    C3538640   2.754   5.965   1.094  0.9507 -0.0456 -0.0040
    3TTP    C3638641   2.898   5.975   1.057 -0.1898  0.4668 -0.0913
    3TTP    C3738642   2.995   5.885   1.132 -0.0755  0.0209 -0.4014
    3TTP    C3838643   3.003   5.898   1.289  0.2939  0.3053  0.4580
    3TTP    C3938644   3.088   5.807   1.377 -0.0318  0.5341  0.0081
    3TTP    C4038645   3.122   5.867   1.516  0.0212  1.0436 -0.1646
    3TTP    C4138646   3.225   5.784   1.595 -0.9737  0.0609 -0.4181
    3TTP    C4238647   3.172   5.656   1.661 -0.3445  0.0599  0.0490
    4BIM     F138648   0.722   5.050   0.913 -0.2032  0.0448 -0.3188
    4BIM     F238649   0.483   5.167   0.857 -0.1590  0.2806 -0.0198
    4BIM     O138650   1.061   5.463   0.829  0.0574 -0.1699 -0.3244
    4BIM     N538651   0.381   5.631   0.716  0.0904  0.4663  0.4060
    4BIM     N638652   0.694   5.930   0.662  0.2851  0.2512  0.3414
    4BIM    C1938653   0.953   5.722   0.745  0.1923 -0.0208 -0.0408
    4BIM    C2038654   0.877   5.613   0.769  0.1250  0.0240 -0.0510
    4BIM    C2138655   0.940   5.484   0.811  0.0582 -0.0583 -0.2009
    4BIM    C2238656   0.830   5.387   0.828 -0.0053  0.0191 -0.1718
    4BIM    C2338657   0.839   5.254   0.867 -0.0790 -0.0162 -0.2761
    4BIM    C2438658   0.720   5.182   0.876 -0.1294  0.0737 -0.2217
    4BIM    C2538659   0.597   5.243   0.847 -0.1065  0.1950 -0.0677
    4BIM    C2638660   0.587   5.376   0.808 -0.0332  0.2313  0.0371
    4BIM    C2738661   0.706   5.450   0.799  0.0188  0.1413 -0.0158
    4BIM    C2838662   0.730   5.592   0.761  0.0998  0.1491  0.0645
    4BIM    C2938663   0.635   5.684   0.726  0.1431  0.2525  0.2168
    4BIM    C3038664   0.496   5.654   0.721  0.1140  0.3697  0.3203
    4BIM    C3138665   0.668   5.819   0.691  0.2210  0.2512  0.2844
    5BIM     F138666   2.408   4.944   1.678  0.1714  0.0467 -0.2275
    5BIM     F238667   2.666   5.014   1.733 -0.0214  0.3085  0.3666
    5BIM     O138668   2.241   5.377   1.399  0.3195 -0.0434 -0.4566
    5BIM     N538669   2.917   5.423   1.612 -0.1931  0.6206  1.0575
    5BIM     N638670   2.734   5.748   1.383 -0.0384  0.4973  0.7587
    5BIM    C1938671   2.428   5.598   1.352  0.1879  0.1748  0.0296
    5BIM    C2038672   2.460   5.486   1.420  0.1583  0.1872  0.0640
    5BIM    C2138673   2.358   5.377   1.440  0.2303  0.0705 -0.1967
    5BIM    C2238674   2.426   5.271   1.518  0.1739  0.1180 -0.0821
    5BIM    C2338675   2.372   5.150   1.561  0.2091  0.0457 -0.2410
    5BIM    C2438676   2.455   5.066   1.633  0.1417  0.1123 -0.0842
    5BIM    C2538677   2.587   5.102   1.661  0.0424  0.2471  0.2219
    5BIM    C2638678   2.642   5.223   1.618  0.0068  0.3200  0.3818
    5BIM    C2738679   2.559   5.309   1.545  0.0739  0.2542  0.2269
    5BIM    C2838680   2.585   5.443   1.486  0.0603  0.3021  0.3289
    5BIM    C2938681   2.704   5.513   1.492 -0.0265  0.4286  0.6143
    5BIM    C3038682   2.820   5.464   1.558 -0.1178  0.5337  0.8570
    5BIM    C3138683   2.720   5.642   1.432 -0.0325  0.4658  0.6921
    1BTD     S238684   7.521   4.777   3.422 -0.1247  0.3070  0.0623
    1BTD     N138685   7.489   4.605   3.463 -0.0505  0.2055 -0.2982
    1BTD     N238686   7.348   4.820   3.401 -0.1491  0.3022  0.2568
    1BTD     N338687   6.936   4.597   3.434 -0.0651  0.1087  0.0024
    1BTD     N438688   7.110   4.332   3.510  0.0563 -0.0103 -0.6816
    1BTD     C538689   7.289   4.465   3.486  0.0037  0.0944 -0.4901
    1BTD     C638690   7.357   4.589   3.459 -0.0479  0.1749 -0.2571
    1BTD     C738691   7.278   4.709   3.425 -0.1031  0.2289  0.0535
    1BTD     C838692   7.135   4.700   3.419 -0.1036  0.1997  0.1157
    1BTD    C1538693   7.072   4.577   3.447 -0.0519  0.1205 -0.1194
    1BTD    C1638694   7.148   4.461   3.480  0.0012  0.0684 -0.4188
    1BTD    C4338695   6.999   4.304   3.608  0.9572 -0.2655  0.1231
    1BTD    C4438696   6.924   4.168   3.609 -0.1991  0.4398  0.6534
    1BTD    C4538697   6.856   4.138   3.747 -0.0713 -0.0907  0.0360
    1BTD    C4638698   6.741   4.226   3.778 -0.0982  0.8395 -0.1621
    1BTD    C4738699   6.839   4.143   3.487  0.2800  0.3542  0.5544
    1BTD    C4838700   6.787   3.997   3.472  0.2844 -0.1201 -0.7179
    1BTD    C4938701   6.726   3.957   3.341  0.3113  0.4291  0.0967
    1BTD    C5038702   6.688   3.810   3.340 -0.3827 -0.0236 -0.1846
    1BTD    C7538703   6.830   4.489   3.397 -1.1195 -0.4301  0.6159
    1BTD    C7638704   6.682   4.492   3.406  0.9157  0.9222  0.1772
    1BTD    C7738705   6.645   4.500   3.558  0.3202  0.8514 -0.1593
    1BTD    C7838706   6.495   4.524   3.592 -1.0751  0.4477  0.9144
    1BTD    C7938707   6.600   4.380   3.330 -0.1396  0.0486 -0.0294
    1BTD    C8038708   6.629   4.346   3.186  0.6605 -0.1810  0.5200
    1BTD    C8138709   6.555   4.218   3.138 -0.0466 -0.5648  0.3348
    1BTD    C8238710   6.583   4.198   2.992  0.7464 -0.2403 -0.1806
    2TTP     S138711   7.496   4.249   3.517  0.0078  0.0633  0.0477
    2TTP     S538712   7.185   3.952   3.533 -0.1428  0.2334  0.2646
    2TTP     C138713   7.345   3.867   3.530 -0.1914  0.1454  0.1472
    2TTP     C238714   7.451   3.954   3.525 -0.1477  0.0878  0.0731
    2TTP     C338715   7.409   4.090   3.523 -0.0743  0.1110  0.1066
    2TTP     C438716   7.335   4.334   3.520  0.0563  0.1514  0.1652
    2TTP    C1738717   7.230   4.247   3.525  0.0127  0.2090  0.2391
    2TTP    C1838718   7.272   4.111   3.527 -0.0608  0.1857  0.2056
    2TTP    C3238719   7.596   3.913   3.510 -0.0705 -0.6182  0.3317
    2TTP    C3338720   7.683   3.943   3.635 -0.2643  0.4977  0.2694
    2TTP    C3438721   7.827   3.930   3.598  0.0827  0.0569  0.0323
    2TTP    C3538722   7.920   3.975   3.711 -0.1594  0.1181 -0.1685
    2TTP    C3638723   8.062   3.978   3.664  0.1985  0.1665 -0.0437
    2TTP    C3738724   8.170   3.992   3.762  0.1747  0.2808 -0.1692
    2TTP    C3838725   8.159   4.114   3.860  0.3621 -0.3523  0.1232
    2TTP    C3938726   8.165   4.257   3.811 -0.3273 -0.4470  0.2273
    2TTP    C4038727   8.305   4.301   3.760 -0.2671 -0.4276  0.6712
    2TTP    C4138728   8.334   4.452   3.718 -0.5513  0.2367  0.0607
    2TTP    C4238729   8.232   4.535   3.646 -0.3672 -0.0053  0.0983
    3TTP     S138730   7.018   4.963   3.328 -0.1575 -0.0723  0.2238
    3TTP     S538731   6.626   4.813   3.421 -0.2772  0.2710  0.2785
    3TTP     C138732   6.611   4.988   3.373 -0.1746  0.1868 -0.0674
    3TTP     C238733   6.732   5.044   3.342 -0.1317  0.0757 -0.1047
    3TTP     C338734   6.840   4.952   3.354 -0.1781  0.0533  0.1386
    3TTP     C438735   7.033   4.788   3.376 -0.2601  0.0119  0.5697
    3TTP    C1738736   6.913   4.732   3.408 -0.3029  0.1229  0.6070
    3TTP    C1838737   6.805   4.824   3.395 -0.2565  0.1453  0.3638
    3TTP    C3238738   6.754   5.189   3.312  0.0323  0.4626  0.3998
    3TTP    C3338739   6.771   5.246   3.166 -0.5710 -0.0176 -0.4967
    3TTP    C3438740   6.881   5.196   3.071 -0.1242  0.7287 -0.7478
    3TTP    C3538741   6.889   5.253   2.931  0.4187  0.2260 -0.6440
    3TTP    C3638742   6.880   5.400   2.904 -0.5877 -0.1861  0.7296
    3TTP    C3738743   6.869   5.416   2.752 -0.6843 -0.5837  0.2409
    3TTP    C3838744   6.728   5.404   2.688 -0.0496 -0.0065  0.8936
    3TTP    C3938745   6.628   5.499   2.745  0.2941  0.7782 -0.5042
    3TTP    C4038746   6.490   5.493   2.678  0.7552 -0.2350  0.3226
    3TTP    C4138747   6.480   5.543   2.534 -0.2671 -0.4842  0.2341
    3TTP    C4238748   6.336   5.576   2.490 -0.7387  0.5143 -0.3906
    4BIM     F138749   6.892   3.228   3.791  0.0389  0.2570  0.3554
    4BIM     F238750   7.104   3.066   3.739 -0.2116  0.1102 -0.2241
    4BIM     O138751   7.095   3.710   3.648  0.2557  0.2329  0.5817
    4BIM     N538752   7.553   3.175   3.562 -0.4172 -0.1179 -0.8957
    4BIM     N638753   7.669   3.584   3.461 -0.1974 -0.1070 -0.6021
    4BIM    C1938754   7.369   3.725   3.548  0.0936  0.0843  0.1086
    4BIM    C2038755   7.310   3.610   3.586  0.0488  0.0960  0.0743
    4BIM    C2138756   7.168   3.610   3.636  0.1382  0.1742  0.3281
    4BIM    C2238757   7.136   3.470   3.668  0.0588  0.1668  0.2156
    4BIM    C2338758   7.016   3.421   3.719  0.0988  0.2240  0.3698
    4BIM    C2438759   7.008   3.284   3.741  0.0058  0.2033  0.2163
    4BIM    C2538760   7.117   3.201   3.714 -0.1232  0.1276 -0.0822
    4BIM    C2638761   7.237   3.249   3.664 -0.1640  0.0703 -0.2375
    4BIM    C2738762   7.247   3.387   3.641 -0.0712  0.0901 -0.0858
    4BIM    C2838763   7.358   3.470   3.589 -0.0824  0.0436 -0.1845
    4BIM    C2938764   7.483   3.425   3.551 -0.1932 -0.0333 -0.4626
    4BIM    C3038765   7.521   3.288   3.557 -0.3159 -0.0794 -0.6998
    4BIM    C3138766   7.585   3.513   3.502 -0.1947 -0.0734 -0.5376
    5BIM     F138767   5.815   4.783   3.340 -0.0347  0.3487 -0.2912
    5BIM     F238768   5.753   5.043   3.392  0.0361  0.3402 -0.1640
    5BIM     O138769   6.356   4.808   3.325 -0.0198  0.1674 -0.0571
    5BIM     N538770   6.050   5.435   3.455  0.1484  0.1986  0.1858
    5BIM     N638771   6.484   5.401   3.433  0.1458  0.0585  0.3432
    5BIM    C1938772   6.489   5.065   3.369  0.0532  0.0948  0.1477
    5BIM    C2038773   6.355   5.049   3.371  0.0466  0.1407  0.0837
    5BIM    C2138774   6.294   4.913   3.347  0.0083  0.1761 -0.0203
    5BIM    C2238775   6.148   4.931   3.356  0.0111  0.2222 -0.0693
    5BIM    C2338776   6.050   4.834   3.341 -0.0173  0.2656 -0.1664
    5BIM    C2438777   5.918   4.874   3.353 -0.0080  0.3046 -0.1961
    5BIM    C2538778   5.886   5.008   3.380  0.0285  0.3003 -0.1305
    5BIM    C2638779   5.984   5.106   3.395  0.0569  0.2570 -0.0336
    5BIM    C2738780   6.118   5.067   3.383  0.0480  0.2170 -0.0020
    5BIM    C2838781   6.244   5.144   3.393  0.0713  0.1668  0.0948
    5BIM    C2938782   6.255   5.279   3.418  0.1088  0.1479  0.1783
    5BIM    C3038783   6.142   5.364   3.439  0.1304  0.1757  0.1822
    5BIM    C3138784   6.381   5.346   3.427  0.1289  0.0988  0.2685
    1BTD     S238785   1.067   8.497   1.161 -0.0663 -0.0402 -0.0871
    1BTD     N138786   1.175   8.603   1.259  0.0022  0.0885 -0.2997
    1BTD     N238787   1.185   8.362   1.151 -0.2025 -0.1881  0.2924
    1BTD     N338788   1.619   8.276   1.308 -0.3564 -0.2575  0.6817
    1BTD     N438789   1.606   8.574   1.441 -0.1042  0.0834 -0.0479
    1BTD     C538790   1.400   8.584   1.352 -0.0564  0.0818 -0.1595
    1BTD     C638791   1.287   8.535   1.278 -0.0759  0.0181 -0.0879
    1BTD     C738792   1.293   8.400   1.218 -0.1906 -0.1371  0.2435
    1BTD     C838793   1.411   8.321   1.235 -0.2798 -0.2201  0.4868
    1BTD    C1538794   1.520   8.373   1.308 -0.2567 -0.1533  0.4057
    1BTD    C1638795   1.514   8.503   1.366 -0.1463 -0.0041  0.0864
    1BTD    C4338796   1.746   8.606   1.381  0.0933  0.1662 -0.8138
    1BTD    C4438797   1.866   8.657   1.468 -0.3995  0.5344 -0.1303
    1BTD    C4538798   1.994   8.686   1.387 -0.7333  0.4659 -0.2373
    1BTD    C4638799   1.987   8.783   1.275  0.2028  0.1536  0.2368
    1BTD    C4738800   1.897   8.552   1.579  0.0518  0.1075 -0.2181
    1BTD    C4838801   2.031   8.550   1.663  0.6264  0.3616 -0.4332
    1BTD    C4938802   2.059   8.682   1.733 -0.2479 -0.6120  0.1567
    1BTD    C5038803   2.193   8.681   1.809  0.1188 -0.4399 -0.4844
    1BTD    C7538804   1.733   8.269   1.410 -0.0238  0.3900 -0.0075
    1BTD    C7638805   1.865   8.194   1.398  0.5090  0.1490  0.1654
    1BTD    C7738806   1.935   8.168   1.531  0.4231 -0.0044 -0.1857
    1BTD    C7838807   1.859   8.105   1.645 -0.3904  0.0322  0.6934
    1BTD    C7938808   1.980   8.246   1.313  0.6200 -0.1952 -1.1472
    1BTD    C8038809   1.922   8.293   1.181 -1.1423  0.2262  0.1046
    1BTD    C8138810   2.033   8.364   1.093 -0.2072  0.2323 -0.7876
    1BTD    C8238811   1.993   8.395   0.956  0.3770 -0.0495  0.4998
    2TTP     S138812   1.343   8.860   1.472  0.3695  0.1618 -0.2182
    2TTP     S538813   1.697   8.826   1.714 -0.0628 -0.1991  0.3673
    2TTP     C138814   1.609   8.978   1.762 -0.0231 -0.1445  0.2680
    2TTP     C238815   1.494   8.997   1.690  0.1127 -0.0298  0.0813
    2TTP     C338816   1.472   8.893   1.594  0.1903  0.0188  0.0100
    2TTP     C438817   1.432   8.709   1.424  0.3299  0.1070 -0.1190
    2TTP    C1738818   1.546   8.689   1.496  0.1940 -0.0075  0.0677
    2TTP    C1838819   1.568   8.793   1.591  0.1163 -0.0563  0.1391
    2TTP    C3238820   1.396   9.117   1.702 -0.0634  0.3207 -0.1719
    2TTP    C3338821   1.254   9.077   1.748  0.5124 -0.1025 -0.0461
    2TTP    C3438822   1.240   9.025   1.895  0.2776  0.0252 -0.6057
    2TTP    C3538823   1.288   9.119   2.011  0.4693 -0.6211 -0.3236
    2TTP    C3638824   1.229   9.264   2.013 -0.0786 -0.0206 -0.1248
    2TTP    C3738825   1.292   9.366   2.109 -0.4171 -0.2148 -0.0879
    2TTP    C3838826   1.217   9.499   2.126 -0.7251 -0.0733 -0.2556
    2TTP    C3938827   1.312   9.607   2.193 -0.1001  0.1544  0.4333
    2TTP    C4038828   1.325   9.603   2.348 -0.1302 -0.6642  0.8833
    2TTP    C4138829   1.386   9.720   2.423  0.7936  0.0809  0.2616
    2TTP    C4238830   1.346   9.858   2.374 -1.2942 -0.4851 -0.0167
    3TTP     S138831   1.385   8.067   1.077  0.0670  0.1356 -0.2182
    3TTP     S538832   1.784   7.950   1.187 -0.0401 -0.1669 -0.1500
    3TTP     C138833   1.715   7.824   1.075 -0.0065  0.0372 -0.4017
    3TTP     C238834   1.588   7.853   1.034  0.0285  0.1428 -0.4376
    3TTP     C338835   1.540   7.975   1.090  0.0301  0.0663 -0.2676
    3TTP     C438836   1.453   8.193   1.189  0.0334 -0.0682  0.0335
    3TTP    C1738837   1.581   8.164   1.230 -0.0017 -0.1741  0.0694
    3TTP    C1838838   1.629   8.042   1.174 -0.0033 -0.0973 -0.1006
    3TTP    C3238839   1.500   7.758   0.946 -0.1391 -0.4322 -0.0315
    3TTP    C3338840   1.364   7.720   1.000 -0.3472  0.2896  0.5997
    3TTP    C3438841   1.280   7.633   0.900 -0.6368  0.4736 -0.5444
    3TTP    C3538842   1.272   7.658   0.751 -0.5178  0.0129 -0.1940
    3TTP    C3638843   1.237   7.532   0.679  0.1966  0.7170  0.1430
    3TTP    C3738844   1.227   7.554   0.530 -0.0365  0.9904  0.0269
    3TTP    C3838845   1.192   7.423   0.450  0.0843  0.0123  0.4951
    3TTP    C3938846   1.290   7.307   0.462 -0.6539 -0.6532 -0.5078
    3TTP    C4038847   1.434   7.322   0.423 -0.3446  0.3843 -0.3555
    3TTP    C4138848   1.457   7.319   0.273  0.5248  0.3668  0.9230
    3TTP    C4238849   1.605   7.324   0.251  0.0950  0.2789  0.0711
    4BIM     F138850   2.123   8.901   2.388  0.0777  0.1035 -0.1461
    4BIM     F238851   2.070   9.159   2.456  0.1420  0.1040 -0.0999
    4BIM     O138852   1.801   8.841   1.956 -0.2378  0.1357  0.0838
    4BIM     N538853   1.764   9.487   2.247  0.0095  0.1273  0.1305
    4BIM     N638854   1.524   9.389   1.896 -0.2499  0.1521  0.3008
    4BIM    C1938855   1.636   9.067   1.869 -0.2884  0.1473  0.2097
    4BIM    C2038856   1.719   9.072   1.975 -0.2116  0.1392  0.1500
    4BIM    C2138857   1.801   8.952   2.014 -0.1902  0.1333  0.0874
    4BIM    C2238858   1.879   8.991   2.132 -0.1023  0.1252  0.0321
    4BIM    C2338859   1.970   8.913   2.204 -0.0549  0.1180 -0.0355
    4BIM    C2438860   2.032   8.972   2.313  0.0272  0.1109 -0.0788
    4BIM    C2538861   2.005   9.105   2.348  0.0601  0.1111 -0.0547
    4BIM    C2638862   1.915   9.183   2.276  0.0131  0.1185  0.0125
    4BIM    C2738863   1.850   9.125   2.166 -0.0701  0.1256  0.0571
    4BIM    C2838864   1.751   9.180   2.071 -0.1358  0.1342  0.1305
    4BIM    C2938865   1.698   9.307   2.071 -0.1281  0.1371  0.1724
    4BIM    C3038866   1.735   9.406   2.168 -0.0524  0.1316  0.1492
    4BIM    C3138867   1.603   9.352   1.975 -0.1951  0.1454  0.2428
    5BIM     F138868   2.507   7.611   1.118 -0.2957 -0.0675  0.2855
    5BIM     F238869   2.427   7.351   1.111 -0.3091 -0.0504 -0.2287
    5BIM     O138870   2.032   7.865   1.068 -0.2601  0.0553  0.5685
    5BIM     N538871   1.974   7.158   1.064 -0.3028  0.0615 -0.7662
    5BIM     N638872   1.619   7.409   1.027 -0.2724  0.1539 -0.4414
    5BIM    C1938873   1.787   7.707   1.043 -0.2602  0.1153  0.1778
    5BIM    C2038874   1.909   7.653   1.056 -0.2686  0.0838  0.1267
    5BIM    C2138875   2.031   7.741   1.068 -0.2680  0.0542  0.3379
    5BIM    C2238876   2.147   7.651   1.081 -0.2785  0.0238  0.2168
    5BIM    C2338877   2.281   7.686   1.095 -0.2816 -0.0094  0.3354
    5BIM    C2438878   2.373   7.583   1.104 -0.2920 -0.0339  0.1807
    5BIM    C2538879   2.332   7.449   1.100 -0.2989 -0.0253 -0.0841
    5BIM    C2638880   2.198   7.413   1.087 -0.2957  0.0080 -0.2038
    5BIM    C2738881   2.103   7.516   1.077 -0.2853  0.0331 -0.0503
    5BIM    C2838882   1.956   7.512   1.061 -0.2795  0.0705 -0.1163
    5BIM    C2938883   1.877   7.400   1.053 -0.2835  0.0888 -0.3565
    5BIM    C3038884   1.931   7.267   1.059 -0.2941  0.0738 -0.5809
    5BIM    C3138885   1.735   7.406   1.039 -0.2773  0.1247 -0.4018
    1BTD     S238886   9.061   6.857   2.487  0.0686 -0.1890  0.0170
    1BTD     N138887   9.200   6.746   2.514  0.1643 -0.1345 -0.2474
    1BTD     N238888   9.146   7.003   2.548 -0.0839 -0.2732  0.4390
    1BTD     N338889   9.572   7.101   2.721 -0.2220 -0.3456  0.8216
    1BTD     N438890   9.638   6.784   2.680  0.0837 -0.1746 -0.0243
    1BTD     C538891   9.428   6.770   2.601  0.1187 -0.1576 -0.1208
    1BTD     C638892   9.298   6.820   2.565  0.0820 -0.1793 -0.0193
    1BTD     C738893   9.268   6.963   2.584 -0.0570 -0.2570  0.3650
    1BTD     C838894   9.369   7.050   2.638 -0.1521 -0.3090  0.6287
    1BTD    C1538895   9.495   6.997   2.672 -0.1119 -0.2850  0.5169
    1BTD    C1638896   9.524   6.858   2.654  0.0221 -0.2104  0.1466
    1BTD    C4338897   9.721   6.808   2.805  0.3028  0.0215 -0.0530
    1BTD    C4438898   9.856   6.752   2.836  0.1145  0.0094  0.1093
    1BTD    C4538899   9.910   6.772   2.981 -0.4490  0.2905 -0.0280
    1BTD    C4638900   9.826   6.755   3.110  0.3016  0.4300  0.5383
    1BTD    C4738901   9.960   6.792   2.730  0.3187  0.1815 -0.3999
    1BTD    C4838902  10.041   6.920   2.734  0.0425 -0.0731  0.0907
    1BTD    C4938903  10.140   6.961   2.626 -0.7072 -1.0319  0.3772
    1BTD    C5038904  10.094   6.938   2.479 -0.1366  0.1785  0.3516
    1BTD    C7538905   9.720   7.110   2.704  0.5657  0.5870  0.1110
    1BTD    C7638906   9.811   7.201   2.788 -0.1629 -0.4716 -0.4097
    1BTD    C7738907   9.952   7.233   2.732  0.3874  0.8565 -0.1407
    1BTD    C7838908   9.953   7.313   2.603 -0.0945  0.0192 -0.5313
    1BTD    C7938909   9.795   7.161   2.939  0.1490  0.3580  0.2231
    1BTD    C8038910   9.864   7.237   3.049 -0.2067 -0.0220 -0.0997
    1BTD    C8138911   9.849   7.176   3.192  0.1223  0.6469  0.6790
    1BTD    C8238912   9.884   7.284   3.288  0.6373  0.0084  0.3334
    2TTP     S138913   9.453   6.481   2.515 -0.2343 -0.0676  0.0966
    2TTP     S538914   9.866   6.485   2.636 -0.0954 -0.6261 -0.3524
    2TTP     C138915   9.829   6.323   2.561 -0.3393 -0.4992 -0.5069
    2TTP     C238916   9.699   6.313   2.519 -0.3965 -0.3194 -0.3773
    2TTP     C338917   9.624   6.432   2.545 -0.2496 -0.2751 -0.1514
    2TTP     C438918   9.490   6.643   2.590  0.0098 -0.1944  0.2511
    2TTP    C1738919   9.620   6.653   2.632  0.0670 -0.3743  0.1216
    2TTP    C1838920   9.694   6.534   2.606 -0.0796 -0.4184 -0.1044
    2TTP    C3238921   9.640   6.202   2.437 -0.2735 -0.2583 -0.4506
    2TTP    C3338922   9.530   6.116   2.493  0.6009  0.0573 -0.9956
    2TTP    C3438923   9.483   6.001   2.412  0.3996  0.5313 -0.3279
    2TTP    C3538924   9.364   5.929   2.479  0.1028  0.3137 -0.0494
    2TTP    C3638925   9.314   5.818   2.385 -0.5853 -0.2791 -0.5374
    2TTP    C3738926   9.385   5.679   2.381  0.1139  0.6773 -0.2070
    2TTP    C3838927   9.295   5.568   2.334  0.4204 -0.4843 -0.1884
    2TTP    C3938928   9.344   5.432   2.391  0.9196 -0.4994  0.1416
    2TTP    C4038929   9.254   5.313   2.348 -0.0934  0.2211  0.4048
    2TTP    C4138930   9.296   5.184   2.415 -0.9467 -0.2183  0.2862
    2TTP    C4238931   9.226   5.063   2.370  0.4014 -0.0204  0.5753
    3TTP     S138932   9.259   7.337   2.661  0.0547  0.2618  0.1833
    3TTP     S538933   9.631   7.459   2.840  0.1266  0.1236  0.1278
    3TTP     C138934   9.523   7.605   2.826  0.2251  0.1883  0.0307
    3TTP     C238935   9.402   7.576   2.770  0.2091  0.2346  0.0421
    3TTP     C338936   9.390   7.437   2.736  0.1175  0.2210  0.1280
    3TTP     C438937   9.367   7.192   2.674 -0.0439  0.1971  0.2804
    3TTP    C1738938   9.489   7.221   2.730 -0.0276  0.1508  0.2690
    3TTP    C1838939   9.500   7.359   2.765  0.0634  0.1644  0.1832
    3TTP    C3238940   9.289   7.674   2.747  0.0106 -0.7646 -0.5513
    3TTP    C3338941   9.207   7.669   2.618 -0.2367 -0.1465 -0.0008
    3TTP    C3438942   9.111   7.791   2.615  0.0723  0.4282 -0.2809
    3TTP    C3538943   9.025   7.790   2.484  0.7839 -0.2464 -0.5331
    3TTP    C3638944   8.956   7.923   2.480 -0.0734  0.4041  0.9864
    3TTP    C3738945   8.846   7.925   2.374 -0.4086  0.5793  0.0658
    3TTP    C3838946   8.788   8.057   2.342 -0.2357 -0.3924 -0.1483
    3TTP    C3938947   8.712   8.080   2.218  0.7773 -0.2136  0.1714
    3TTP    C4038948   8.649   8.228   2.211 -0.2161  0.4495 -0.2138
    3TTP    C4138949   8.552   8.257   2.101  0.3011 -0.0260  0.3683
    3TTP    C4238950   8.537   8.406   2.072  0.3073  0.1084  0.5351
    4BIM     F138951  10.631   6.208   2.713  0.0623  0.0708 -0.6174
    4BIM     F238952  10.585   5.940   2.710 -0.0882  0.0818  0.3331
    4BIM     O138953  10.136   6.398   2.606  0.0767 -0.0180 -0.8440
    4BIM     N538954  10.165   5.690   2.631 -0.2943  0.0342  1.5380
    4BIM     N638955   9.787   5.893   2.548 -0.2528 -0.0374  1.1693
    4BIM    C1938956   9.915   6.210   2.566 -0.0620 -0.0392 -0.0165
    4BIM    C2038957  10.042   6.172   2.593 -0.0598 -0.0172  0.0035
    4BIM    C2138958  10.150   6.275   2.612  0.0138 -0.0075 -0.4376
    4BIM    C2238959  10.274   6.201   2.640 -0.0039  0.0166 -0.2906
    4BIM    C2338960  10.401   6.253   2.664  0.0460  0.0325 -0.5759
    4BIM    C2438961  10.503   6.163   2.688  0.0161  0.0543 -0.3563
    4BIM    C2538962  10.479   6.025   2.687 -0.0614  0.0599  0.1334
    4BIM    C2638963  10.353   5.972   2.662 -0.1116  0.0440  0.4201
    4BIM    C2738964  10.248   6.062   2.638 -0.0824  0.0218  0.2043
    4BIM    C2838965  10.104   6.039   2.609 -0.1198  0.0013  0.4045
    4BIM    C2938966  10.041   5.917   2.600 -0.1955 -0.0001  0.8721
    4BIM    C3038967  10.110   5.792   2.617 -0.2496  0.0188  1.2366
    4BIM    C3138968   9.902   5.904   2.572 -0.2266 -0.0205  1.0329
    5BIM     F138969  10.188   7.956   3.161 -0.0726  0.0614  0.1348
    5BIM     F238970  10.111   8.193   3.050  0.1045 -0.0515 -0.2328
    5BIM     O138971   9.782   7.634   3.005 -0.1322  0.0416  0.3311
    5BIM     N538972   9.711   8.303   2.781  0.3166 -0.2277 -0.6213
    5BIM     N638973   9.409   8.003   2.682  0.2344 -0.2203 -0.3938
    5BIM    C1938974   9.564   7.745   2.845  0.0158 -0.0730  0.0497
    5BIM    C2038975   9.669   7.817   2.888  0.0239 -0.0638  0.0146
    5BIM    C2138976   9.777   7.753   2.970 -0.0553 -0.0033  0.1666
    5BIM    C2238977   9.875   7.858   3.000 -0.0234 -0.0088  0.0815
    5BIM    C2338978   9.993   7.847   3.074 -0.0727  0.0355  0.1677
    5BIM    C2438979  10.070   7.961   3.089 -0.0279  0.0198  0.0585
    5BIM    C2538980  10.030   8.083   3.032  0.0633 -0.0381 -0.1308
    5BIM    C2638981   9.913   8.095   2.958  0.1129 -0.0825 -0.2177
    5BIM    C2738982   9.834   7.981   2.942  0.0687 -0.0677 -0.1094
    5BIM    C2838983   9.705   7.960   2.871  0.1014 -0.1037 -0.1580
    5BIM    C2938984   9.634   8.055   2.802  0.1871 -0.1631 -0.3303
    5BIM    C3038985   9.676   8.191   2.791  0.2580 -0.1984 -0.4897
    5BIM    C3138986   9.511   8.026   2.736  0.2127 -0.1943 -0.3642
    1BTD     S238987   6.988   4.307   3.146  0.1457 -0.0552 -0.0740
    1BTD     N138988   7.085   4.456   3.120  0.0980 -0.0110  0.0003
    1BTD     N238989   7.131   4.199   3.165  0.1799 -0.0128 -0.0924
    1BTD     N338990   7.598   4.250   3.157  0.1636  0.1534  0.0040
    1BTD     N438991   7.541   4.566   3.101  0.0626  0.1557  0.1182
    1BTD     C538992   7.324   4.510   3.111  0.0807  0.0761  0.0604
    1BTD     C638993   7.212   4.420   3.126  0.1094  0.0309  0.0072
    1BTD     C738994   7.238   4.276   3.151  0.1553  0.0299 -0.0448
    1BTD     C838995   7.374   4.230   3.160  0.1702  0.0739 -0.0407
    1BTD    C1538996   7.480   4.321   3.144  0.1410  0.1173  0.0124
    1BTD    C1638997   7.455   4.460   3.120  0.0966  0.1183  0.0624
    1BTD    C4338998   7.665   4.551   3.019  0.2860 -0.9217 -0.5559
    1BTD    C4438999   7.789   4.642   3.035  0.3600 -0.8311  0.5531
    1BTD    C4539000   7.858   4.649   3.170  0.1409  0.6557 -0.4294
    1BTD    C4639001   7.981   4.734   3.205  0.5374 -0.2751 -0.1059
    1BTD    C4739002   7.881   4.626   2.913 -0.2160  0.7957  0.4718
    1BTD    C4839003   7.854   4.672   2.771  0.1450 -0.5345 -0.2780
    1BTD    C4939004   7.804   4.807   2.739 -0.1025 -0.3239  0.0849
    1BTD    C5039005   7.756   4.830   2.593  0.2487 -0.0346  0.2104
    1BTD    C7539006   7.728   4.299   3.209 -0.2010 -0.2253 -0.1674
    1BTD    C7639007   7.870   4.245   3.161  0.3874  0.4089  0.4025
    1BTD    C7739008   7.999   4.287   3.238  0.1176 -0.1583  0.0709
    1BTD    C7839009   8.014   4.282   3.391 -0.0568 -0.0575  0.7452
    1BTD    C7939010   7.883   4.270   3.009  0.7219  0.3673  0.4874
    1BTD    C8039011   7.990   4.198   2.930 -0.0698 -0.2044  0.0476
    1BTD    C8139012   7.999   4.234   2.777  0.6985 -0.0190 -0.2140
    1BTD    C8239013   7.891   4.164   2.686 -0.2681 -0.5990  0.0188
    2TTP     S139014   7.228   4.800   3.069 -0.0745  0.3250  0.3833
    2TTP     S539015   7.638   4.931   3.066 -0.0210  0.1572  0.3054
    2TTP     C139016   7.530   5.076   3.043  0.0323  0.2068  0.3677
    2TTP     C239017   7.398   5.044   3.042  0.0191  0.2617  0.3954
    2TTP     C339018   7.376   4.904   3.060 -0.0339  0.2662  0.3685
    2TTP     C439019   7.335   4.655   3.092 -0.1277  0.2753  0.3209
    2TTP    C1739020   7.468   4.687   3.093 -0.1143  0.2205  0.2932
    2TTP    C1839021   7.490   4.827   3.075 -0.0615  0.2159  0.3202
    2TTP    C3239022   7.282   5.139   3.017  0.2936 -0.1150 -0.3376
    2TTP    C3339023   7.184   5.102   2.903 -0.8129  0.0996  0.7332
    2TTP    C3439024   7.234   5.139   2.761  0.4763  0.0115 -0.4734
    2TTP    C3539025   7.131   5.115   2.654 -0.4797 -0.8712  0.0911
    2TTP    C3639026   7.163   5.176   2.519 -0.0747 -0.6604 -0.2639
    2TTP    C3739027   7.041   5.169   2.430 -0.1387  0.3276 -0.3246
    2TTP    C3839028   7.053   5.256   2.302  0.2290 -0.5380  0.0288
    2TTP    C3939029   7.062   5.410   2.318  0.3658 -0.3232 -0.0540
    2TTP    C4039030   6.934   5.474   2.378 -0.3093  0.2471 -1.0391
    2TTP    C4139031   6.801   5.465   2.306 -0.1090 -0.4455  0.5436
    2TTP    C4239032   6.785   5.550   2.174  0.6309  0.7316 -0.5119
    3TTP     S139033   7.371   3.927   3.151 -0.1368  0.2388  0.5067
    3TTP     S539034   7.801   3.929   3.150 -0.1357 -0.0580 -0.1686
    3TTP     C139035   7.744   3.757   3.134 -0.2792 -0.0190 -0.0759
    3TTP     C239036   7.608   3.746   3.134 -0.2879  0.0750  0.1382
    3TTP     C339037   7.544   3.873   3.146 -0.1817  0.1195  0.2366
    3TTP     C439038   7.428   4.099   3.167  0.0067  0.1998  0.4140
    3TTP    C1739039   7.565   4.110   3.167  0.0154  0.1059  0.1999
    3TTP    C1839040   7.629   3.982   3.155 -0.0908  0.0613  0.1016
    3TTP    C3239041   7.529   3.620   3.093  0.0479  0.2213 -0.6032
    3TTP    C3339042   7.516   3.591   2.937  0.0996 -0.7147 -0.1415
    3TTP    C3439043   7.417   3.484   2.898 -0.0932  0.2815  0.4653
    3TTP    C3539044   7.274   3.498   2.938 -0.0907  0.8617 -0.0898
    3TTP    C3639045   7.196   3.617   2.897 -0.1098 -0.6183 -0.4924
    3TTP    C3739046   7.064   3.613   2.966 -0.4010 -0.2129  0.5821
    3TTP    C3839047   6.956   3.720   2.956 -0.0429 -0.5933  0.5595
    3TTP    C3939048   6.895   3.738   2.820 -0.8104 -0.5253  0.4103
    3TTP    C4039049   6.807   3.856   2.811  0.2365 -0.2886 -0.0529
    3TTP    C4139050   6.731   3.877   2.679  0.1733  0.2146  0.3803
    3TTP    C4239051   6.633   3.762   2.651 -0.4417  0.7949 -0.0767
    4BIM     F139052   8.233   5.425   3.283 -0.0730  0.0753  0.4689
    4BIM     F239053   8.170   5.641   3.130  0.5965 -0.2913 -0.3351
    4BIM     O139054   7.794   5.116   3.209 -0.4554  0.5896  0.5764
    4BIM     N539055   7.768   5.731   2.856  1.2860 -0.4518 -1.4142
    4BIM     N639056   7.438   5.446   2.829  0.8522  0.0237 -1.1681
    4BIM    C1939057   7.579   5.212   3.036  0.0483  0.4220 -0.1534
    4BIM    C2039058   7.692   5.281   3.061  0.1183  0.3068 -0.1490
    4BIM    C2139059   7.798   5.225   3.151 -0.1545  0.4044  0.2382
    4BIM    C2239060   7.906   5.325   3.156  0.0072  0.2367  0.1358
    4BIM    C2339061   8.025   5.318   3.227 -0.1442  0.2518  0.3958
    4BIM    C2439062   8.112   5.426   3.216  0.0601  0.0716  0.2289
    4BIM    C2539063   8.080   5.537   3.137  0.4053 -0.1170 -0.1853
    4BIM    C2639064   7.961   5.545   3.066  0.5578 -0.1333 -0.4465
    4BIM    C2739065   7.871   5.437   3.075  0.3548  0.0474 -0.2832
    4BIM    C2839066   7.738   5.414   3.014  0.4368  0.0831 -0.4747
    4BIM    C2939067   7.672   5.500   2.929  0.7485 -0.0634 -0.8769
    4BIM    C3039068   7.725   5.626   2.889  1.0430 -0.2764 -1.1709
    4BIM    C3139069   7.543   5.470   2.875  0.8037 -0.0145 -1.0347
    5BIM     F139070   8.511   3.636   3.395  0.0749  0.1109 -0.1760
    5BIM     F239071   8.522   3.412   3.242  0.0849  0.1273 -0.1991
    5BIM     O139072   8.000   3.793   3.309 -0.0362 -0.0913  0.1109
    5BIM     N539073   8.175   3.200   2.960  0.0196  0.0067 -0.0284
    5BIM     N639074   7.773   3.368   2.923 -0.0691 -0.1546  0.2005
    5BIM    C1939075   7.829   3.634   3.131 -0.0661 -0.1476  0.1904
    5BIM    C2039076   7.957   3.603   3.159 -0.0387 -0.0973  0.1192
    5BIM    C2139077   8.039   3.690   3.251 -0.0248 -0.0710  0.0821
    5BIM    C2239078   8.172   3.629   3.259  0.0052 -0.0170  0.0054
    5BIM    C2339079   8.282   3.673   3.333  0.0262  0.0222 -0.0501
    5BIM    C2439080   8.398   3.598   3.325  0.0530  0.0704 -0.1184
    5BIM    C2539081   8.404   3.482   3.246  0.0579  0.0788 -0.1304
    5BIM    C2639082   8.295   3.437   3.172  0.0367  0.0398 -0.0751
    5BIM    C2739083   8.176   3.512   3.179  0.0098 -0.0092 -0.0055
    5BIM    C2839084   8.045   3.492   3.114 -0.0169 -0.0583  0.0638
    5BIM    C2939085   8.010   3.390   3.029 -0.0210 -0.0659  0.0747
    5BIM    C3039086   8.101   3.286   2.991  0.0017 -0.0260  0.0180
    5BIM    C3139087   7.880   3.378   2.971 -0.0472 -0.1147  0.1438
    1BTD     S239088   3.560   8.953   1.212  0.2632 -0.1078 -0.2620
    1BTD     N139089   3.425   9.037   1.129  0.0098  0.0644  0.3097
    1BTD     N239090   3.666   9.098   1.217  0.4527 -0.2284 -0.6617
    1BTD     N339091   3.637   9.545   1.077  0.3818 -0.1640 -0.4439
    1BTD     N439092   3.340   9.470   0.967 -0.1639  0.1965  0.7530
    1BTD     C539093   3.384   9.264   1.046 -0.0742  0.1287  0.5267
    1BTD     C639094   3.463   9.162   1.110  0.0763  0.0248  0.1799
    1BTD     C739095   3.598   9.197   1.160  0.3241 -0.1392 -0.3638
    1BTD     C839096   3.647   9.331   1.143  0.4091 -0.1907 -0.5335
    1BTD    C1539097   3.566   9.427   1.079  0.2554 -0.0845 -0.1804
    1BTD    C1639098   3.436   9.394   1.031  0.0166  0.0736  0.3434
    1BTD    C4339099   3.372   9.563   0.856  0.1178  0.4279 -0.3976
    1BTD    C4439100   3.288   9.683   0.814 -0.1956 -0.5070 -0.5043
    1BTD    C4539101   3.274   9.791   0.922 -0.4458  0.4316 -0.9733
    1BTD    C4639102   3.197   9.748   1.049  0.1569 -0.2307  0.1180
    1BTD    C4739103   3.330   9.731   0.679  0.0534 -0.3715  0.7089
    1BTD    C4839104   3.235   9.823   0.594  0.2966 -0.4474  0.2212
    1BTD    C4939105   3.098   9.758   0.570  0.3715  0.3620  0.5344
    1BTD    C5039106   3.013   9.829   0.474 -0.2421  0.1912  0.4829
    1BTD    C7539107   3.586   9.686   1.078  0.3814 -0.0146 -0.3697
    1BTD    C7639108   3.589   9.775   1.202 -0.5961 -0.7020  0.2432
    1BTD    C7739109   3.537   9.715   1.329  0.0357 -0.5974 -0.5418
    1BTD    C7839110   3.532   9.786   1.463  0.0705 -0.3474 -0.3059
    1BTD    C7939111   3.567   9.926   1.182 -0.0956  0.3523  0.4351
    1BTD    C8039112   3.627   9.998   1.059 -0.1165 -0.4898 -1.0272
    1BTD    C8139113   3.576  10.143   1.033 -0.2919 -0.5270 -0.6851
    1BTD    C8239114   3.430  10.156   0.992 -0.4987 -0.6600 -0.4359
    2TTP     S139115   3.122   9.146   0.942 -0.0046  0.0888  0.1507
    2TTP     S539116   2.995   9.542   0.832  0.2306  0.0715 -0.1867
    2TTP     C139117   2.860   9.426   0.797 -0.0215  0.1884  0.3735
    2TTP     C239118   2.891   9.297   0.828 -0.1090  0.2005  0.5107
    2TTP     C339119   3.023   9.285   0.882  0.0200  0.1180  0.1784
    2TTP     C439120   3.257   9.262   0.977  0.2475 -0.0281 -0.4095
    2TTP    C1739121   3.226   9.391   0.945  0.3350 -0.0401 -0.5467
    2TTP    C1839122   3.094   9.403   0.892  0.2061  0.0422 -0.2143
    2TTP    C3239123   2.809   9.175   0.797 -0.3076  0.0543  0.1449
    2TTP    C3339124   2.787   9.075   0.905 -0.2454  0.3004  0.2939
    2TTP    C3439125   2.707   8.950   0.863  0.3872 -0.1001 -0.1332
    2TTP    C3539126   2.715   8.843   0.968  0.0773 -0.2301 -0.2933
    2TTP    C3639127   2.611   8.735   0.944  0.2319 -0.6464  0.2695
    2TTP    C3739128   2.630   8.606   1.016 -0.6218 -0.3061 -0.1564
    2TTP    C3839129   2.504   8.522   1.009 -0.0685 -0.2706  0.2367
    2TTP    C3939130   2.526   8.387   1.058  0.6142 -0.5443 -0.2489
    2TTP    C4039131   2.403   8.298   1.056 -0.4397  0.2206 -0.4468
    2TTP    C4139132   2.432   8.165   1.108 -0.1178 -0.1526 -0.1004
    2TTP    C4239133   2.306   8.082   1.115 -0.0851 -0.2468 -0.2086
    3TTP     S139134   3.938   9.354   1.229  0.1755 -0.1743  0.0119
    3TTP     S539135   3.953   9.754   1.072  0.2373 -0.1531  0.0727
    3TTP     C139136   4.119   9.708   1.131  0.2123 -0.1577  0.1400
    3TTP     C239137   4.124   9.582   1.183  0.1916 -0.1645  0.1251
    3TTP     C339138   3.997   9.517   1.178  0.1950 -0.1667  0.0601
    3TTP     C439139   3.772   9.399   1.171  0.2007 -0.1702 -0.0554
    3TTP    C1739140   3.767   9.526   1.118  0.2212 -0.1632 -0.0406
    3TTP    C1839141   3.894   9.591   1.123  0.2179 -0.1614  0.0244
    3TTP    C3239142   4.233   9.495   1.227  0.2857 -0.3054  0.1503
    3TTP    C3339143   4.246   9.482   1.377  0.2738  0.1172  0.5295
    3TTP    C3439144   4.350   9.380   1.421  0.1664  0.0560 -0.5293
    3TTP    C3539145   4.337   9.230   1.392 -0.7291 -0.0432  0.0893
    3TTP    C3639146   4.214   9.152   1.441 -0.3466 -1.1205  0.0704
    3TTP    C3739147   4.225   9.006   1.407 -1.3727  0.1443 -0.0809
    3TTP    C3839148   4.118   8.927   1.470  0.2926  0.2516 -0.0729
    3TTP    C3939149   4.149   8.779   1.486 -0.3787  0.0112 -0.1735
    3TTP    C4039150   4.050   8.693   1.561  0.1082  0.4250  0.0610
    3TTP    C4139151   3.929   8.645   1.477  0.2923 -0.0856 -0.2280
    3TTP    C4239152   3.850   8.547   1.560 -0.1806  0.5429  0.3939
    4BIM     F139153   2.405  10.107   0.662  0.2955 -0.0560 -0.1356
    4BIM     F239154   2.218   9.949   0.544 -0.2237 -0.0639  0.6834
    4BIM     O139155   2.774   9.738   0.808  0.3995 -0.1786 -0.7017
    4BIM     N539156   2.212   9.458   0.478 -0.8960 -0.1621  1.4573
    4BIM     N639157   2.537   9.202   0.616 -0.7101 -0.2568  0.8499
    4BIM    C1939158   2.726   9.456   0.747 -0.0596 -0.2295 -0.1203
    4BIM    C2039159   2.641   9.555   0.715 -0.0654 -0.1984 -0.0099
    4BIM    C2139160   2.672   9.698   0.750  0.1788 -0.1738 -0.3267
    4BIM    C2239161   2.559   9.779   0.701  0.1037 -0.1426 -0.1038
    4BIM    C2339162   2.543   9.917   0.710  0.2639 -0.1128 -0.2671
    4BIM    C2439163   2.428   9.971   0.656  0.1484 -0.0866  0.0051
    4BIM    C2539164   2.331   9.889   0.595 -0.1191 -0.0908  0.4268
    4BIM    C2639165   2.346   9.752   0.586 -0.2801 -0.1204  0.5919
    4BIM    C2739166   2.463   9.695   0.640 -0.1668 -0.1469  0.3212
    4BIM    C2839167   2.509   9.554   0.646 -0.2814 -0.1817  0.3957
    4BIM    C2939168   2.443   9.444   0.597 -0.5383 -0.1953  0.7692
    4BIM    C3039169   2.316   9.452   0.532 -0.7341 -0.1771  1.1462
    4BIM    C3139170   2.495   9.311   0.608 -0.6313 -0.2289  0.8114
    5BIM     F139171   4.370  10.393   0.739  0.2930 -0.2825 -0.2391
    5BIM     F239172   4.609  10.372   0.867  0.0699  0.2038  0.2625
    5BIM     O139173   4.110   9.960   0.934  0.4574 -0.3324 -0.1308
    5BIM     N539174   4.767  10.033   1.192 -0.1339  0.8674  1.0608
    5BIM     N639175   4.516   9.699   1.319  0.0396  0.7303  1.0444
    5BIM    C1939176   4.246   9.786   1.127  0.3026  0.1144  0.3870
    5BIM    C2039177   4.302   9.896   1.072  0.2699  0.1080  0.3400
    5BIM    C2139178   4.226   9.980   0.974  0.3545 -0.1289  0.0685
    5BIM    C2239179   4.316  10.091   0.935  0.2911 -0.0708  0.0869
    5BIM    C2339180   4.289  10.194   0.846  0.3332 -0.2315 -0.1144
    5BIM    C2439181   4.390  10.287   0.825  0.2569 -0.1339 -0.0496
    5BIM    C2539182   4.513  10.276   0.892  0.1419  0.1166  0.2089
    5BIM    C2639183   4.540  10.173   0.981  0.0992  0.2780  0.4107
    5BIM    C2739184   4.439  10.078   1.003  0.1752  0.1827  0.3490
    5BIM    C2839185   4.436   9.958   1.090  0.1578  0.3025  0.5148
    5BIM    C2939186   4.537   9.913   1.171  0.0567  0.5470  0.7797
    5BIM    C3039187   4.664   9.979   1.182 -0.0477  0.7223  0.9333
    5BIM    C3139188   4.525   9.796   1.252  0.0479  0.6465  0.9238
    1BTD     S239189   4.257   0.496   7.281 -0.2516 -0.0248  0.3742
    1BTD     N139190   4.120   0.607   7.244 -0.1868  0.0078  0.2301
    1BTD     N239191   4.378   0.628   7.299 -0.2078 -0.0625  0.3549
    1BTD     N339192   4.378   1.096   7.271 -0.0015 -0.0803  0.0545
    1BTD     N439193   4.061   1.071   7.203  0.0242  0.0062 -0.0993
    1BTD     C539194   4.093   0.850   7.223 -0.0770  0.0059  0.0598
    1BTD     C639195   4.169   0.730   7.247 -0.1383 -0.0101  0.1775
    1BTD     C739196   4.314   0.742   7.278 -0.1500 -0.0494  0.2474
    1BTD     C839197   4.374   0.872   7.283 -0.0999 -0.0707  0.1962
    1BTD    C1539198   4.296   0.986   7.259 -0.0404 -0.0538  0.0808
    1BTD    C1639199   4.157   0.975   7.230 -0.0291 -0.0160  0.0135
    1BTD    C4339200   4.074   1.200   7.128 -0.3605  0.0720  0.4817
    1BTD    C4439201   4.059   1.203   6.975 -0.3485 -0.3730 -0.0346
    1BTD    C4539202   4.152   1.108   6.903 -0.7297  0.2514 -0.1434
    1BTD    C4639203   4.116   1.079   6.759 -0.0668  0.4743  0.0495
    1BTD    C4739204   4.053   1.345   6.918 -0.2201 -0.8020  0.1726
    1BTD    C4839205   4.174   1.445   6.918  0.5846  0.4064 -0.5315
    1BTD    C4939206   4.123   1.574   6.859 -0.2303 -0.5505  0.0558
    1BTD    C5039207   4.233   1.684   6.869  0.0849 -0.2191 -0.3306
    1BTD    C7539208   4.358   1.238   7.257  0.4024 -0.0782 -0.1650
    1BTD    C7639209   4.281   1.302   7.372 -0.6380 -0.7456  0.0517
    1BTD    C7739210   4.279   1.234   7.518  0.4906 -0.1456  0.5582
    1BTD    C7839211   4.407   1.234   7.592 -0.7377  0.7331 -0.5839
    1BTD    C7939212   4.309   1.457   7.373 -0.2261  0.1606  0.2781
    1BTD    C8039213   4.193   1.536   7.430 -0.3727 -0.3668 -0.1509
    1BTD    C8139214   4.074   1.558   7.336  0.4020  0.0879 -0.9131
    1BTD    C8239215   4.078   1.688   7.259  0.1105 -0.2181 -0.6148
    2TTP     S139216   3.798   0.779   7.181 -0.1966  0.0923 -0.0453
    2TTP     S539217   3.705   1.199   7.188 -0.4076  0.0401  0.2891
    2TTP     C139218   3.550   1.106   7.171 -0.3575 -0.0236  0.1780
    2TTP     C239219   3.569   0.970   7.168 -0.2894 -0.0112  0.0683
    2TTP     C339220   3.708   0.936   7.179 -0.2743  0.0490  0.0678
    2TTP     C439221   3.953   0.873   7.197 -0.2467  0.1560  0.0657
    2TTP    C1739222   3.934   1.008   7.200 -0.3147  0.1437  0.1755
    2TTP    C1839223   3.795   1.043   7.190 -0.3299  0.0834  0.1758
    2TTP    C3239224   3.462   0.865   7.139  0.5106 -0.1874  0.2355
    2TTP    C3339225   3.377   0.815   7.253  0.1361 -0.5942 -0.0286
    2TTP    C3439226   3.245   0.752   7.217  0.0372  0.4360  0.8178
    2TTP    C3539227   3.178   0.706   7.348 -0.4861  0.2520  0.3661
    2TTP    C3639228   3.028   0.683   7.351  0.5546 -0.4834  0.5249
    2TTP    C3739229   2.948   0.808   7.317 -0.4109 -0.4955 -0.0930
    2TTP    C3839230   2.808   0.779   7.287  1.2810 -0.7512 -0.1252
    2TTP    C3939231   2.727   0.904   7.256  0.9662  0.3073 -0.0800
    2TTP    C4039232   2.585   0.879   7.193 -0.5527 -0.4228 -0.0900
    2TTP    C4139233   2.478   0.804   7.275 -0.1024  0.5823  0.1312
    2TTP    C4239234   2.351   0.778   7.192  0.2978 -0.4954 -0.1836
    3TTP     S139235   4.667   0.857   7.382  0.4113 -0.1627 -0.2048
    3TTP     S539236   4.689   1.284   7.339 -0.1109 -0.0946  0.1807
    3TTP     C139237   4.846   1.225   7.410 -0.0276  0.0299  0.1012
    3TTP     C239238   4.848   1.090   7.427  0.1388  0.0162 -0.0224
    3TTP     C339239   4.726   1.028   7.386  0.2062 -0.0931 -0.0589
    3TTP     C439240   4.510   0.917   7.312  0.3281 -0.2871 -0.1253
    3TTP    C1739241   4.508   1.052   7.294  0.1617 -0.2734 -0.0017
    3TTP    C1839242   4.630   1.114   7.336  0.0943 -0.1642  0.0349
    3TTP    C3239243   4.957   1.002   7.487  0.3787  0.3327 -0.4844
    3TTP    C3339244   4.942   0.964   7.634 -0.1958  0.2268 -0.1677
    3TTP    C3439245   5.064   0.881   7.686 -0.0321 -0.2110 -0.6185
    3TTP    C3539246   5.077   0.734   7.636 -0.3464  0.4467  0.6275
    3TTP    C3639247   4.949   0.655   7.624  0.2513  0.6482  0.3054
    3TTP    C3739248   4.967   0.508   7.589 -0.4135 -0.4889 -0.2797
    3TTP    C3839249   4.842   0.421   7.594 -0.0855 -0.4945 -0.6407
    3TTP    C3939250   4.764   0.410   7.466 -0.2429 -0.7675 -0.2834
    3TTP    C4039251   4.658   0.307   7.474  0.6027  0.3316 -0.5252
    3TTP    C4139252   4.578   0.292   7.339  0.3460  0.0133  0.2925
    3TTP    C4239253   4.485   0.167   7.329  0.0735 -0.3838  0.3783
    4BIM     F139254   3.219   1.841   7.334 -0.0585  0.0690  0.1565
    4BIM     F239255   2.989   1.757   7.216  0.0023  0.0551  0.0471
    4BIM     O139256   3.524   1.396   7.291  0.0104  0.1077  0.2441
    4BIM     N539257   2.875   1.319   7.015  0.1388  0.0626 -0.0474
    4BIM     N639258   3.160   0.988   7.006  0.1803  0.0957  0.0430
    4BIM    C1939259   3.412   1.157   7.163  0.0929  0.1082  0.1708
    4BIM    C2039260   3.345   1.273   7.178  0.0732  0.0990  0.1531
    4BIM    C2139261   3.409   1.391   7.245  0.0309  0.0994  0.1934
    4BIM    C2239262   3.308   1.499   7.245  0.0185  0.0880  0.1603
    4BIM    C2339263   3.322   1.627   7.296 -0.0183  0.0843  0.1794
    4BIM    C2439264   3.213   1.712   7.285 -0.0229  0.0732  0.1404
    4BIM    C2539265   3.094   1.669   7.224  0.0086  0.0661  0.0842
    4BIM    C2639266   3.080   1.540   7.173  0.0453  0.0697  0.0650
    4BIM    C2739267   3.189   1.453   7.183  0.0505  0.0810  0.1036
    4BIM    C2839268   3.207   1.312   7.140  0.0854  0.0874  0.0970
    4BIM    C2939269   3.113   1.234   7.076  0.1219  0.0833  0.0482
    4BIM    C3039270   2.982   1.281   7.043  0.1311  0.0720 -0.0042
    4BIM    C3139271   3.139   1.099   7.038  0.1538  0.0902  0.0455
    5BIM     F139272   5.084   1.982   7.194  0.1278 -0.1202 -0.1173
    5BIM     F239273   5.271   1.972   7.392 -0.3966  0.1408  0.3997
    5BIM     O139274   4.864   1.489   7.238  0.2921 -0.2124 -0.3284
    5BIM     N539275   5.384   1.607   7.706 -1.0331  0.4502  0.9924
    5BIM     N639276   5.175   1.224   7.700 -0.7991  0.3256  0.7232
    5BIM    C1939277   4.965   1.305   7.442 -0.1505  0.0041  0.0905
    5BIM    C2039278   5.013   1.429   7.423 -0.1713  0.0171  0.1234
    5BIM    C2139279   4.956   1.518   7.316  0.0652 -0.0988 -0.1013
    5BIM    C2239280   5.031   1.645   7.323 -0.0260 -0.0506  0.0014
    5BIM    C2339281   5.013   1.758   7.244  0.1227 -0.1223 -0.1342
    5BIM    C2439282   5.096   1.867   7.269 -0.0072 -0.0553  0.0047
    5BIM    C2539283   5.192   1.862   7.371 -0.2774  0.0791  0.2712
    5BIM    C2639284   5.210   1.749   7.450 -0.4270  0.1512  0.4077
    5BIM    C2739285   5.127   1.638   7.426 -0.2989  0.0851  0.2701
    5BIM    C2839286   5.121   1.505   7.492 -0.3989  0.1321  0.3557
    5BIM    C2939287   5.199   1.461   7.596 -0.6537  0.2581  0.6031
    5BIM    C3039288   5.300   1.542   7.656 -0.8614  0.3633  0.8163
    5BIM    C3139289   5.185   1.331   7.653 -0.7322  0.2945  0.6678
    1BTD     S239290   1.491   5.701   8.144  0.0371  0.0721 -0.1640
    1BTD     N139291   1.661   5.659   8.187  0.0308 -0.1063 -0.3111
    1BTD     N239292   1.532   5.867   8.087  0.0931  0.1935  0.2251
    1BTD     N339293   1.920   6.129   8.050  0.1958  0.1184  0.7527
    1BTD     N439294   2.079   5.872   8.173  0.1191 -0.2509  0.0920
    1BTD     C539295   1.877   5.774   8.178  0.0778 -0.1774 -0.0927
    1BTD     C639296   1.735   5.765   8.159  0.0688 -0.0682 -0.0746
    1BTD     C739297   1.662   5.882   8.103  0.1037  0.0995  0.2255
    1BTD     C839298   1.736   6.001   8.070  0.1459  0.1498  0.4926
    1BTD    C1539299   1.875   6.004   8.090  0.1531  0.0387  0.4646
    1BTD    C1639300   1.945   5.892   8.144  0.1196 -0.1226  0.1748
    1BTD    C4339301   2.194   5.924   8.099  0.1005 -0.0631 -0.7528
    1BTD    C4439302   2.333   5.942   8.163 -0.0490  0.0487  0.0551
    1BTD    C4539303   2.447   5.976   8.064 -0.3011 -0.1774 -0.3941
    1BTD    C4639304   2.452   5.878   7.942  0.7723 -0.4384 -0.2532
    1BTD    C4739305   2.330   6.024   8.289 -0.4132 -0.3696  0.3671
    1BTD    C4839306   2.462   6.035   8.367  0.1013 -0.3899  0.1395
    1BTD    C4939307   2.443   6.108   8.495 -0.1493  0.2441  0.1343
    1BTD    C5039308   2.578   6.109   8.568 -0.1480 -0.3005  0.6534
    1BTD    C7539309   2.048   6.196   8.078  0.4290 -0.2338  0.4236
    1BTD    C7639310   2.109   6.295   7.987  0.2731  0.2577  0.2849
    1BTD    C7739311   2.224   6.371   8.045 -0.4599 -0.2117  0.3264
    1BTD    C7839312   2.193   6.469   8.156  0.4304 -0.2751  0.0156
    1BTD    C7939313   2.146   6.228   7.848 -0.1578  0.8404  0.3857
    1BTD    C8039314   2.189   6.317   7.737 -0.7454 -0.4929  0.1441
    1BTD    C8139315   2.079   6.397   7.679  0.0167  0.2351  0.1080
    1BTD    C8239316   2.125   6.529   7.613 -0.2097  0.5645  0.2471
    2TTP     S139317   1.971   5.529   8.331 -0.1286  0.0407  0.2919
    2TTP     S539318   2.365   5.700   8.356  0.0373 -0.2723 -0.1576
    2TTP     C139319   2.361   5.548   8.457  0.0317 -0.2692 -0.1535
    2TTP     C239320   2.239   5.487   8.455 -0.0198 -0.1724 -0.0143
    2TTP     C339321   2.145   5.557   8.374 -0.0567 -0.0972  0.0939
    2TTP     C439322   1.975   5.680   8.231 -0.1231  0.0376  0.2880
    2TTP    C1739323   2.097   5.742   8.233 -0.0714 -0.0592  0.1487
    2TTP    C1839324   2.191   5.672   8.313 -0.0345 -0.1346  0.0403
    2TTP    C3239325   2.192   5.369   8.540  0.2815 -0.1579  0.4087
    2TTP    C3339326   2.116   5.250   8.475  0.0512 -0.3988 -0.8416
    2TTP    C3439327   2.191   5.152   8.391  0.0481  0.4446  0.4489
    2TTP    C3539328   2.105   5.031   8.351  0.1483  0.0537 -0.3930
    2TTP    C3639329   2.053   4.946   8.464  0.1965  0.0009  0.0669
    2TTP    C3739330   1.960   4.840   8.404 -0.2210  0.1040  0.3029
    2TTP    C3839331   1.918   4.713   8.475 -0.4647 -0.1550 -0.4450
    2TTP    C3939332   2.036   4.621   8.503  0.3886 -0.0409  0.5294
    2TTP    C4039333   1.993   4.515   8.601  0.1576  0.1554 -0.5729
    2TTP    C4139334   2.090   4.395   8.611 -0.4260 -0.4992  0.5265
    2TTP    C4239335   2.025   4.282   8.678  0.8786  0.1484 -0.7624
    3TTP     S139336   1.544   6.203   7.958 -0.2083 -0.0776 -0.1049
    3TTP     S539337   1.857   6.499   7.970 -0.2019 -0.1048  0.4495
    3TTP     C139338   1.703   6.579   7.914 -0.1232 -0.0652  0.2922
    3TTP     C239339   1.598   6.492   7.906 -0.1206 -0.0546  0.1117
    3TTP     C339340   1.634   6.360   7.946 -0.1805 -0.0771  0.0912
    3TTP     C439341   1.698   6.123   8.015 -0.2869 -0.1171  0.0525
    3TTP    C1739342   1.803   6.210   8.022 -0.2896 -0.1280  0.2332
    3TTP    C1839343   1.767   6.342   7.983 -0.2296 -0.1053  0.2534
    3TTP    C3239344   1.453   6.522   7.869  0.0658 -0.7314  0.6385
    3TTP    C3339345   1.416   6.503   7.721 -0.0177  0.7777 -0.3749
    3TTP    C3439346   1.284   6.574   7.698  0.5251  0.5421 -0.1149
    3TTP    C3539347   1.198   6.514   7.594 -0.0805  0.4585  0.2393
    3TTP    C3639348   1.063   6.578   7.573  0.6413  0.7718  0.3424
    3TTP    C3739349   0.977   6.505   7.460 -0.7427  0.3209 -0.7951
    3TTP    C3839350   0.855   6.582   7.427 -0.1903 -0.0543 -0.0689
    3TTP    C3939351   0.742   6.596   7.535 -0.2401  0.6198 -0.1180
    3TTP    C4039352   0.674   6.462   7.551 -0.5144  0.1094 -0.5799
    3TTP    C4139353   0.593   6.447   7.678 -0.0996 -0.6583 -0.1768
    3TTP    C4239354   0.524   6.314   7.690 -0.0182  0.1475 -0.7893
    4BIM     F139355   3.067   5.835   8.765  0.1026 -0.1233 -0.1767
    4BIM     F239356   3.133   5.580   8.834  0.2849 -0.1425 -0.4182
    4BIM     O139357   2.577   5.759   8.546 -0.0834 -0.1876  0.2604
    4BIM     N539358   2.879   5.159   8.777  0.4143 -0.2158 -0.4537
    4BIM     N639359   2.483   5.151   8.593  0.2321 -0.2621 -0.0637
    4BIM    C1939360   2.467   5.488   8.535  0.0246 -0.2286  0.1851
    4BIM    C2039361   2.587   5.517   8.587  0.0644 -0.2118  0.0844
    4BIM    C2139362   2.637   5.659   8.589  0.0041 -0.1911  0.1318
    4BIM    C2239363   2.770   5.655   8.652  0.0693 -0.1763 -0.0038
    4BIM    C2339364   2.856   5.762   8.677  0.0463 -0.1552 -0.0160
    4BIM    C2439365   2.977   5.734   8.738  0.1204 -0.1443 -0.1567
    4BIM    C2539366   3.011   5.603   8.773  0.2141 -0.1542 -0.2807
    4BIM    C2639367   2.926   5.495   8.749  0.2376 -0.1751 -0.2699
    4BIM    C2739368   2.803   5.522   8.688  0.1636 -0.1866 -0.1283
    4BIM    C2839369   2.692   5.432   8.649  0.1643 -0.2087 -0.0789
    4BIM    C2939370   2.687   5.295   8.667  0.2427 -0.2236 -0.1674
    4BIM    C3039371   2.792   5.221   8.728  0.3368 -0.2191 -0.3245
    4BIM    C3139372   2.575   5.217   8.626  0.2364 -0.2447 -0.1099
    5BIM     F139373   2.175   7.254   7.969 -0.0688  0.0559  0.3077
    5BIM     F239374   1.948   7.404   7.965 -0.0725  0.0429 -0.2320
    5BIM     O139375   1.969   6.755   7.924  0.0308 -0.0023  0.4932
    5BIM     N539376   1.475   7.264   7.929 -0.0071 -0.0170 -0.8755
    5BIM     N639377   1.360   6.844   7.895  0.0714 -0.0597 -0.6219
    5BIM    C1939378   1.679   6.721   7.905  0.0625 -0.0352  0.0435
    5BIM    C2039379   1.740   6.841   7.916  0.0376 -0.0199  0.0179
    5BIM    C2139380   1.889   6.850   7.925  0.0225 -0.0036  0.2586
    5BIM    C2239381   1.922   6.993   7.937 -0.0037  0.0101  0.1605
    5BIM    C2339382   2.048   7.051   7.948 -0.0244  0.0277  0.3096
    5BIM    C2439383   2.054   7.190   7.957 -0.0473  0.0386  0.1723
    5BIM    C2539384   1.937   7.267   7.956 -0.0493  0.0316 -0.1056
    5BIM    C2639385   1.811   7.210   7.945 -0.0286  0.0142 -0.2558
    5BIM    C2739386   1.803   7.070   7.935 -0.0052  0.0032 -0.1204
    5BIM    C2839387   1.686   6.979   7.922  0.0200 -0.0157 -0.2190
    5BIM    C2939388   1.554   7.016   7.917  0.0260 -0.0268 -0.4799
    5BIM    C3039389   1.511   7.152   7.924  0.0077 -0.0213 -0.6965
    5BIM    C3139390   1.448   6.921   7.905  0.0509 -0.0448 -0.5566
    1BTD     S239391   2.412   1.062   2.718  0.0259 -0.1322 -0.1069
    1BTD     N139392   2.558   1.082   2.820  0.3168 -0.0948 -0.5272
    1BTD     N239393   2.418   0.882   2.717 -0.3207 -0.1509  0.4270
    1BTD     N339394   2.698   0.552   2.901 -0.5018 -0.1219  0.7558
    1BTD     N439395   2.870   0.798   3.027  0.2838 -0.0527 -0.4199
    1BTD     C539396   2.719   0.931   2.927  0.2900 -0.0736 -0.4570
    1BTD     C639397   2.603   0.960   2.847  0.1492 -0.0981 -0.2617
    1BTD     C739398   2.524   0.848   2.790 -0.2076 -0.1295  0.2725
    1BTD     C839399   2.566   0.713   2.815 -0.4058 -0.1349  0.5845
    1BTD    C1539400   2.681   0.689   2.893 -0.2574 -0.1103  0.3771
    1BTD    C1639401   2.756   0.797   2.949  0.0866 -0.0800 -0.1374
    1BTD    C4339402   2.892   0.697   3.131  0.2833  0.2220  0.1848
    1BTD    C4439403   3.028   0.672   3.193 -0.4615  0.2905 -0.1691
    1BTD    C4539404   3.129   0.611   3.087  0.1729 -0.5323  0.2982
    1BTD    C4639405   3.279   0.590   3.120 -0.1297  0.4177 -0.0556
    1BTD    C4739406   3.011   0.609   3.328 -0.3279  0.3562  0.2687
    1BTD    C4839407   3.127   0.576   3.424 -0.2854  0.0999 -0.5094
    1BTD    C4939408   3.221   0.694   3.465  0.3109  0.0319  0.0138
    1BTD    C5039409   3.342   0.654   3.546  0.1384  1.0685 -0.5862
    1BTD    C7539410   2.836   0.489   2.901  0.4576  1.0816 -0.6154
    1BTD    C7639411   2.857   0.339   2.940 -0.4504  0.5583 -0.7410
    1BTD    C7739412   2.812   0.313   3.089 -1.0416  0.0147 -0.6622
    1BTD    C7839413   2.816   0.162   3.133  0.2836  0.2798  0.7425
    1BTD    C7939414   3.007   0.298   2.919  0.4482 -0.5674  0.2631
    1BTD    C8039415   3.055   0.293   2.778 -0.9728  0.4196 -0.3593
    1BTD    C8139416   3.207   0.305   2.766 -0.2241 -0.1104 -0.0716
    1BTD    C8239417   3.256   0.272   2.630 -0.3313 -0.3521 -0.0767
    2TTP     S139418   2.862   1.194   3.003 -0.2035  0.4082  0.1659
    2TTP     S539419   3.172   0.954   3.180 -0.0637  0.1859 -0.3747
    2TTP     C139420   3.222   1.128   3.187  0.0581  0.1530 -0.4305
    2TTP     C239421   3.130   1.213   3.133  0.0222  0.2196 -0.2670
    2TTP     C339422   3.015   1.143   3.084 -0.1029  0.2992 -0.0915
    2TTP     C439423   2.811   1.019   2.996 -0.3252  0.4411  0.2218
    2TTP    C1739424   2.904   0.935   3.050 -0.2893  0.3744  0.0582
    2TTP    C1839425   3.018   1.005   3.099 -0.1642  0.2949 -0.1172
    2TTP    C3239426   3.144   1.364   3.119  0.1198 -0.2306 -0.2697
    2TTP    C3339427   3.156   1.414   2.974  0.0392  0.2292  0.0411
    2TTP    C3439428   3.278   1.383   2.896 -0.0716 -0.0577  0.0520
    2TTP    C3539429   3.409   1.436   2.953 -0.1327 -0.8337  0.4544
    2TTP    C3639430   3.519   1.400   2.847  0.5149  0.0823 -0.7191
    2TTP    C3739431   3.662   1.437   2.891  0.8451 -0.4795 -0.2953
    2TTP    C3839432   3.756   1.385   2.787  0.0789 -0.5154  0.1383
    2TTP    C3939433   3.903   1.406   2.821  0.4656 -0.4762  0.2596
    2TTP    C4039434   3.948   1.556   2.797  0.1331  0.6566  0.2852
    2TTP    C4139435   3.942   1.608   2.660 -0.1590 -1.0644 -0.3578
    2TTP    C4239436   3.974   1.759   2.660 -1.0900  0.1876  0.1854
    3TTP     S139437   2.351   0.526   2.717  0.1588  0.0312 -0.2183
    3TTP     S539438   2.560   0.198   2.899  0.2466  0.2995  0.1675
    3TTP     C139439   2.399   0.138   2.839  0.3628  0.1311  0.0216
    3TTP     C239440   2.325   0.236   2.779  0.3426  0.0384 -0.1062
    3TTP     C339441   2.392   0.362   2.779  0.2345  0.0969 -0.0933
    3TTP     C439442   2.512   0.586   2.777  0.0426  0.1996 -0.0722
    3TTP    C1739443   2.586   0.488   2.837  0.0628  0.2923  0.0555
    3TTP    C1839444   2.518   0.362   2.837  0.1709  0.2338  0.0427
    3TTP    C3239445   2.181   0.222   2.717 -0.5222  0.0000 -0.4151
    3TTP    C3339446   2.159   0.267   2.576 -0.2878 -0.1887 -0.2471
    3TTP    C3439447   2.015   0.284   2.534  0.4580 -0.0972 -0.2570
    3TTP    C3539448   1.998   0.350   2.394 -0.0052  0.0579  0.3797
    3TTP    C3639449   1.855   0.355   2.343 -0.0182  0.2206 -0.1338
    3TTP    C3739450   1.803   0.491   2.290 -0.2116  0.6405  0.5332
    3TTP    C3839451   1.671   0.469   2.223  0.0026 -0.1101  0.8204
    3TTP    C3939452   1.576   0.586   2.214  0.5871  0.2541  0.6998
    3TTP    C4039453   1.611   0.708   2.130  0.1553  0.4680  0.6953
    3TTP    C4139454   1.499   0.810   2.137  0.3752  0.3373 -0.4167
    3TTP    C4239455   1.519   0.937   2.062 -0.3126 -0.4302  0.4435
    4BIM     F139456   3.903   0.808   3.521 -0.0369  0.0988  0.1968
    4BIM     F239457   3.990   1.061   3.570 -0.0022  0.1360 -0.0539
    4BIM     O139458   3.427   0.908   3.284 -0.1323 -0.0760  0.3139
    4BIM     N539459   3.777   1.496   3.472 -0.0203  0.0649 -0.3307
    4BIM     N639460   3.387   1.524   3.276 -0.1019 -0.0792 -0.1887
    4BIM    C1939461   3.341   1.186   3.246 -0.1331 -0.1026  0.1160
    4BIM    C2039462   3.457   1.151   3.304 -0.1104 -0.0601  0.0963
    4BIM    C2139463   3.495   1.006   3.320 -0.1116 -0.0491  0.2029
    4BIM    C2239464   3.626   1.003   3.386 -0.0837 -0.0002  0.1493
    4BIM    C2339465   3.701   0.891   3.421 -0.0747  0.0256  0.2117
    4BIM    C2439466   3.824   0.914   3.483 -0.0471  0.0713  0.1409
    4BIM    C2539467   3.868   1.044   3.508 -0.0293  0.0904  0.0119
    4BIM    C2639468   3.794   1.156   3.473 -0.0382  0.0649 -0.0511
    4BIM    C2739469   3.670   1.135   3.411 -0.0660  0.0185  0.0190
    4BIM    C2839470   3.568   1.231   3.361 -0.0817 -0.0175 -0.0187
    4BIM    C2939471   3.575   1.368   3.368 -0.0715 -0.0123 -0.1375
    4BIM    C3039472   3.686   1.438   3.425 -0.0435  0.0301 -0.2433
    4BIM    C3139473   3.471   1.453   3.317 -0.0883 -0.0492 -0.1650
    5BIM     F139474   2.588  -0.501   3.318  0.1519 -0.1948 -0.1995
    5BIM     F239475   2.442  -0.661   3.154 -0.1273 -0.1206 -0.0250
    5BIM     O139476   2.517  -0.019   3.082  0.1428 -0.1640 -0.1339
    5BIM     N539477   2.181  -0.548   2.749 -0.5352  0.0074  0.2725
    5BIM     N639478   2.154  -0.139   2.598 -0.4861  0.0165  0.2885
    5BIM    C1939479   2.352  -0.001   2.841 -0.1272 -0.0827  0.0560
    5BIM    C2039480   2.375  -0.116   2.907 -0.1140 -0.0932  0.0327
    5BIM    C2139481   2.461  -0.117   3.030  0.0284 -0.1359 -0.0665
    5BIM    C2239482   2.466  -0.257   3.076  0.0049 -0.1369 -0.0674
    5BIM    C2339483   2.534  -0.308   3.187  0.1055 -0.1698 -0.1435
    5BIM    C2439484   2.524  -0.444   3.211  0.0581 -0.1635 -0.1273
    5BIM    C2539485   2.449  -0.526   3.126 -0.0859 -0.1256 -0.0373
    5BIM    C2639486   2.381  -0.476   3.015 -0.1869 -0.0923  0.0390
    5BIM    C2739487   2.390  -0.339   2.990 -0.1407 -0.0982  0.0239
    5BIM    C2839488   2.331  -0.255   2.882 -0.2196 -0.0699  0.0890
    5BIM    C2939489   2.251  -0.299   2.779 -0.3629 -0.0296  0.1833
    5BIM    C3039490   2.213  -0.435   2.763 -0.4572 -0.0093  0.2320
    5BIM    C3139491   2.198  -0.210   2.680 -0.4299 -0.0045  0.2406
    1BTD     S239492   6.355   4.004   9.441 -0.2198  0.0421  0.3013
    1BTD     N139493   6.265   4.068   9.300 -0.1751  0.1154  0.3057
    1BTD     N239494   6.458   4.151   9.459 -0.1441 -0.0156  0.3357
    1BTD     N339495   6.506   4.563   9.239  0.0906 -0.0006  0.4132
    1BTD     N439496   6.267   4.460   9.042  0.0525  0.1607  0.3760
    1BTD     C539497   6.269   4.274   9.168 -0.0557  0.1371  0.3428
    1BTD     C639498   6.314   4.188   9.274 -0.1094  0.0943  0.3309
    1BTD     C739499   6.422   4.235   9.363 -0.0921  0.0209  0.3481
    1BTD     C839500   6.480   4.364   9.342 -0.0219 -0.0057  0.3760
    1BTD    C1539501   6.433   4.445   9.237  0.0288  0.0382  0.3868
    1BTD    C1639502   6.329   4.400   9.150  0.0121  0.1087  0.3704
    1BTD    C4339503   6.328   4.562   8.953  0.3215 -1.2457 -0.0526
    1BTD    C4439504   6.234   4.673   8.881 -0.0125  0.9437  0.0421
    1BTD    C4539505   6.141   4.747   8.985 -0.6377  0.6560 -0.0025
    1BTD    C4639506   6.047   4.849   8.925 -0.1105  0.1532 -0.1813
    1BTD    C4739507   6.329   4.751   8.787 -0.0018  0.0804 -0.4436
    1BTD    C4839508   6.423   4.850   8.856  0.3429  0.4398 -0.2552
    1BTD    C4939509   6.504   4.937   8.762 -0.5732  0.0096  0.2397
    1BTD    C5039510   6.626   5.009   8.820  0.5432  0.0597 -0.0541
    1BTD    C7539511   6.470   4.704   9.197  0.0398  0.2298  0.3115
    1BTD    C7639512   6.418   4.802   9.297  0.1166 -0.1105 -0.6545
    1BTD    C7739513   6.296   4.756   9.371 -0.3222 -0.3938 -0.5499
    1BTD    C7839514   6.251   4.836   9.498 -0.2635  0.1405  0.4889
    1BTD    C7939515   6.409   4.958   9.258 -0.2768  0.1566 -0.3313
    1BTD    C8039516   6.540   5.016   9.207 -0.0754 -0.4263  0.0130
    1BTD    C8139517   6.547   5.170   9.173 -0.5168  0.1513  0.1809
    1BTD    C8239518   6.686   5.222   9.139 -0.2427  0.2842 -0.3554
    2TTP     S139519   6.045   4.133   9.023 -0.1474  0.0690 -0.1575
    2TTP     S539520   6.021   4.465   8.750  0.3142  0.1711 -0.0761
    2TTP     C139521   5.902   4.337   8.697  0.2228  0.2980 -0.1769
    2TTP     C239522   5.903   4.227   8.778  0.0746  0.2739 -0.2084
    2TTP     C339523   5.997   4.240   8.885  0.0283  0.1544 -0.1533
    2TTP     C439524   6.163   4.260   9.076 -0.0558 -0.0578 -0.0563
    2TTP    C1739525   6.163   4.370   8.995  0.0923 -0.0339 -0.0251
    2TTP    C1839526   6.069   4.358   8.888  0.1386  0.0856 -0.0801
    2TTP    C3239527   5.820   4.096   8.754 -0.2412 -0.9437 -0.1599
    2TTP    C3339528   5.715   4.043   8.848 -0.3107  0.5337 -0.4496
    2TTP    C3439529   5.603   4.139   8.875  0.0291  0.0606 -0.7923
    2TTP    C3539530   5.493   4.169   8.768 -0.2421  0.2419  0.4316
    2TTP    C3639531   5.432   4.051   8.690 -0.1370 -0.1675  0.4779
    2TTP    C3739532   5.350   3.948   8.767 -0.2446  0.2084 -0.6272
    2TTP    C3839533   5.224   4.003   8.834  1.1300  0.2726 -0.5464
    2TTP    C3939534   5.173   3.923   8.961 -0.1497 -0.2877 -0.2919
    2TTP    C4039535   5.046   3.979   9.023  0.1054  0.5333 -0.3206
    2TTP    C4139536   4.992   3.902   9.144 -0.2790  0.4313  0.2163
    2TTP    C4239537   5.057   3.915   9.283 -0.2244  0.4696 -0.2956
    3TTP     S139538   6.702   4.414   9.551  0.1927  0.1246  0.0562
    3TTP     S539539   6.772   4.797   9.368 -0.0925  0.0913 -0.1235
    3TTP     C139540   6.883   4.781   9.512 -0.1469  0.2807 -0.0585
    3TTP     C239541   6.868   4.661   9.577 -0.0620  0.3018  0.0007
    3TTP     C339542   6.768   4.579   9.516  0.0490  0.1698 -0.0029
    3TTP     C439543   6.591   4.431   9.408  0.2470 -0.0646 -0.0086
    3TTP    C1739544   6.606   4.551   9.343  0.1621 -0.0857 -0.0681
    3TTP    C1839545   6.706   4.633   9.404  0.0511  0.0464 -0.0641
    3TTP    C3239546   6.915   4.627   9.716 -0.0428 -0.2964 -0.0987
    3TTP    C3339547   6.984   4.490   9.745 -0.4290 -0.1760 -0.5816
    3TTP    C3439548   7.011   4.467   9.893  0.5795 -0.2781  0.2258
    3TTP    C3539549   7.138   4.396   9.913 -0.8088 -0.2328  0.2129
    3TTP    C3639550   7.179   4.420  10.056 -1.2761 -0.2916  0.1115
    3TTP    C3739551   7.319   4.356  10.091  0.1547  0.1719 -0.9709
    3TTP    C3839552   7.341   4.397  10.241  0.5811 -0.1169  0.1067
    3TTP    C3939553   7.439   4.295  10.308  0.1434  0.2361  0.0414
    3TTP    C4039554   7.403   4.140  10.306  0.1154 -1.0289 -0.2342
    3TTP    C4139555   7.528   4.053  10.315 -0.4509 -0.6103 -0.1267
    3TTP    C4239556   7.496   3.904  10.350 -0.3715 -0.1982  0.3478
    4BIM     F139557   5.520   4.971   8.335  0.3085  0.0647 -0.1278
    4BIM     F239558   5.404   4.795   8.163  0.0194  0.0966  0.0336
    4BIM     O139559   5.810   4.635   8.644  0.3093 -0.0585 -0.2625
    4BIM     N539560   5.444   4.302   8.136 -0.3957  0.0544  0.1700
    4BIM     N639561   5.694   4.075   8.412 -0.3366 -0.0483  0.0324
    4BIM    C1939562   5.803   4.347   8.590  0.0336 -0.0719 -0.1562
    4BIM    C2039563   5.734   4.439   8.519  0.0445 -0.0422 -0.1283
    4BIM    C2139564   5.743   4.585   8.553  0.1903 -0.0372 -0.1869
    4BIM    C2239565   5.657   4.656   8.457  0.1633 -0.0023 -0.1371
    4BIM    C2339566   5.633   4.793   8.449  0.2651  0.0139 -0.1643
    4BIM    C2439567   5.548   4.837   8.349  0.2136  0.0471 -0.1051
    4BIM    C2539568   5.488   4.746   8.260  0.0645  0.0636 -0.0222
    4BIM    C2639569   5.511   4.609   8.267 -0.0378  0.0476  0.0052
    4BIM    C2739570   5.598   4.563   8.368  0.0125  0.0138 -0.0534
    4BIM    C2839571   5.643   4.426   8.403 -0.0664 -0.0100 -0.0443
    4BIM    C2939572   5.606   4.309   8.339 -0.2141 -0.0036  0.0272
    4BIM    C3039573   5.517   4.306   8.227 -0.3135  0.0283  0.1054
    4BIM    C3139574   5.655   4.181   8.380 -0.2806 -0.0284  0.0296
    5BIM     F139575   7.081   5.556   9.336  0.0074  0.0658  0.3331
    5BIM     F239576   7.322   5.516   9.455  0.1956 -0.1991 -0.1311
    5BIM     O139577   6.845   5.075   9.416 -0.2203  0.1973  0.4525
    5BIM     N539578   7.501   5.115   9.685  0.3040 -0.4864 -0.7132
    5BIM     N639579   7.268   4.748   9.724  0.0882 -0.3301 -0.5262
    5BIM    C1939580   6.992   4.866   9.559 -0.1213 -0.0091  0.0516
    5BIM    C2039581   7.042   4.989   9.534 -0.0714 -0.0317  0.0396
    5BIM    C2139582   6.960   5.091   9.460 -0.1276  0.0794  0.2534
    5BIM    C2239583   7.044   5.212   9.450 -0.0511  0.0207  0.1795
    5BIM    C2339584   7.011   5.333   9.390 -0.0669  0.0850  0.3166
    5BIM    C2439585   7.107   5.434   9.393  0.0174  0.0085  0.2073
    5BIM    C2539586   7.231   5.413   9.455  0.1145 -0.1279 -0.0317
    5BIM    C2639587   7.264   5.292   9.515  0.1308 -0.1926 -0.1695
    5BIM    C2739588   7.169   5.189   9.513  0.0463 -0.1168 -0.0625
    5BIM    C2839589   7.172   5.051   9.567  0.0376 -0.1547 -0.1577
    5BIM    C2939590   7.277   4.992   9.635  0.1156 -0.2797 -0.3853
    5BIM    C3039591   7.400   5.060   9.662  0.2190 -0.3929 -0.5648
    5BIM    C3139592   7.271   4.858   9.683  0.1000 -0.3066 -0.4615
    1BTD     S239593   5.347   2.275   6.035  0.0582 -0.2468  0.0220
    1BTD     N139594   5.464   2.194   6.145 -0.1343 -0.0743  0.3555
    1BTD     N239595   5.433   2.433   6.036  0.2445 -0.3418 -0.3543
    1BTD     N339596   5.818   2.610   6.238  0.2766 -0.2241 -0.5184
    1BTD     N439597   5.857   2.316   6.372 -0.1904  0.1056  0.3561
    1BTD     C539598   5.669   2.261   6.262 -0.1580  0.0156  0.3453
    1BTD     C639599   5.556   2.285   6.176 -0.0540 -0.0954  0.1783
    1BTD     C739600   5.539   2.419   6.115  0.1580 -0.2451 -0.2187
    1BTD     C839601   5.634   2.522   6.143  0.2557 -0.2764 -0.4294
    1BTD    C1539602   5.743   2.494   6.228  0.1479 -0.1643 -0.2546
    1BTD    C1639603   5.760   2.366   6.287 -0.0564 -0.0201  0.1283
    1BTD    C4339604   5.952   2.394   6.450 -0.2877  0.5582  0.2570
    1BTD    C4439605   5.946   2.398   6.603 -0.2987  0.7298  0.4360
    1BTD    C4539606   6.086   2.450   6.651  0.0328  0.1771  0.0788
    1BTD    C4639607   6.215   2.380   6.617  0.3870  0.1142 -0.4045
    1BTD    C4739608   5.824   2.476   6.652 -0.1838 -0.7249 -0.6850
    1BTD    C4839609   5.810   2.511   6.798  0.0577 -0.0717  0.2219
    1BTD    C4939610   5.679   2.573   6.820  0.2017 -0.2323 -0.0224
    1BTD    C5039611   5.609   2.573   6.957  0.0914 -0.3616  1.0539
    1BTD    C7539612   5.963   2.617   6.209  0.4759 -0.2468  0.3597
    1BTD    C7639613   6.043   2.744   6.246 -0.1765 -0.2915  0.4985
    1BTD    C7739614   6.166   2.749   6.148  0.3741 -0.3782 -0.8772
    1BTD    C7839615   6.268   2.644   6.175 -0.0655 -0.0626  0.0761
    1BTD    C7939616   6.068   2.760   6.396  0.0500  0.0249  0.5385
    1BTD    C8039617   6.109   2.900   6.445  0.2722  0.2066  0.3108
    1BTD    C8139618   6.104   2.906   6.598  0.0750  0.5176 -0.2729
    1BTD    C8239619   6.118   3.041   6.662  0.2542 -0.2072  1.5890
    2TTP     S139620   5.683   1.968   6.347  0.1743  0.1403 -0.2092
    2TTP     S539621   6.051   2.047   6.554  0.2630 -0.1012 -0.2753
    2TTP     C139622   6.011   1.870   6.572  0.1129 -0.0603 -0.2066
    2TTP     C239623   5.895   1.835   6.509  0.0767  0.0166 -0.1822
    2TTP     C339624   5.833   1.947   6.445  0.1662  0.0461 -0.2170
    2TTP     C439625   5.723   2.145   6.329  0.3244  0.0994 -0.2780
    2TTP    C1739626   5.839   2.179   6.392  0.3606  0.0224 -0.3025
    2TTP    C1839627   5.901   2.068   6.457  0.2712 -0.0070 -0.2679
    2TTP    C3239628   5.831   1.696   6.486 -0.2802 -0.4336 -0.4825
    2TTP    C3339629   5.686   1.684   6.538 -0.0847  0.4471  0.5968
    2TTP    C3439630   5.634   1.544   6.564  0.0063  0.0568  0.0887
    2TTP    C3539631   5.601   1.456   6.443 -0.0356  0.6245 -0.2497
    2TTP    C3639632   5.537   1.319   6.478 -0.4115  0.0300  0.1700
    2TTP    C3739633   5.530   1.257   6.343 -0.6735  0.3457  0.8458
    2TTP    C3839634   5.477   1.112   6.332 -0.2806  0.0372 -0.8821
    2TTP    C3939635   5.446   1.070   6.194 -0.5084 -0.3197  0.0244
    2TTP    C4039636   5.420   0.924   6.203  0.1523 -0.2288 -0.0104
    2TTP    C4139637   5.393   0.868   6.060 -0.0403 -0.8503 -0.9206
    2TTP    C4239638   5.388   0.718   6.054 -0.3744  0.0184 -0.3554
    3TTP     S139639   5.508   2.770   6.071  0.2588 -0.1878 -0.0858
    3TTP     S539640   5.782   2.973   6.334  0.1369 -0.1345  0.0002
    3TTP     C139641   5.646   3.086   6.293  0.2405 -0.0865 -0.2183
    3TTP     C239642   5.553   3.030   6.210  0.2843 -0.1002 -0.2577
    3TTP     C339643   5.587   2.896   6.175  0.2376 -0.1490 -0.1168
    3TTP     C439644   5.645   2.657   6.111  0.1551 -0.2358  0.1327
    3TTP    C1739645   5.737   2.713   6.195  0.1114 -0.2221  0.1721
    3TTP    C1839646   5.704   2.847   6.230  0.1581 -0.1733  0.0314
    3TTP    C3239647   5.424   3.099   6.159  0.3857  0.4925 -0.6826
    3TTP    C3339648   5.429   3.124   6.009  0.0489 -0.0644 -0.1909
    3TTP    C3439649   5.543   3.201   5.951 -0.2660 -0.3289  0.7024
    3TTP    C3539650   5.520   3.246   5.806 -0.1736  0.1982 -1.0572
    3TTP    C3639651   5.630   3.335   5.742 -0.2760 -1.0349 -0.1069
    3TTP    C3739652   5.604   3.375   5.597 -0.5835 -0.4063  0.1584
    3TTP    C3839653   5.702   3.469   5.528 -0.3522  0.3850  0.4063
    3TTP    C3939654   5.710   3.613   5.568  0.2809 -0.9281  0.1008
    3TTP    C4039655   5.798   3.693   5.473 -0.4688  0.1211 -0.7482
    3TTP    C4139656   5.780   3.849   5.485  0.0926  0.0916  0.4131
    3TTP    C4239657   5.890   3.921   5.413  0.5862  0.0638 -0.1306
    4BIM     F139658   6.717   1.858   6.992 -0.0308 -0.0379  0.3780
    4BIM     F239659   6.662   1.602   7.066  0.0957 -0.1966 -0.0679
    4BIM     O139660   6.286   1.971   6.685 -0.0678  0.2711  0.5440
    4BIM     N539661   6.275   1.315   6.954  0.2513 -0.2043 -0.5913
    4BIM     N639662   5.949   1.455   6.699  0.1967  0.0691 -0.3717
    4BIM    C1939663   6.080   1.767   6.647  0.0398  0.2294  0.1765
    4BIM    C2039664   6.191   1.749   6.721  0.0442  0.1578  0.1523
    4BIM    C2139665   6.292   1.858   6.736 -0.0134  0.1852  0.3492
    4BIM    C2239666   6.399   1.805   6.823  0.0080  0.0902  0.2648
    4BIM    C2339667   6.515   1.870   6.865 -0.0285  0.0775  0.3853
    4BIM    C2439668   6.601   1.800   6.947  0.0024 -0.0199  0.2690
    4BIM    C2539669   6.572   1.668   6.985  0.0677 -0.1015  0.0393
    4BIM    C2639670   6.457   1.602   6.943  0.1043 -0.0893 -0.0823
    4BIM    C2739671   6.368   1.672   6.860  0.0739  0.0087  0.0327
    4BIM    C2839672   6.239   1.632   6.799  0.0988  0.0470 -0.0457
    4BIM    C2939673   6.176   1.511   6.813  0.1605 -0.0096 -0.2604
    4BIM    C3039674   6.231   1.403   6.891  0.2103 -0.1165 -0.4416
    4BIM    C3139675   6.052   1.481   6.750  0.1800  0.0341 -0.3204
    5BIM     F139676   5.955   3.543   6.903  0.6071  0.1816 -0.5355
    5BIM     F239677   5.788   3.745   6.830 -0.1525 -0.1845  0.1533
    5BIM     O139678   5.824   3.165   6.539  0.7437  0.2959 -0.7037
    5BIM     N539679   5.454   3.766   6.464 -1.1470 -0.6292  1.0237
    5BIM     N639680   5.386   3.429   6.194 -0.8868 -0.4660  0.7534
    5BIM    C1939681   5.618   3.223   6.339  0.0668 -0.0130 -0.1052
    5BIM    C2039682   5.658   3.311   6.434  0.0621 -0.0275 -0.0900
    5BIM    C2139683   5.764   3.273   6.533  0.4220  0.1377 -0.4088
    5BIM    C2239684   5.782   3.390   6.621  0.3160  0.0740 -0.3014
    5BIM    C2339685   5.870   3.403   6.728  0.5540  0.1779 -0.5071
    5BIM    C2439686   5.870   3.524   6.796  0.3884  0.0872 -0.3473
    5BIM    C2539687   5.784   3.628   6.758 -0.0029 -0.1013  0.0076
    5BIM    C2639688   5.696   3.615   6.652 -0.2419 -0.2058  0.2146
    5BIM    C2739689   5.695   3.494   6.581 -0.0795 -0.1165  0.0573
    5BIM    C2839690   5.615   3.449   6.464 -0.2512 -0.1864  0.2012
    5BIM    C2939691   5.519   3.522   6.398 -0.6285 -0.3644  0.5399
    5BIM    C3039692   5.484   3.656   6.435 -0.9121 -0.5093  0.8047
    5BIM    C3139693   5.446   3.471   6.286 -0.7684 -0.4192  0.6554
    1BTD     S239694   1.362   3.735   9.133  0.1492  0.0218 -0.0910
    1BTD     N139695   1.219   3.629   9.107  0.0359  0.1157  0.1445
    1BTD     N239696   1.289   3.877   9.051  0.2344 -0.0292 -0.2556
    1BTD     N339697   0.884   3.978   8.837  0.2032  0.0364 -0.1662
    1BTD     N439698   0.797   3.671   8.906 -0.0414  0.2149  0.3271
    1BTD     C539699   0.999   3.655   9.001 -0.0015  0.1653  0.2339
    1BTD     C639700   1.129   3.702   9.042  0.0658  0.1047  0.0911
    1BTD     C739701   1.169   3.841   9.010  0.1769  0.0236 -0.1330
    1BTD     C839702   1.077   3.926   8.940  0.2152  0.0072 -0.2029
    1BTD    C1539703   0.951   3.876   8.902  0.1464  0.0684 -0.0576
    1BTD    C1639704   0.912   3.742   8.932  0.0394  0.1465  0.1583
    1BTD    C4339705   0.661   3.735   8.888 -0.3871 -0.1432 -0.0828
    1BTD    C4439706   0.560   3.671   8.783  0.0771 -1.4262 -0.9957
    1BTD    C4539707   0.623   3.658   8.645  0.1792  0.4829  0.0301
    1BTD    C4639708   0.541   3.577   8.537  0.5711 -0.2348 -0.7551
    1BTD    C4739709   0.427   3.747   8.781 -0.0122 -0.2128 -0.0331
    1BTD    C4839710   0.355   3.768   8.918 -0.7763  0.6153  0.2909
    1BTD    C4939711   0.235   3.847   8.912 -0.1988 -0.4746  0.3769
    1BTD    C5039712   0.186   3.887   9.051 -0.3640 -0.0155  0.0611
    1BTD    C7539713   0.806   3.959   8.713  0.1891  0.2823  0.0232
    1BTD    C7639714   0.703   4.059   8.666  0.3837 -0.4738  0.2589
    1BTD    C7739715   0.656   4.036   8.523  0.3371 -0.5536  0.1285
    1BTD    C7839716   0.746   4.059   8.398  0.3320 -0.3117  0.3672
    1BTD    C7939717   0.587   4.066   8.767 -0.7424 -0.1983  0.1521
    1BTD    C8039718   0.478   4.168   8.739  0.7087 -0.2309 -0.3637
    1BTD    C8139719   0.387   4.191   8.859 -0.8785 -0.6422  0.1418
    1BTD    C8239720   0.308   4.325   8.846  0.1182  0.4025 -0.2920
    2TTP     S139721   0.971   3.360   9.071  0.1362  0.0380  0.0462
    2TTP     S539722   0.581   3.359   8.891  0.2152  0.1779 -0.1268
    2TTP     C139723   0.617   3.191   8.952  0.1329  0.1623 -0.1203
    2TTP     C239724   0.740   3.182   9.011  0.1036  0.1182 -0.0668
    2TTP     C339725   0.809   3.306   9.011  0.1452  0.0951 -0.0286
    2TTP     C439726   0.935   3.528   9.010  0.2185  0.0536  0.0398
    2TTP    C1739727   0.812   3.537   8.951  0.2478  0.0977 -0.0140
    2TTP    C1839728   0.742   3.412   8.952  0.2062  0.1208 -0.0520
    2TTP    C3239729   0.817   3.056   9.059 -0.3426  0.0175 -0.3641
    2TTP    C3339730   0.856   3.072   9.206 -0.9209  0.4487 -0.4612
    2TTP    C3439731   0.934   2.947   9.250  0.0347 -0.2044 -0.5928
    2TTP    C3539732   0.986   2.935   9.390 -0.5491  0.1923 -0.7219
    2TTP    C3639733   1.007   2.793   9.448  0.1293  0.0299 -0.5178
    2TTP    C3739734   0.888   2.698   9.462 -0.4336 -0.2146  0.0741
    2TTP    C3839735   0.931   2.547   9.459 -0.4576 -0.1327 -0.0299
    2TTP    C3939736   0.835   2.440   9.505 -0.0880  0.0963  1.0813
    2TTP    C4039737   0.691   2.423   9.445  0.2648 -0.4500  0.4691
    2TTP    C4139738   0.668   2.402   9.292 -0.2966 -0.1750 -0.2195
    2TTP    C4239739   0.527   2.409   9.235  0.7340  0.2181 -0.3179
    3TTP     S139740   1.195   4.210   8.908  0.2102 -0.0622 -0.1716
    3TTP     S539741   0.813   4.337   8.756 -0.0262  0.0829  0.5393
    3TTP     C139742   0.921   4.483   8.771  0.1034  0.0217  0.2075
    3TTP     C239743   1.046   4.452   8.818  0.1840 -0.0266 -0.0319
    3TTP     C339744   1.060   4.312   8.845  0.1463 -0.0172  0.0389
    3TTP     C439745   1.087   4.064   8.893  0.0805 -0.0011  0.1605
    3TTP    C1739746   0.963   4.095   8.845 -0.0001  0.0474  0.3999
    3TTP    C1839747   0.948   4.235   8.819  0.0376  0.0379  0.3293
    3TTP    C3239748   1.176   4.533   8.847 -0.0103  0.1819  0.3252
    3TTP    C3339749   1.179   4.643   8.953 -0.0660 -0.2124  0.4053
    3TTP    C3439750   1.161   4.615   9.103  0.2549 -0.1086 -0.3216
    3TTP    C3539751   1.043   4.538   9.159  0.8066  0.3525 -0.5848
    3TTP    C3639752   0.912   4.614   9.167 -0.5917  1.3176  0.3460
    3TTP    C3739753   0.780   4.544   9.186 -0.5052  0.1928  0.0648
    3TTP    C3839754   0.659   4.637   9.165 -0.3240 -0.4392  0.4234
    3TTP    C3939755   0.526   4.561   9.175 -0.0357 -0.4300  0.1461
    3TTP    C4039756   0.398   4.642   9.160 -0.4809 -0.0686  0.1239
    3TTP    C4139757   0.277   4.576   9.229 -0.2418 -0.4665  1.1123
    3TTP    C4239758   0.151   4.662   9.196 -0.4657 -0.3524  0.2987
    4BIM     F139759  -0.144   3.040   8.672  0.1423  0.1827 -0.0145
    4BIM     F239760  -0.120   2.784   8.759  0.0169  0.1271 -0.1416
    4BIM     O139761   0.335   3.245   8.820  0.1776 -0.0800  0.2351
    4BIM     N539762   0.256   2.561   8.992 -0.1382 -0.1401 -0.1450
    4BIM     N639763   0.625   2.773   9.090 -0.0854 -0.3342  0.0758
    4BIM    C1939764   0.528   3.073   8.957  0.0703 -0.2266  0.2033
    4BIM    C2039765   0.407   3.031   8.916  0.0664 -0.1582  0.1450
    4BIM    C2139766   0.313   3.126   8.846  0.1236 -0.0854  0.1662
    4BIM    C2239767   0.191   3.049   8.816  0.1029 -0.0224  0.0896
    4BIM    C2339768   0.076   3.094   8.752  0.1393  0.0558  0.0787
    4BIM    C2439769  -0.027   3.003   8.734  0.1091  0.1048  0.0003
    4BIM    C2539770  -0.015   2.871   8.780  0.0445  0.0760 -0.0651
    4BIM    C2639771   0.100   2.825   8.844  0.0079 -0.0020 -0.0541
    4BIM    C2739772   0.205   2.916   8.862  0.0376 -0.0524  0.0248
    4BIM    C2839773   0.338   2.900   8.926  0.0126 -0.1370  0.0560
    4BIM    C2939774   0.389   2.785   8.982 -0.0487 -0.1863  0.0114
    4BIM    C3039775   0.316   2.662   8.987 -0.0977 -0.1608 -0.0744
    4BIM    C3139776   0.519   2.779   9.041 -0.0686 -0.2674  0.0474
    5BIM     F139777   0.202   4.851   8.647  0.0048 -0.3214  0.0806
    5BIM     F239778   0.335   5.059   8.532 -0.1106  0.1212  0.7362
    5BIM     O139779   0.614   4.532   8.792  0.2057 -0.3278 -0.4950
    5BIM     N539780   0.821   5.130   8.471 -0.1335  0.7533  1.2686
    5BIM     N639781   1.117   4.839   8.608  0.0467  0.6591  0.6866
    5BIM    C1939782   0.888   4.617   8.735  0.1667  0.0930 -0.0734
    5BIM    C2039783   0.779   4.690   8.702  0.1207  0.0771  0.0458
    5BIM    C2139784   0.642   4.639   8.735  0.1447 -0.1451 -0.1867
    5BIM    C2239785   0.547   4.741   8.687  0.0819 -0.1025  0.0236
    5BIM    C2339786   0.408   4.739   8.695  0.0780 -0.2575 -0.0799
    5BIM    C2439787   0.339   4.847   8.642  0.0125 -0.1774  0.1655
    5BIM    C2539788   0.408   4.954   8.583 -0.0469  0.0508  0.5033
    5BIM    C2639789   0.547   4.957   8.575 -0.0434  0.2064  0.6080
    5BIM    C2739790   0.618   4.848   8.628  0.0224  0.1285  0.3633
    5BIM    C2839791   0.764   4.821   8.635  0.0439  0.2481  0.3905
    5BIM    C2939792   0.865   4.902   8.588  0.0008  0.4736  0.6795
    5BIM    C3039793   0.840   5.027   8.524 -0.0729  0.6266  1.0026
    5BIM    C3139794   1.003   4.867   8.599  0.0263  0.5744  0.6816
    1BTD     S239795   7.195   0.300   2.723 -0.0085  0.1493  0.2985
    1BTD     N139796   7.338   0.407   2.745 -0.0621  0.1561  0.6278
    1BTD     N239797   7.281   0.151   2.777  0.0762  0.0158 -0.1932
    1BTD     N339798   7.712   0.041   2.926  0.1522 -0.2438 -0.6006
    1BTD     N439799   7.783   0.357   2.887 -0.0181 -0.0710  0.4112
    1BTD     C539800   7.569   0.377   2.819 -0.0371  0.0355  0.5025
    1BTD     C639801   7.437   0.330   2.789 -0.0165  0.0634  0.3678
    1BTD     C739802   7.405   0.187   2.807  0.0610 -0.0152 -0.0918
    1BTD     C839803   7.507   0.097   2.855  0.1138 -0.1177 -0.3936
    1BTD    C1539804   7.635   0.148   2.883  0.0909 -0.1415 -0.2472
    1BTD    C1639805   7.666   0.286   2.866  0.0165 -0.0658  0.1956
    1BTD    C4339806   7.919   0.300   2.903 -0.2153 -0.0544 -0.6030
    1BTD    C4439807   8.045   0.365   2.967  0.3463  0.5260  0.2576
    1BTD    C4539808   8.017   0.400   3.110  0.3457  0.6544 -0.3963
    1BTD    C4639809   8.125   0.491   3.180  0.2570  0.4536 -0.1614
    1BTD    C4739810   8.169   0.282   2.934  0.4591 -0.1652  0.0956
    1BTD    C4839811   8.205   0.269   2.786 -0.1230  0.2218 -0.4695
    1BTD    C4939812   8.351   0.230   2.769 -0.7650 -0.1044 -0.6002
    1BTD    C5039813   8.401   0.185   2.626 -0.0534 -0.0689  0.7488
    1BTD    C7539814   7.787   0.053   3.058  0.6394  0.4929  0.2801
    1BTD    C7639815   7.890  -0.048   3.120 -0.1658 -0.7337  0.3408
    1BTD    C7739816   7.889  -0.029   3.268  0.1217  0.3020  0.8179
    1BTD    C7839817   7.945   0.100   3.335 -0.5939  0.2384  0.8715
    1BTD    C7939818   8.034  -0.071   3.059  0.0541 -0.5723 -0.7160
    1BTD    C8039819   8.034  -0.102   2.915 -0.4744 -0.4250  0.3063
    1BTD    C8139820   8.167  -0.149   2.859  0.0728 -0.2967 -0.4683
    1BTD    C8239821   8.154  -0.193   2.717 -0.3883  0.2814  0.5810
    2TTP     S139822   7.584   0.670   2.763 -0.0310  0.1044  0.2001
    2TTP     S539823   8.005   0.661   2.849 -0.0215  0.1062  0.1540
    2TTP     C139824   7.961   0.828   2.791 -0.0527  0.1423  0.2809
    2TTP     C239825   7.828   0.840   2.761 -0.0577  0.1439  0.3026
    2TTP     C339826   7.757   0.719   2.783 -0.0366  0.1166  0.2198
    2TTP     C439827   7.628   0.503   2.821  0.0004  0.0682  0.0733
    2TTP    C1739828   7.760   0.491   2.851  0.0051  0.0667  0.0516
    2TTP    C1839829   7.832   0.612   2.830 -0.0159  0.0940  0.1343
    2TTP    C3239830   7.757   0.960   2.693  0.1642  0.1927 -0.8043
    2TTP    C3339831   7.660   1.027   2.789  0.0299  0.7439  0.2381
    2TTP    C3439832   7.575   1.147   2.735  0.1568 -0.1776 -0.1552
    2TTP    C3539833   7.637   1.283   2.681 -0.1842  0.2857 -0.3864
    2TTP    C3639834   7.715   1.362   2.791  0.0079  0.0206 -0.3286
    2TTP    C3739835   7.804   1.483   2.754  0.8048 -0.1604 -0.2355
    2TTP    C3839836   7.905   1.457   2.640  0.2850 -0.1346  0.1936
    2TTP    C3939837   7.988   1.581   2.591  0.7645  0.3561 -0.7201
    2TTP    C4039838   8.082   1.559   2.473 -0.4293 -0.6366 -0.0460
    2TTP    C4139839   8.016   1.489   2.350  0.0814 -0.7429 -0.0483
    2TTP    C4239840   8.118   1.494   2.240  0.5845  0.0274 -0.0438
    3TTP     S139841   7.391  -0.180   2.850 -0.3228  0.1297  0.1765
    3TTP     S539842   7.777  -0.330   2.966 -0.2900  0.0386 -0.0498
    3TTP     C139843   7.667  -0.471   2.935 -0.3370  0.0645 -0.0019
    3TTP     C239844   7.542  -0.433   2.897 -0.3499  0.0942  0.0707
    3TTP     C339845   7.528  -0.291   2.892 -0.3231  0.0975  0.0912
    3TTP     C439846   7.501  -0.038   2.882 -0.2759  0.1037  0.1286
    3TTP    C1739847   7.627  -0.076   2.919 -0.2630  0.0742  0.0559
    3TTP    C1839848   7.641  -0.219   2.925 -0.2897  0.0708  0.0354
    3TTP    C3239849   7.423  -0.521   2.859 -0.5510 -0.0316  0.7772
    3TTP    C3339850   7.286  -0.507   2.922  0.3073 -0.1221  0.1374
    3TTP    C3439851   7.184  -0.608   2.877 -0.3983 -0.1438  0.0839
    3TTP    C3539852   7.222  -0.764   2.894  0.1679 -0.5528  0.0804
    3TTP    C3639853   7.107  -0.860   2.852  0.5255  0.4525 -0.4074
    3TTP    C3739854   7.159  -1.008   2.866 -0.4675  0.5648 -0.3074
    3TTP    C3839855   7.049  -1.103   2.824  0.1559 -0.4507 -0.3261
    3TTP    C3939856   7.091  -1.243   2.845  1.0433  0.0813  0.1692
    3TTP    C4039857   6.968  -1.326   2.788 -0.2150 -0.3711 -0.2661
    3TTP    C4139858   6.966  -1.476   2.817  0.0737 -0.2387 -0.4318
    3TTP    C4239859   6.873  -1.553   2.727  0.2506  0.1015 -0.0735
    4BIM     F139860   8.690   1.066   3.092  0.0713  0.0824  0.1937
    4BIM     F239861   8.700   1.256   2.898  0.1485 -0.0283  0.0894
    4BIM     O139862   8.206   0.844   2.994  0.0093  0.1812  0.2745
    4BIM     N539863   8.370   1.370   2.547  0.2153 -0.1172 -0.0026
    4BIM     N639864   7.990   1.158   2.509  0.1515 -0.0177  0.0816
    4BIM    C1939865   8.044   0.946   2.772  0.0608  0.1104  0.2038
    4BIM    C2039866   8.165   0.995   2.805  0.0734  0.0899  0.1875
    4BIM    C2139867   8.243   0.937   2.920  0.0453  0.1290  0.2263
    4BIM    C2239868   8.369   1.012   2.928  0.0682  0.0931  0.1956
    4BIM    C2339869   8.473   0.995   3.018  0.0548  0.1102  0.2144
    4BIM    C2439870   8.583   1.078   3.006  0.0827  0.0684  0.1777
    4BIM    C2539871   8.588   1.176   2.905  0.1222  0.0114  0.1242
    4BIM    C2639872   8.485   1.194   2.815  0.1361 -0.0060  0.1051
    4BIM    C2739873   8.373   1.110   2.826  0.1085  0.0357  0.1415
    4BIM    C2839874   8.247   1.103   2.746  0.1132  0.0315  0.1344
    4BIM    C2939875   8.214   1.183   2.639  0.1478 -0.0173  0.0877
    4BIM    C3039876   8.300   1.286   2.589  0.1848 -0.0721  0.0382
    4BIM    C3139877   8.091   1.169   2.568  0.1497 -0.0172  0.0846
    5BIM     F139878   8.366  -0.862   2.769  0.0696  0.2141 -0.1072
    5BIM     F239879   8.257  -1.089   2.872  0.2718  0.1705  0.0080
    5BIM     O139880   7.950  -0.519   2.817 -0.1798 -0.0849 -0.1230
    5BIM     N539881   7.805  -1.171   3.056  0.3842 -0.1054  0.1625
    5BIM     N639882   7.502  -0.857   3.072  0.1484 -0.3302  0.1270
    5BIM    C1939883   7.698  -0.614   2.933 -0.0755 -0.2329 -0.0185
    5BIM    C2039884   7.807  -0.691   2.917 -0.0206 -0.1559 -0.0190
    5BIM    C2139885   7.933  -0.635   2.856 -0.0800 -0.0830 -0.0744
    5BIM    C2239886   8.031  -0.746   2.853  0.0033 -0.0093 -0.0596
    5BIM    C2339887   8.162  -0.742   2.806 -0.0122  0.0730 -0.0968
    5BIM    C2439888   8.235  -0.859   2.814  0.0794  0.1320 -0.0728
    5BIM    C2539889   8.179  -0.976   2.867  0.1831  0.1091 -0.0134
    5BIM    C2639890   8.049  -0.980   2.915  0.1998  0.0277  0.0238
    5BIM    C2739891   7.973  -0.863   2.908  0.1078 -0.0331  0.0004
    5BIM    C2839892   7.833  -0.834   2.949  0.0970 -0.1242  0.0278
    5BIM    C2939893   7.745  -0.923   3.006  0.1805 -0.1700  0.0854
    5BIM    C3039894   7.778  -1.059   3.033  0.2922 -0.1345  0.1276
    5BIM    C3139895   7.611  -0.886   3.042  0.1624 -0.2577  0.1079
    1BTD     S239896   3.580   6.748   8.099  0.0501 -0.2082 -0.1003
    1BTD     N139897   3.742   6.674   8.125  0.1041 -0.1229 -0.1931
    1BTD     N239898   3.631   6.914   8.146 -0.0280 -0.1956 -0.0584
    1BTD     N339899   4.029   7.118   8.290 -0.0899 -0.0165 -0.1416
    1BTD     N439900   4.165   6.823   8.264  0.0730  0.0731 -0.3078
    1BTD     C539901   3.961   6.756   8.198  0.0858 -0.0217 -0.2506
    1BTD     C639902   3.822   6.772   8.165  0.0631 -0.0912 -0.1886
    1BTD     C739903   3.760   6.906   8.177 -0.0108 -0.1320 -0.1135
    1BTD     C839904   3.841   7.017   8.221 -0.0584 -0.1010 -0.1040
    1BTD    C1539905   3.976   6.996   8.251 -0.0338 -0.0327 -0.1664
    1BTD    C1639906   4.036   6.867   8.240  0.0373  0.0063 -0.2393
    1BTD    C4339907   4.288   6.891   8.231 -0.1076 -0.2448 -0.2971
    1BTD    C4439908   4.426   6.860   8.289 -0.3305 -1.0844 -0.0642
    1BTD    C4539909   4.425   6.872   8.443 -0.4566  0.1047  0.1275
    1BTD    C4639910   4.561   6.835   8.502 -0.4416  0.2329 -0.1999
    1BTD    C4739911   4.531   6.929   8.202 -0.5840 -0.1062 -0.2839
    1BTD    C4839912   4.565   7.077   8.209  0.5756  0.1639 -0.0980
    1BTD    C4939913   4.649   7.125   8.322  0.1755  0.0018  0.2965
    1BTD    C5039914   4.682   7.271   8.309 -0.7801 -0.2696  0.2981
    1BTD    C7539915   4.152   7.129   8.370  0.0015 -0.0813 -0.2685
    1BTD    C7639916   4.221   7.263   8.397 -0.1231 -0.4499 -0.2767
    1BTD    C7739917   4.270   7.323   8.262  0.0841 -0.3971 -0.1134
    1BTD    C7839918   4.311   7.469   8.245 -0.4417 -0.4938  0.5231
    1BTD    C7939919   4.332   7.263   8.503 -0.2745 -0.5252  0.2833
    1BTD    C8039920   4.293   7.215   8.647 -0.6273  0.3909 -0.1065
    1BTD    C8139921   4.401   7.206   8.759  0.1533 -0.2195  1.0928
    1BTD    C8239922   4.506   7.310   8.769 -0.0782 -0.7020 -0.2305
    2TTP     S139923   4.026   6.477   8.135 -0.0587  0.0861 -0.2541
    2TTP     S539924   4.410   6.533   8.322 -0.1001 -0.1384 -0.1006
    2TTP     C139925   4.390   6.357   8.282 -0.0604 -0.0795 -0.3848
    2TTP     C239926   4.270   6.329   8.222 -0.0454 -0.0068 -0.4492
    2TTP     C339927   4.190   6.446   8.205 -0.0644  0.0051 -0.2759
    2TTP     C439928   4.046   6.654   8.175 -0.0983  0.0272  0.0305
    2TTP    C1739929   4.165   6.681   8.235 -0.1134 -0.0456  0.0946
    2TTP    C1839930   4.246   6.564   8.252 -0.0943 -0.0575 -0.0784
    2TTP    C3239931   4.227   6.189   8.172 -0.4123  0.3965 -0.1483
    2TTP    C3339932   4.086   6.143   8.151  0.0666 -0.0708  0.0580
    2TTP    C3439933   4.069   6.017   8.077 -0.2959  0.2491  0.0537
    2TTP    C3539934   3.928   5.974   8.066  0.2995  0.3650  0.2637
    2TTP    C3639935   3.905   5.828   8.021  0.1519 -0.0721  0.0354
    2TTP    C3739936   3.765   5.807   7.973  0.4610 -0.0090 -0.7555
    2TTP    C3839937   3.663   5.795   8.088 -0.2905 -0.2554  0.3371
    2TTP    C3939938   3.523   5.767   8.037  0.5057 -0.4841 -0.0307
    2TTP    C4039939   3.502   5.635   7.952  0.0805 -0.5977 -0.5473
    2TTP    C4139940   3.365   5.613   7.891 -0.8199  0.2570 -0.2826
    2TTP    C4239941   3.362   5.504   7.789 -0.2019 -0.0556  0.1217
    3TTP     S139942   3.665   7.263   8.236 -0.0741  0.1171  0.0424
    3TTP     S539943   4.005   7.495   8.357 -0.1534  0.5202 -0.4995
    3TTP     C139944   3.862   7.606   8.341 -0.2875  0.3678 -0.3700
    3TTP     C239945   3.749   7.541   8.303 -0.2709  0.2341 -0.1950
    3TTP     C339946   3.770   7.401   8.285 -0.1517  0.2477 -0.1571
    3TTP     C439947   3.808   7.152   8.252  0.0600  0.2695 -0.0873
    3TTP    C1739948   3.921   7.217   8.290  0.0434  0.4032 -0.2621
    3TTP    C1839949   3.900   7.357   8.309 -0.0758  0.3898 -0.3004
    3TTP    C3239950   3.611   7.596   8.285  0.7856 -0.5615  0.0721
    3TTP    C3339951   3.519   7.584   8.409 -0.9640 -0.0087  0.7554
    3TTP    C3439952   3.391   7.659   8.370 -0.1628 -0.6990 -0.2357
    3TTP    C3539953   3.308   7.670   8.496  0.6662 -0.2153 -0.5223
    3TTP    C3639954   3.177   7.745   8.468  0.3769 -0.2216  0.1367
    3TTP    C3739955   3.095   7.761   8.601 -0.4700  0.1281 -0.0287
    3TTP    C3839956   2.981   7.867   8.594 -0.1363 -0.5453 -0.3180
    3TTP    C3939957   2.868   7.855   8.488  0.1729  0.0494  0.6286
    3TTP    C4039958   2.787   7.722   8.481 -0.6548  0.1401 -0.0750
    3TTP    C4139959   2.700   7.679   8.365 -0.1508  0.6333  0.0782
    3TTP    C4239960   2.754   7.677   8.226 -0.6219  0.2552 -0.5412
    4BIM     F139961   5.157   6.345   8.585  0.1427 -0.0273 -0.3068
    4BIM     F239962   5.163   6.077   8.540 -0.1905 -0.1419  0.3009
    4BIM     O139963   4.661   6.468   8.407  0.3197  0.2000 -0.6454
    4BIM     N539964   4.818   5.779   8.347 -0.5435 -0.1450  0.9332
    4BIM     N639965   4.429   5.929   8.217 -0.3382  0.0558  0.5460
    4BIM    C1939966   4.490   6.256   8.301  0.0641  0.1711 -0.1852
    4BIM    C2039967   4.615   6.235   8.347  0.0327  0.1184 -0.1237
    4BIM    C2139968   4.696   6.350   8.400  0.1706  0.1377 -0.3726
    4BIM    C2239969   4.826   6.293   8.442  0.0939  0.0679 -0.2284
    4BIM    C2339970   4.934   6.360   8.498  0.1723  0.0579 -0.3676
    4BIM    C2439971   5.046   6.285   8.530  0.0735 -0.0132 -0.1841
    4BIM    C2539972   5.049   6.147   8.506 -0.0983 -0.0724  0.1291
    4BIM    C2639973   4.942   6.079   8.451 -0.1773 -0.0627  0.2694
    4BIM    C2739974   4.827   6.153   8.418 -0.0794  0.0089  0.0873
    4BIM    C2839975   4.698   6.112   8.358 -0.1236  0.0377  0.1638
    4BIM    C2939976   4.661   5.985   8.321 -0.2800 -0.0029  0.4475
    4BIM    C3039977   4.748   5.872   8.335 -0.4244 -0.0809  0.7136
    4BIM    C3139978   4.534   5.955   8.264 -0.3110  0.0297  0.5002
    5BIM     F139979   4.434   8.181   8.463  0.0343  0.0529 -0.2346
    5BIM     F239980   4.244   8.371   8.418 -0.0515 -0.0048 -0.1202
    5BIM     O139981   4.142   7.728   8.406  0.1674 -0.0385 -0.1884
    5BIM     N539982   3.763   8.321   8.312 -0.0803 -0.1531  0.0768
    5BIM     N639983   3.573   7.929   8.277  0.0409 -0.2128  0.0899
    5BIM    C1939984   3.857   7.749   8.343  0.1325 -0.1262 -0.0631
    5BIM    C2039985   3.938   7.855   8.359  0.1024 -0.1009 -0.0792
    5BIM    C2139986   4.083   7.837   8.391  0.1231 -0.0563 -0.1447
    5BIM    C2239987   4.141   7.972   8.402  0.0807 -0.0378 -0.1459
    5BIM    C2339988   4.273   8.006   8.431  0.0814  0.0029 -0.1965
    5BIM    C2439989   4.305   8.141   8.435  0.0363  0.0132 -0.1864
    5BIM    C2539990   4.207   8.238   8.412 -0.0077 -0.0169 -0.1275
    5BIM    C2639991   4.075   8.205   8.383 -0.0088 -0.0575 -0.0768
    5BIM    C2739992   4.041   8.069   8.378  0.0362 -0.0682 -0.0861
    5BIM    C2839993   3.912   8.001   8.350  0.0480 -0.1082 -0.0427
    5BIM    C2939994   3.792   8.062   8.323  0.0145 -0.1452  0.0193
    5BIM    C3039995   3.776   8.204   8.317 -0.0375 -0.1493  0.0505
    5BIM    C3139996   3.672   7.988   8.298  0.0292 -0.1822  0.0577
    1BTD     S239997   0.289   3.042   0.242 -0.1289 -0.0578 -0.1173
    1BTD     N139998   0.410   3.011   0.371  0.1847 -0.2227 -0.4469
    1BTD     N239999   0.339   3.213   0.216 -0.3483  0.0476  0.1366
    1BTD     N340000   0.660   3.504   0.395 -0.2293 -0.0353  0.0588
    1BTD     N440001   0.747   3.256   0.587  0.4275 -0.3684 -0.6602
    1BTD     C540002   0.585   3.142   0.482  0.3036 -0.2947 -0.5496
    1BTD     C640003   0.478   3.124   0.387  0.1134 -0.1923 -0.3555
    1BTD     C740004   0.438   3.236   0.300 -0.1850 -0.0409 -0.0289
    1BTD     C840005   0.508   3.362   0.312 -0.2783  0.0003  0.0873
    1BTD    C1540006   0.612   3.375   0.405 -0.0846 -0.1038 -0.1112
    1BTD    C1640007   0.650   3.267   0.489  0.2029 -0.2495 -0.4259
    1BTD    C4340008   0.869   3.343   0.612 -0.0774 -0.1276  0.0661
    1BTD    C4440009   0.991   3.290   0.544  0.0269 -0.3346 -0.0845
    1BTD    C4540010   0.975   3.253   0.395  0.0629  0.5519  0.7654
    1BTD    C4640011   1.046   3.122   0.355  0.0729  0.0828  0.2072
    1BTD    C4740012   1.122   3.346   0.598  0.2363 -0.0913  0.4139
    1BTD    C4840013   1.146   3.493   0.549  0.6635 -0.0747  0.0368
    1BTD    C4940014   1.274   3.544   0.611  0.2788 -0.3811  0.2051
    1BTD    C5040015   1.319   3.684   0.564  0.2144  0.1532  0.2799
    1BTD    C7540016   0.737   3.583   0.491 -0.2194  0.0093  0.1135
    1BTD    C7640017   0.675   3.688   0.579  0.1271 -0.6351 -0.3591
    1BTD    C7740018   0.551   3.643   0.659 -0.0193 -0.1455  0.2315
    1BTD    C7840019   0.480   3.744   0.753  0.2595  0.1511  0.6747
    1BTD    C7940020   0.778   3.769   0.656  0.4658  0.0831 -0.7237
    1BTD    C8040021   0.864   3.858   0.577 -0.4739  0.2719  0.1908
    1BTD    C8140022   0.960   3.941   0.667 -0.2014 -0.2576 -0.0378
    1BTD    C8240023   1.051   4.026   0.590 -0.0172 -0.1109  0.2991
    2TTP     S140024   0.620   2.893   0.658 -0.2120  0.0982 -0.0766
    2TTP     S540025   0.915   3.106   0.887  0.0685  0.1888 -0.5197
    2TTP     C140026   0.886   2.944   0.966  0.0766  0.2678 -0.3537
    2TTP     C240027   0.794   2.869   0.900 -0.0095  0.2444 -0.2071
    2TTP     C340028   0.742   2.936   0.784 -0.0851  0.1633 -0.2206
    2TTP     C440029   0.649   3.054   0.579 -0.2202  0.0192 -0.2427
    2TTP    C1740030   0.742   3.130   0.645 -0.1340  0.0427 -0.3893
    2TTP    C1840031   0.793   3.062   0.761 -0.0585  0.1237 -0.3758
    2TTP    C3240032   0.724   2.734   0.939 -0.6717  0.2081 -0.1220
    2TTP    C3340033   0.763   2.598   0.860 -0.2140 -0.9839 -0.9911
    2TTP    C3440034   0.917   2.568   0.853  0.4298 -0.3718  0.0298
    2TTP    C3540035   0.992   2.524   0.984 -0.3248  0.2578 -0.3507
    2TTP    C3640036   0.990   2.379   1.045 -0.9759 -0.5346 -0.0361
    2TTP    C3740037   0.856   2.341   1.092 -0.1309 -0.3367 -0.3029
    2TTP    C3840038   0.859   2.203   1.151 -0.2986 -0.0102 -0.0226
    2TTP    C3940039   0.723   2.156   1.188  0.2255 -0.2508 -0.5211
    2TTP    C4040040   0.730   2.018   1.250  0.4034 -0.0737 -0.5062
    2TTP    C4140041   0.591   1.983   1.307 -0.2597  0.2539 -0.3407
    2TTP    C4240042   0.588   1.854   1.386  0.0882  0.6771 -0.3093
    3TTP     S140043   0.396   3.569   0.114 -0.1180 -0.0341  0.0210
    3TTP     S540044   0.718   3.834   0.221 -0.0330 -0.1040 -0.0614
    3TTP     C140045   0.616   3.914   0.093 -0.0158 -0.1050 -0.0757
    3TTP     C240046   0.511   3.837   0.053 -0.0410 -0.0834 -0.0511
    3TTP     C340047   0.507   3.712   0.121 -0.0748 -0.0654 -0.0201
    3TTP     C440048   0.498   3.488   0.242 -0.1352 -0.0331  0.0354
    3TTP    C1740049   0.603   3.565   0.282 -0.1100 -0.0547  0.0108
    3TTP    C1840050   0.608   3.691   0.214 -0.0761 -0.0727 -0.0203
    3TTP    C3240051   0.398   3.875  -0.041 -0.1746 -0.0082  0.2082
    3TTP    C3340052   0.271   3.908   0.041  0.6949 -0.1618 -0.5076
    3TTP    C3440053   0.165   3.983  -0.040 -0.1514 -0.2671  0.2882
    3TTP    C3540054   0.027   4.005   0.028  0.0505 -0.1582  0.4229
    3TTP    C3640055  -0.065   3.879   0.030  0.3663 -0.2770 -0.1405
    3TTP    C3740056  -0.219   3.901   0.043  0.0018 -0.2019  0.2179
    3TTP    C3840057  -0.265   3.978   0.162  0.4980 -0.4567  0.2511
    3TTP    C3940058  -0.418   3.968   0.169 -0.0441  0.2521 -0.7742
    3TTP    C4040059  -0.497   4.041   0.279 -0.0950  0.2187 -0.0432
    3TTP    C4140060  -0.456   4.013   0.421  0.2942 -0.0401  0.2962
    3TTP    C4240061  -0.475   3.870   0.478  0.1709  0.0401  0.3710
    4BIM     F140062   1.563   3.163   1.382  0.0814  0.3529 -0.2654
    4BIM     F240063   1.505   2.970   1.566  0.1870  0.4526 -0.1269
    4BIM     O140064   1.150   3.103   1.037 -0.0415  0.0703 -0.0703
    4BIM     N540065   1.127   2.651   1.583  0.2512  0.3943  0.2114
    4BIM     N640066   0.816   2.643   1.276  0.1339  0.1534  0.3359
    4BIM    C1940067   0.948   2.898   1.089  0.0157  0.0650  0.1314
    4BIM    C2040068   1.054   2.920   1.169  0.0425  0.1322  0.0769
    4BIM    C2140069   1.154   3.028   1.135  0.0103  0.1301 -0.0263
    4BIM    C2240070   1.255   3.025   1.242  0.0519  0.2127 -0.0641
    4BIM    C2340071   1.368   3.107   1.254  0.0420  0.2405 -0.1565
    4BIM    C2440072   1.450   3.086   1.364  0.0882  0.3214 -0.1755
    4BIM    C2540073   1.420   2.987   1.458  0.1426  0.3727 -0.1040
    4BIM    C2640074   1.308   2.905   1.447  0.1528  0.3454 -0.0117
    4BIM    C2740075   1.224   2.925   1.336  0.1065  0.2637  0.0089
    4BIM    C2840076   1.099   2.856   1.295  0.1029  0.2161  0.0984
    4BIM    C2940077   1.036   2.753   1.362  0.1471  0.2447  0.1847
    4BIM    C3040078   1.087   2.697   1.483  0.2041  0.3268  0.1990
    4BIM    C3140079   0.916   2.693   1.314  0.1395  0.1943  0.2674
    5BIM     F140080   1.250   4.431   0.113  0.0147  0.0961  0.3434
    5BIM     F240081   1.078   4.634   0.059  0.0512  0.1013  0.2470
    5BIM     O140082   0.913   4.007   0.103  0.0179  0.0993  0.1010
    5BIM     N540083   0.591   4.625  -0.028  0.1059  0.1111 -0.0641
    5BIM     N640084   0.362   4.253  -0.025  0.1011  0.1127 -0.2340
    5BIM    C1940085   0.629   4.051   0.046  0.0539  0.1056 -0.0770
    5BIM    C2040086   0.721   4.150   0.051  0.0517  0.1044 -0.0123
    5BIM    C2140087   0.865   4.119   0.081  0.0327  0.1012  0.0776
    5BIM    C2240088   0.936   4.248   0.079  0.0353  0.1009  0.1316
    5BIM    C2340089   1.072   4.270   0.100  0.0217  0.0982  0.2195
    5BIM    C2440090   1.117   4.401   0.093  0.0275  0.0984  0.2567
    5BIM    C2540091   1.028   4.506   0.065  0.0462  0.1011  0.2070
    5BIM    C2640092   0.892   4.485   0.043  0.0599  0.1037  0.1190
    5BIM    C2740093   0.845   4.353   0.050  0.0543  0.1036  0.0804
    5BIM    C2840094   0.709   4.296   0.032  0.0651  0.1060 -0.0100
    5BIM    C2940095   0.595   4.367   0.003  0.0840  0.1090 -0.0784
    5BIM    C3040096   0.593   4.509  -0.014  0.0960  0.1101 -0.0703
    5BIM    C3140097   0.467   4.304  -0.012  0.0933  0.1110 -0.1636
    1BTD     S240098   4.622   5.256   4.528 -0.2706  0.0621 -0.2114
    1BTD     N140099   4.639   5.113   4.637 -0.1775 -0.1516 -0.5034
    1BTD     N240100   4.797   5.298   4.533 -0.3378  0.3160  0.0730
    1BTD     N340101   5.183   5.127   4.738 -0.3065  0.4481  0.1245
    1BTD     N440102   4.988   4.899   4.866 -0.1091 -0.1281 -0.5858
    1BTD     C540103   4.823   5.004   4.755 -0.1442 -0.1324 -0.5379
    1BTD     C640104   4.767   5.105   4.669 -0.2002 -0.0288 -0.3805
    1BTD     C740105   4.855   5.208   4.611 -0.2899  0.2328 -0.0579
    1BTD     C840106   4.996   5.206   4.642 -0.3192  0.3780  0.0913
    1BTD    C1540107   5.047   5.105   4.726 -0.2620  0.2690 -0.0720
    1BTD    C1640108   4.961   5.006   4.782 -0.1756  0.0166 -0.3827
    1BTD    C4340109   5.120   4.821   4.869  0.3967 -0.8219  0.1443
    1BTD    C4440110   5.152   4.728   4.985  0.7571 -0.1150 -0.4600
    1BTD    C4540111   5.185   4.808   5.115  0.3714  0.3142 -0.5112
    1BTD    C4640112   5.210   4.727   5.237  0.4527 -0.1546 -0.0517
    1BTD    C4740113   5.264   4.631   4.937  0.5225 -0.4339  0.2586
    1BTD    C4840114   5.234   4.540   4.818  0.5993  0.0167  0.1600
    1BTD    C4940115   5.134   4.430   4.852  0.6606  0.0249  0.9786
    1BTD    C5040116   5.039   4.396   4.733  0.4338  0.1872 -0.2169
    1BTD    C7540117   5.265   5.106   4.862 -0.1513  0.7457 -0.2194
    1BTD    C7640118   5.412   5.060   4.875 -0.1338 -0.8572 -0.3531
    1BTD    C7740119   5.476   5.076   5.017  0.0566 -0.2175  0.0156
    1BTD    C7840120   5.467   5.218   5.080  0.0498  0.0555  0.0652
    1BTD    C7940121   5.442   4.937   4.800 -0.5402  0.0952 -0.4948
    1BTD    C8040122   5.590   4.894   4.781  0.5121 -0.3940 -0.5099
    1BTD    C8140123   5.656   4.987   4.689 -0.7489  0.2168 -0.2593
    1BTD    C8240124   5.809   4.980   4.688 -0.2370  0.2068  0.4034
    2TTP     S140125   4.602   4.834   4.842 -0.0202 -0.0184  0.1642
    2TTP     S540126   4.879   4.596   5.068  0.1101 -0.2873 -0.2760
    2TTP     C140127   4.713   4.526   5.088  0.0748 -0.1317 -0.0196
    2TTP     C240128   4.617   4.595   5.020  0.0323 -0.0395  0.1312
    2TTP     C340129   4.672   4.706   4.949  0.0263 -0.0885  0.0502
    2TTP     C440130   4.768   4.904   4.821  0.0151 -0.1740 -0.0920
    2TTP    C1740131   4.864   4.835   4.890  0.0575 -0.2663 -0.2430
    2TTP    C1840132   4.809   4.724   4.961  0.0637 -0.2174 -0.1619
    2TTP    C3240133   4.475   4.554   5.006  0.4447 -0.0865 -0.0142
    2TTP    C3340134   4.374   4.663   5.052  0.0893 -0.0255  0.3214
    2TTP    C3440135   4.227   4.619   5.024 -0.3898 -0.2518  0.4230
    2TTP    C3540136   4.194   4.598   4.873 -0.0094  0.1234 -0.6282
    2TTP    C3640137   4.048   4.561   4.851 -0.7434 -0.0608 -0.2525
    2TTP    C3740138   3.992   4.618   4.727  0.2765 -0.3295  0.5990
    2TTP    C3840139   3.840   4.620   4.712  0.4293  0.3879  0.0234
    2TTP    C3940140   3.778   4.660   4.576 -0.4060  0.1181 -0.3071
    2TTP    C4040141   3.622   4.668   4.561 -0.1874  0.0837  0.2033
    2TTP    C4140142   3.526   4.572   4.638 -0.1049 -0.2544 -0.0794
    2TTP    C4240143   3.378   4.558   4.596 -0.3866 -0.0428 -0.2423
    3TTP     S140144   5.134   5.441   4.509 -0.0365 -0.2434  0.1276
    3TTP     S540145   5.508   5.310   4.675  0.0077  0.0758  0.2805
    3TTP     C140146   5.536   5.465   4.584 -0.1108  0.1666  0.3977
    3TTP     C240147   5.423   5.515   4.528 -0.1315  0.0732  0.3576
    3TTP     C340148   5.309   5.432   4.554 -0.0544 -0.0732  0.2326
    3TTP     C440149   5.106   5.286   4.599  0.0821 -0.3341  0.0104
    3TTP    C1740150   5.220   5.237   4.656  0.1028 -0.2408  0.0506
    3TTP    C1840151   5.334   5.319   4.630  0.0257 -0.0944  0.1756
    3TTP    C3240152   5.404   5.644   4.449 -0.1693  0.0407  0.4333
    3TTP    C3340153   5.283   5.733   4.466 -0.5147 -0.5377  0.1776
    3TTP    C3440154   5.293   5.861   4.370 -0.6223  0.1308  0.5736
    3TTP    C3540155   5.160   5.920   4.325 -0.2453  0.1892 -0.2566
    3TTP    C3640156   5.160   6.048   4.237 -0.0775  0.1718  0.1157
    3TTP    C3740157   5.026   6.090   4.174 -0.3047 -0.0293 -0.8549
    3TTP    C3840158   4.905   6.093   4.275 -0.2617 -0.1875  0.1315
    3TTP    C3940159   4.765   6.145   4.214 -0.3436 -0.2863  0.1689
    3TTP    C4040160   4.668   6.171   4.330  0.1075 -0.4630  0.1432
    3TTP    C4140161   4.525   6.221   4.303 -0.0572 -0.3337  0.2278
    3TTP    C4240162   4.441   6.209   4.433  0.4680  0.0049  0.3076
    4BIM     F140163   5.119   3.907   5.446  0.0901 -0.0125 -0.2031
    4BIM     F240164   4.880   3.784   5.492  0.1549 -0.2528 -0.5051
    4BIM     O140165   4.955   4.359   5.197 -0.0933  0.1389  0.1889
    4BIM     N540166   4.421   3.930   5.380  0.1171 -0.4908 -0.6597
    4BIM     N640167   4.341   4.307   5.175 -0.0393 -0.3241 -0.2924
    4BIM    C1940168   4.669   4.402   5.152 -0.0969 -0.0374  0.0397
    4BIM    C2040169   4.720   4.293   5.213 -0.0532 -0.0659 -0.0471
    4BIM    C2140170   4.868   4.278   5.232 -0.0545  0.0297  0.0385
    4BIM    C2240171   4.888   4.149   5.301 -0.0010 -0.0319 -0.0913
    4BIM    C2340172   5.009   4.092   5.341  0.0172  0.0193 -0.0719
    4BIM    C2440173   5.003   3.969   5.405  0.0696 -0.0572 -0.2131
    4BIM    C2540174   4.880   3.906   5.428  0.1032 -0.1809 -0.3688
    4BIM    C2640175   4.759   3.963   5.389  0.0854 -0.2329 -0.3890
    4BIM    C2740176   4.763   4.087   5.324  0.0323 -0.1569 -0.2474
    4BIM    C2840177   4.655   4.173   5.271  0.0014 -0.1825 -0.2263
    4BIM    C2940178   4.520   4.146   5.274  0.0198 -0.2935 -0.3495
    4BIM    C3040179   4.466   4.027   5.332  0.0733 -0.4017 -0.5196
    4BIM    C3140180   4.422   4.235   5.220 -0.0129 -0.3098 -0.3175
    5BIM     F140181   6.312   5.306   4.801  0.0781  0.0231  0.1191
    5BIM     F240182   6.372   5.568   4.756 -0.0197  0.0523  0.1601
    5BIM     O140183   5.789   5.294   4.661  0.1650 -0.2218 -0.1876
    5BIM     N540184   6.084   5.936   4.592 -0.0987 -0.0799  0.0004
    5BIM     N640185   5.664   5.874   4.492 -0.0113 -0.2770 -0.2476
    5BIM    C1940186   5.660   5.540   4.568  0.1022 -0.2808 -0.2574
    5BIM    C2040187   5.790   5.533   4.605  0.0842 -0.2203 -0.1819
    5BIM    C2140188   5.849   5.403   4.652  0.1187 -0.1934 -0.1503
    5BIM    C2240189   5.990   5.430   4.684  0.0871 -0.1270 -0.0669
    5BIM    C2340190   6.085   5.340   4.731  0.1024 -0.0830 -0.0130
    5BIM    C2440191   6.213   5.389   4.754  0.0657 -0.0229  0.0628
    5BIM    C2540192   6.243   5.524   4.731  0.0152 -0.0079  0.0839
    5BIM    C2640193   6.149   5.614   4.684 -0.0002 -0.0516  0.0305
    5BIM    C2740194   6.019   5.567   4.660  0.0364 -0.1128 -0.0465
    5BIM    C2840195   5.897   5.635   4.611  0.0325 -0.1695 -0.1166
    5BIM    C2940196   5.886   5.768   4.577 -0.0106 -0.1738 -0.1199
    5BIM    C3040197   5.995   5.860   4.585 -0.0589 -0.1221 -0.0538
    5BIM    C3140198   5.764   5.826   4.530 -0.0106 -0.2307 -0.1901
    1BTD     S240199   3.224   8.085   5.006  0.0146 -0.3672  0.1650
    1BTD     N140200   3.221   8.256   5.062 -0.3386 -0.4103  0.2794
    1BTD     N240201   3.381   8.047   5.086  0.2639 -0.0017 -0.1452
    1BTD     N340202   3.695   8.278   5.348  0.1339  0.6647 -0.5704
    1BTD     N440203   3.497   8.535   5.320 -0.6086  0.1614 -0.0472
    1BTD     C540204   3.367   8.399   5.197 -0.4706 -0.1056  0.1025
    1BTD     C640205   3.331   8.275   5.134 -0.2569 -0.1631  0.0904
    1BTD     C740206   3.421   8.158   5.147  0.0804  0.0656 -0.1472
    1BTD     C840207   3.542   8.171   5.222  0.1870  0.3402 -0.3607
    1BTD    C1540208   3.574   8.294   5.283 -0.0307  0.3864 -0.3401
    1BTD    C1640209   3.487   8.407   5.270 -0.3557  0.1662 -0.1112
    1BTD    C4340210   3.541   8.553   5.464  0.3428 -0.0078  0.1625
    1BTD    C4440211   3.557   8.690   5.519 -0.6229  0.6289 -0.9307
    1BTD    C4540212   3.597   8.683   5.671  0.7618  0.0783 -0.1461
    1BTD    C4640213   3.485   8.633   5.766  0.2963 -0.4614  0.0182
    1BTD    C4740214   3.673   8.767   5.453 -0.0682  0.3060 -0.3466
    1BTD    C4840215   3.707   8.919   5.494  0.4071  0.7212  0.4848
    1BTD    C4940216   3.841   8.960   5.437 -0.4242 -0.8124  0.4671
    1BTD    C5040217   3.866   9.113   5.455 -0.0606  0.5071 -0.0336
    1BTD    C7540218   3.805   8.377   5.345 -0.2024  0.2191  0.5168
    1BTD    C7640219   3.915   8.385   5.450 -0.4787  0.3857 -0.5526
    1BTD    C7740220   4.008   8.508   5.438 -0.0022  0.2181  0.1899
    1BTD    C7840221   4.070   8.528   5.301 -0.8816 -0.6207 -0.4742
    1BTD    C7940222   3.851   8.363   5.587 -0.1897 -0.8681 -0.0436
    1BTD    C8040223   3.934   8.350   5.709 -0.4594 -0.6255 -0.8720
    1BTD    C8140224   3.848   8.351   5.836 -0.1153  0.3405 -0.0668
    1BTD    C8240225   3.925   8.339   5.962  0.2031 -0.2343 -0.7694
    2TTP     S140226   3.205   8.606   5.076 -0.1271  0.0652 -0.3301
    2TTP     S540227   3.484   8.899   5.222  0.0415 -0.2310 -0.0558
    2TTP     C140228   3.382   8.976   5.093  0.4019 -0.1865 -0.3202
    2TTP     C240229   3.289   8.890   5.041  0.3710 -0.0920 -0.4205
    2TTP     C340230   3.296   8.760   5.100  0.0618 -0.0520 -0.2922
    2TTP     C440231   3.308   8.529   5.205 -0.4874  0.0203 -0.0659
    2TTP    C1740232   3.400   8.615   5.258 -0.4566 -0.0736  0.0345
    2TTP    C1840233   3.393   8.745   5.198 -0.1473 -0.1140 -0.0937
    2TTP    C3240234   3.195   8.913   4.925  0.1128 -0.4439  0.1879
    2TTP    C3340235   3.252   8.879   4.788  0.1147 -0.8507  0.3540
    2TTP    C3440236   3.177   8.931   4.662 -0.4300 -0.5000 -0.1640
    2TTP    C3540237   3.025   8.923   4.655 -0.4247 -0.0078 -0.4606
    2TTP    C3640238   2.963   8.986   4.533 -0.2113  0.3602  0.2789
    2TTP    C3740239   3.012   9.125   4.502 -0.5044  0.3105  0.5406
    2TTP    C3840240   2.906   9.226   4.454  0.3476 -0.6207 -0.4858
    2TTP    C3940241   2.961   9.366   4.473  0.3667 -0.2459  0.3813
    2TTP    C4040242   2.872   9.475   4.426 -0.1543 -0.5619  0.6485
    2TTP    C4140243   2.933   9.615   4.440  0.4105 -0.6826 -0.1282
    2TTP    C4240244   2.848   9.717   4.373  0.3933  0.1613 -0.4117
    3TTP     S140245   3.669   7.901   5.244  0.0597  0.0088 -0.2397
    3TTP     S540246   3.980   8.069   5.489 -0.2473 -0.0575  0.1991
    3TTP     C140247   4.006   7.889   5.478 -0.0253 -0.0075 -0.1177
    3TTP     C240248   3.911   7.827   5.402  0.0825  0.0157 -0.2718
    3TTP     C340249   3.815   7.919   5.349 -0.0062 -0.0046 -0.1453
    3TTP     C440250   3.643   8.081   5.255 -0.1622 -0.0410  0.0770
    3TTP    C1740251   3.738   8.143   5.331 -0.2701 -0.0641  0.2312
    3TTP    C1840252   3.834   8.051   5.384 -0.1814 -0.0436  0.1048
    3TTP    C3240253   3.884   7.682   5.383 -0.3776  0.2442  0.2398
    3TTP    C3340254   3.934   7.624   5.248  0.2150  0.0368  0.4420
    3TTP    C3440255   3.862   7.493   5.213 -0.9804  0.1662  0.6206
    3TTP    C3540256   3.913   7.358   5.275  0.8600  0.7506  0.0378
    3TTP    C3640257   4.046   7.299   5.257 -0.5277 -0.2981 -0.0953
    3TTP    C3740258   4.128   7.319   5.131  0.1831 -0.3194  0.0021
    3TTP    C3840259   4.276   7.272   5.146  0.4540 -0.0700  0.1340
    3TTP    C3940260   4.284   7.120   5.129 -0.2921 -0.2838 -0.4242
    3TTP    C4040261   4.427   7.064   5.102 -0.2339 -0.5500  0.2998
    3TTP    C4140262   4.548   7.123   5.174 -0.1589 -0.0537  0.0192
    3TTP    C4240263   4.679   7.060   5.135 -0.0896  0.2299 -0.6036
    4BIM     F140264   3.791   9.644   5.356 -0.2785  0.0670  0.3892
    4BIM     F240265   3.668   9.788   5.161  0.1643 -0.0288  0.0362
    4BIM     O140266   3.577   9.154   5.273 -0.3946  0.1149  0.4060
    4BIM     N540267   3.338   9.646   4.821  0.7182 -0.1326 -0.4593
    4BIM     N640268   3.196   9.234   4.794  0.5382 -0.0758 -0.3749
    4BIM    C1940269   3.383   9.118   5.056 -0.0128  0.0401  0.0749
    4BIM    C2040270   3.442   9.235   5.085 -0.0010  0.0319  0.0844
    4BIM    C2140271   3.540   9.246   5.198 -0.2046  0.0720  0.2598
    4BIM    C2240272   3.585   9.387   5.201 -0.1334  0.0508  0.2224
    4BIM    C2340273   3.676   9.445   5.289 -0.2640  0.0739  0.3436
    4BIM    C2440274   3.702   9.580   5.273 -0.1593  0.0464  0.2771
    4BIM    C2540275   3.638   9.654   5.172  0.0688 -0.0029  0.0950
    4BIM    C2640276   3.547   9.597   5.085  0.2002 -0.0265 -0.0263
    4BIM    C2740277   3.520   9.460   5.099  0.0972  0.0012  0.0385
    4BIM    C2840278   3.429   9.370   5.024  0.1876 -0.0126 -0.0535
    4BIM    C2940279   3.349   9.405   4.917  0.4047 -0.0577 -0.2327
    4BIM    C3040280   3.343   9.537   4.864  0.5763 -0.0987 -0.3567
    4BIM    C3140281   3.265   9.310   4.850  0.4768 -0.0675 -0.3099
    5BIM     F140282   4.740   8.091   5.760 -0.3213  0.2990  0.1744
    5BIM     F240283   4.790   7.827   5.809 -0.0328  0.3350  0.0782
    5BIM     O140284   4.238   8.064   5.559 -0.2904 -0.1781  0.1565
    5BIM     N540285   4.503   7.430   5.735  0.4038  0.0467 -0.0728
    5BIM     N640286   4.101   7.463   5.568  0.3698 -0.3334 -0.0674
    5BIM    C1940287   4.107   7.804   5.534 -0.0038 -0.3132  0.0583
    5BIM    C2040288   4.231   7.821   5.583 -0.0229 -0.1945  0.0668
    5BIM    C2140289   4.292   7.958   5.592 -0.1736 -0.1314  0.1181
    5BIM    C2240290   4.427   7.940   5.649 -0.1549 -0.0043  0.1140
    5BIM    C2340291   4.521   8.039   5.677 -0.2636  0.0892  0.1520
    5BIM    C2440292   4.642   7.998   5.730 -0.2193  0.2024  0.1389
    5BIM    C2540293   4.668   7.862   5.755 -0.0708  0.2208  0.0891
    5BIM    C2640294   4.574   7.763   5.728  0.0384  0.1279  0.0511
    5BIM    C2740295   4.451   7.803   5.674 -0.0044  0.0128  0.0637
    5BIM    C2840296   4.332   7.724   5.634  0.0827 -0.1036  0.0327
    5BIM    C2940297   4.317   7.587   5.643  0.2325 -0.1230 -0.0179
    5BIM    C3040298   4.420   7.502   5.693  0.3262 -0.0296 -0.0478
    5BIM    C3140299   4.198   7.520   5.602  0.3072 -0.2385 -0.0449
    1BTD     S240300   0.400   3.919   2.185 -0.5040  0.2209 -0.0546
    1BTD     N140301   0.322   4.081   2.190 -0.3223  0.3079 -0.0500
    1BTD     N240302   0.551   3.973   2.267 -0.4680  0.0362  0.0021
    1BTD     N340303   0.719   4.376   2.440 -0.0665 -0.1833  0.1260
    1BTD     N440304   0.437   4.509   2.345  0.1131  0.1516  0.0617
    1BTD     C540305   0.385   4.303   2.272 -0.0971  0.2222  0.0091
    1BTD     C640306   0.408   4.163   2.248 -0.2480  0.2003 -0.0086
    1BTD     C740307   0.536   4.103   2.292 -0.3296  0.0480  0.0206
    1BTD     C840308   0.635   4.185   2.356 -0.2562 -0.0745  0.0661
    1BTD    C1540309   0.608   4.322   2.377 -0.1084 -0.0476  0.0820
    1BTD    C1640310   0.485   4.380   2.336 -0.0298  0.0989  0.0537
    1BTD    C4340311   0.467   4.590   2.460  0.2504 -0.6149 -0.6966
    1BTD    C4440312   0.432   4.739   2.492  0.3522  0.4728  0.3231
    1BTD    C4540313   0.437   4.783   2.636 -0.2984 -0.2876 -0.9543
    1BTD    C4640314   0.347   4.710   2.739  0.2638 -0.0355 -0.1153
    1BTD    C4740315   0.511   4.840   2.407 -0.2823  0.1346 -0.2467
    1BTD    C4840316   0.490   4.994   2.419 -0.2144  0.2829  0.0304
    1BTD    C4940317   0.566   5.080   2.317 -0.2908  0.2838  0.5986
    1BTD    C5040318   0.522   5.067   2.169 -0.4707 -0.9089 -0.5977
    1BTD    C7540319   0.772   4.514   2.405 -0.4938  0.6926  0.4665
    1BTD    C7640320   0.861   4.596   2.492 -0.6461  0.1906 -0.6432
    1BTD    C7740321   0.911   4.728   2.427  0.8358  0.9859 -0.2546
    1BTD    C7840322   0.964   4.722   2.282  0.6732  0.1973 -0.4084
    1BTD    C7940323   0.806   4.628   2.627  0.2710 -0.1378 -1.0167
    1BTD    C8040324   0.894   4.701   2.736  0.4144 -0.6340  0.1182
    1BTD    C8140325   0.804   4.778   2.836  0.4141  0.7127  0.1060
    1BTD    C8240326   0.900   4.820   2.950 -0.5168  0.3885  0.4867
    2TTP     S140327   0.126   4.382   2.141 -0.1223  0.0491 -0.0080
    2TTP     S540328   0.220   4.796   2.210  0.0060  0.0461 -0.1637
    2TTP     C140329   0.072   4.787   2.104  0.0082  0.0516 -0.1672
    2TTP     C240330   0.035   4.659   2.076 -0.0313  0.0532 -0.1194
    2TTP     C340331   0.121   4.563   2.138 -0.0647  0.0496 -0.0782
    2TTP     C440332   0.273   4.391   2.248 -0.1245  0.0435 -0.0045
    2TTP    C1740333   0.311   4.519   2.275 -0.0850  0.0421 -0.0524
    2TTP    C1840334   0.225   4.615   2.213 -0.0515  0.0457 -0.0935
    2TTP    C3240335  -0.086   4.613   1.988  0.2415 -0.1636 -0.6689
    2TTP    C3340336  -0.210   4.598   2.075 -0.2854  0.3252  0.6522
    2TTP    C3440337  -0.334   4.591   1.986 -0.1050  0.7003 -0.4882
    2TTP    C3540338  -0.469   4.604   2.056 -0.2543 -0.1901  0.7649
    2TTP    C3640339  -0.588   4.548   1.971 -0.7670  0.1056  0.0119
    2TTP    C3740340  -0.725   4.581   2.034 -0.2735  0.0557 -0.0538
    2TTP    C3840341  -0.847   4.546   1.948  0.2345 -0.2758 -0.2503
    2TTP    C3940342  -0.980   4.622   1.976 -0.2756  0.4396  0.2203
    2TTP    C4040343  -0.967   4.770   1.938 -0.1668  0.7139 -0.0450
    2TTP    C4140344  -0.969   4.790   1.786 -0.0788  0.6282 -0.6515
    2TTP    C4240345  -0.950   4.942   1.767 -0.4570  0.3529 -0.0110
    3TTP     S140346   0.867   4.017   2.447 -0.1233 -0.0102  0.1466
    3TTP     S540347   1.027   4.362   2.649 -0.1224 -0.0205  0.1634
    3TTP     C140348   1.131   4.218   2.689 -0.0904 -0.0117  0.1120
    3TTP     C240349   1.088   4.103   2.629 -0.0888 -0.0080  0.1038
    3TTP     C340350   0.971   4.124   2.549 -0.1128 -0.0120  0.1378
    3TTP     C440351   0.763   4.161   2.407 -0.1552 -0.0192  0.1979
    3TTP    C1740352   0.806   4.276   2.467 -0.1568 -0.0227  0.2061
    3TTP    C1840353   0.923   4.254   2.546 -0.1329 -0.0187  0.1722
    3TTP    C3240354   1.147   3.961   2.645  0.0771  0.5526 -0.0176
    3TTP    C3340355   1.056   3.850   2.682 -0.0535  0.0571 -0.4989
    3TTP    C3440356   1.125   3.721   2.733 -0.0245 -0.3482 -0.0357
    3TTP    C3540357   1.210   3.662   2.625 -0.2997 -0.0079  0.0667
    3TTP    C3640358   1.322   3.554   2.655 -0.4540 -0.5520  0.3479
    3TTP    C3740359   1.425   3.598   2.761 -0.0801  0.4083  0.4962
    3TTP    C3840360   1.531   3.497   2.787  0.3831  0.5713  0.1200
    3TTP    C3940361   1.483   3.350   2.818  0.5789 -0.9828 -0.8448
    3TTP    C4040362   1.592   3.242   2.845  0.4342 -0.2511 -1.0693
    3TTP    C4140363   1.531   3.104   2.844 -0.1777 -0.4650  0.0863
    3TTP    C4240364   1.627   2.994   2.868 -0.3862 -0.0415 -0.5811
    4BIM     F140365   0.160   5.607   2.113 -0.3305  0.0025  0.2142
    4BIM     F240366  -0.045   5.625   1.935  0.0243 -0.1028 -0.2094
    4BIM     O140367   0.189   5.071   2.183 -0.3612  0.0333  0.4629
    4BIM     N540368  -0.320   5.268   1.729  0.5124 -0.2322 -0.6411
    4BIM     N640369  -0.256   4.846   1.820  0.4168 -0.1872 -0.3615
    4BIM    C1940370   0.003   4.897   2.038 -0.0332 -0.0565  0.1465
    4BIM    C2040371   0.004   5.032   2.027 -0.0393 -0.0601  0.1006
    4BIM    C2140372   0.102   5.114   2.105 -0.2131 -0.0123  0.2719
    4BIM    C2240373   0.076   5.255   2.071 -0.1722 -0.0299  0.1681
    4BIM    C2340374   0.142   5.368   2.118 -0.2907  0.0004  0.2623
    4BIM    C2440375   0.099   5.491   2.070 -0.2208 -0.0252  0.1314
    4BIM    C2540376  -0.007   5.500   1.979 -0.0380 -0.0793 -0.0867
    4BIM    C2640377  -0.073   5.387   1.931  0.0808 -0.1098 -0.1819
    4BIM    C2740378  -0.031   5.262   1.978  0.0127 -0.0849 -0.0520
    4BIM    C2840379  -0.080   5.125   1.948  0.1016 -0.1054 -0.1021
    4BIM    C2940380  -0.182   5.092   1.863  0.2804 -0.1569 -0.2988
    4BIM    C3040381  -0.258   5.189   1.790  0.4075 -0.1981 -0.4864
    4BIM    C3140382  -0.222   4.956   1.840  0.3543 -0.1731 -0.3321
    5BIM     F140383   1.197   4.623   3.395 -0.0486  0.3191 -0.1542
    5BIM     F240384   1.453   4.533   3.417 -0.2291 -0.1181  0.2008
    5BIM     O140385   1.042   4.382   2.936  0.1014  0.3998 -0.2472
    5BIM     N540386   1.711   4.232   3.120 -0.3816 -0.6893  0.6447
    5BIM     N640387   1.538   4.062   2.757 -0.2280 -0.5381  0.5004
    5BIM    C1940388   1.232   4.210   2.793 -0.0178  0.0107  0.0588
    5BIM    C2040389   1.261   4.274   2.908 -0.0484  0.0075  0.0683
    5BIM    C2140390   1.158   4.361   2.975  0.0170  0.2143 -0.0949
    5BIM    C2240391   1.222   4.415   3.097 -0.0386  0.1529 -0.0378
    5BIM    C2340392   1.166   4.501   3.191 -0.0082  0.2894 -0.1425
    5BIM    C2440393   1.246   4.539   3.298 -0.0739  0.1938 -0.0586
    5BIM    C2540394   1.378   4.492   3.309 -0.1668 -0.0315  0.1243
    5BIM    C2640395   1.434   4.407   3.215 -0.1976 -0.1688  0.2295
    5BIM    C2740396   1.355   4.367   3.106 -0.1321 -0.0749  0.1470
    5BIM    C2840397   1.384   4.279   2.991 -0.1419 -0.1732  0.2195
    5BIM    C2940398   1.502   4.214   2.965 -0.2222 -0.3902  0.3934
    5BIM    C3040399   1.616   4.224   3.051 -0.3096 -0.5538  0.5310
    5BIM    C3140400   1.521   4.131   2.851 -0.2250 -0.4703  0.4513
    1BTD     S240401   8.877   5.810   7.886  0.1563  0.0822  0.0482
    1BTD     N140402   8.973   5.675   7.958  0.1717 -0.0261 -0.1724
    1BTD     N240403   8.726   5.713   7.871  0.0832  0.1785  0.1653
    1BTD     N340404   8.591   5.275   7.970 -0.0379  0.1794  0.0051
    1BTD     N440405   8.895   5.228   8.077  0.0713 -0.0726 -0.4108
    1BTD     C540406   8.928   5.442   8.019  0.1180 -0.0473 -0.2918
    1BTD     C640407   8.891   5.571   7.967  0.1240  0.0134 -0.1488
    1BTD     C740408   8.753   5.593   7.918  0.0746  0.1276  0.0404
    1BTD     C840409   8.659   5.484   7.924  0.0212  0.1760  0.0768
    1BTD    C1540410   8.700   5.360   7.976  0.0170  0.1135 -0.0676
    1BTD    C1640411   8.833   5.339   8.023  0.0651  0.0034 -0.2500
    1BTD    C4340412   8.828   5.174   8.201 -0.2558  0.0060  0.6086
    1BTD    C4440413   8.868   5.040   8.279 -0.9323  0.3565 -0.0837
    1BTD    C4540414   8.793   5.025   8.411  0.6494 -0.1808  0.8742
    1BTD    C4640415   8.799   5.116   8.530  0.4371  0.3550 -0.1145
    1BTD    C4740416   8.853   4.911   8.182 -0.1382 -0.3427 -0.2955
    1BTD    C4840417   8.911   4.779   8.227  0.0808 -0.2026  0.0725
    1BTD    C4940418   8.887   4.670   8.119 -0.1076  0.3402 -0.5905
    1BTD    C5040419   8.952   4.546   8.174 -0.3075 -0.2728  0.5561
    1BTD    C7540420   8.580   5.130   7.985 -0.0744 -0.2448 -0.5892
    1BTD    C7640421   8.575   5.035   7.865  0.6620  0.2054 -0.7060
    1BTD    C7740422   8.690   5.033   7.761  0.0627 -0.3972  0.5487
    1BTD    C7840423   8.829   4.979   7.792 -0.1835 -0.5145  0.2843
    1BTD    C7940424   8.533   4.891   7.896 -0.0893  0.2293  0.2968
    1BTD    C8040425   8.408   4.871   7.986  0.1966 -0.3920 -0.0491
    1BTD    C8140426   8.349   4.730   7.982  0.5915  0.1502  0.0037
    1BTD    C8240427   8.208   4.709   8.032 -0.1259 -0.0333 -0.0410
    2TTP     S140428   9.221   5.436   8.080  0.1582 -0.0675  0.2171
    2TTP     S540429   9.198   5.020   8.185  0.3822 -0.2983 -0.6270
    2TTP     C140430   9.373   5.071   8.188  0.3553 -0.2106 -0.5317
    2TTP     C240431   9.390   5.202   8.155  0.2851 -0.1345 -0.2658
    2TTP     C340432   9.266   5.268   8.127  0.2489 -0.1422 -0.1273
    2TTP     C440433   9.047   5.386   8.077  0.1848 -0.1552  0.1218
    2TTP    C1740434   9.029   5.254   8.110  0.2550 -0.2315 -0.1444
    2TTP    C1840435   9.153   5.189   8.138  0.2911 -0.2235 -0.2828
    2TTP    C3240436   9.522   5.285   8.143  0.1927  0.5093  0.0270
    2TTP    C3340437   9.566   5.370   8.257  0.2854  0.2099 -0.3214
    2TTP    C3440438   9.684   5.461   8.220 -0.7408 -0.3096  0.3512
    2TTP    C3540439   9.676   5.577   8.117  0.2940 -0.2689 -0.1223
    2TTP    C3640440   9.558   5.675   8.124 -0.7787 -0.6637 -0.3022
    2TTP    C3740441   9.567   5.799   8.032  0.2002  0.6886 -0.1862
    2TTP    C3840442   9.703   5.874   8.020 -0.4527  0.4052 -0.1485
    2TTP    C3940443   9.744   5.955   8.146  0.7872  0.6205 -0.5422
    2TTP    C4040444   9.863   6.049   8.121 -0.1808 -0.1670  0.4386
    2TTP    C4140445   9.894   6.154   8.224  0.8382 -0.0726 -0.2928
    2TTP    C4240446  10.030   6.207   8.224 -0.1710  0.4493 -0.1218
    3TTP     S140447   8.396   5.569   7.799 -0.0683  0.0871  0.1675
    3TTP     S540448   8.224   5.189   7.906 -0.3538  0.0184 -0.5206
    3TTP     C140449   8.099   5.286   7.816 -0.2118  0.1916 -0.5322
    3TTP     C240450   8.145   5.409   7.777 -0.1156  0.2229 -0.3202
    3TTP     C340451   8.280   5.431   7.818 -0.1500  0.1113 -0.1413
    3TTP     C440452   8.521   5.472   7.889 -0.2100 -0.0861  0.1788
    3TTP    C1740453   8.475   5.349   7.927 -0.3065 -0.1173 -0.0329
    3TTP    C1840454   8.340   5.327   7.887 -0.2718 -0.0058 -0.2120
    3TTP    C3240455   8.067   5.511   7.701  0.5572 -0.0283  0.1179
    3TTP    C3340456   8.115   5.540   7.557 -0.7243  0.1524 -0.4317
    3TTP    C3440457   8.143   5.429   7.454  0.3676  0.2610  0.3119
    3TTP    C3540458   8.014   5.364   7.398  0.1086  0.5197 -0.2100
    3TTP    C3640459   8.046   5.274   7.287  0.7587  0.2337  0.4800
    3TTP    C3740460   7.926   5.183   7.249  0.0932 -0.8236  0.5238
    3TTP    C3840461   7.971   5.087   7.149  0.2457 -0.2417  1.1285
    3TTP    C3940462   7.865   4.986   7.112 -0.0505  0.5558 -0.4409
    3TTP    C4040463   7.844   4.863   7.197 -0.4265 -0.4050  0.1781
    3TTP    C4140464   7.741   4.776   7.139  0.2904 -0.1588  0.1864
    3TTP    C4240465   7.721   4.642   7.209  0.3184  0.0033 -0.3624
    4BIM     F140466   9.469   4.329   8.528 -0.1633  0.0803  0.2813
    4BIM     F240467   9.738   4.362   8.506 -0.1583 -0.0806  0.1023
    4BIM     O140468   9.291   4.797   8.322 -0.0331 -0.0373 -0.0999
    4BIM     N540469   9.998   4.742   8.327 -0.0584 -0.3958 -0.4270
    4BIM     N640470   9.805   5.101   8.170  0.0422 -0.4555 -0.6886
    4BIM    C1940471   9.485   4.994   8.228  0.0176 -0.2330 -0.4062
    4BIM    C2040472   9.519   4.875   8.280 -0.0150 -0.1971 -0.3033
    4BIM    C2140473   9.414   4.779   8.327 -0.0398 -0.0960 -0.1481
    4BIM    C2240474   9.485   4.660   8.378 -0.0730 -0.0802 -0.0658
    4BIM    C2340475   9.429   4.545   8.432 -0.1040  0.0029  0.0823
    4BIM    C2440476   9.517   4.446   8.474 -0.1320  0.0007  0.1359
    4BIM    C2540477   9.655   4.463   8.463 -0.1294 -0.0823  0.0434
    4BIM    C2640478   9.712   4.578   8.409 -0.0989 -0.1653 -0.1047
    4BIM    C2740479   9.624   4.679   8.366 -0.0701 -0.1646 -0.1605
    4BIM    C2840480   9.651   4.812   8.305 -0.0343 -0.2396 -0.3104
    4BIM    C2940481   9.774   4.866   8.277 -0.0212 -0.3313 -0.4320
    4BIM    C3040482   9.897   4.798   8.305 -0.0417 -0.3664 -0.4287
    4BIM    C3140483   9.790   4.995   8.219  0.0136 -0.3991 -0.5724
    5BIM     F140484   7.646   4.628   8.007 -0.1522 -0.0232 -0.1400
    5BIM     F240485   7.434   4.742   7.879 -0.1161  0.0242 -0.1569
    5BIM     O140486   8.025   5.009   7.936 -0.0966 -0.0529 -0.0004
    5BIM     N540487   7.400   5.177   7.646 -0.0244  0.0718 -0.0819
    5BIM     N640488   7.738   5.451   7.617  0.0118  0.0390  0.0304
    5BIM    C1940489   7.957   5.253   7.790 -0.0421 -0.0181  0.0328
    5BIM    C2040490   7.870   5.153   7.812 -0.0576 -0.0124 -0.0015
    5BIM    C2140491   7.912   5.030   7.889 -0.0852 -0.0314 -0.0167
    5BIM    C2240492   7.794   4.942   7.895 -0.0964 -0.0193 -0.0545
    5BIM    C2340493   7.785   4.817   7.956 -0.1216 -0.0296 -0.0796
    5BIM    C2440494   7.663   4.752   7.949 -0.1277 -0.0143 -0.1136
    5BIM    C2540495   7.554   4.811   7.883 -0.1090  0.0102 -0.1224
    5BIM    C2640496   7.562   4.936   7.823 -0.0840  0.0205 -0.0975
    5BIM    C2740497   7.685   5.003   7.828 -0.0775  0.0055 -0.0628
    5BIM    C2840498   7.727   5.135   7.775 -0.0527  0.0107 -0.0304
    5BIM    C2940499   7.649   5.223   7.704 -0.0299  0.0328 -0.0283
    5BIM    C3040500   7.512   5.197   7.672 -0.0271  0.0541 -0.0577
    5BIM    C3140501   7.699   5.348   7.656 -0.0072  0.0359  0.0041
    1BTD     S240502   0.137   1.271   0.090  0.0065 -0.1511 -0.2044
    1BTD     N140503   0.175   1.398  -0.031 -0.0230 -0.0041 -0.0591
    1BTD     N240504   0.292   1.289   0.180 -0.0116 -0.1943 -0.1643
    1BTD     N340505   0.677   1.556   0.144 -0.1019 -0.0167  0.1799
    1BTD     N440506   0.533   1.691  -0.115 -0.1159  0.2176  0.3095
    1BTD     C540507   0.364   1.549  -0.072 -0.0713  0.1089  0.1316
    1BTD     C640508   0.295   1.445   0.000 -0.0438  0.0048  0.0081
    1BTD     C740509   0.361   1.384   0.118 -0.0374 -0.1017 -0.0505
    1BTD     C840510   0.491   1.430   0.158 -0.0589 -0.0987  0.0170
    1BTD    C1540511   0.554   1.532   0.084 -0.0856  0.0051  0.1375
    1BTD    C1640512   0.491   1.591  -0.029 -0.0917  0.1077  0.1941
    1BTD    C4340513   0.639   1.793  -0.103  0.4621 -0.0851  0.0778
    1BTD    C4440514   0.591   1.933  -0.052  0.3181  0.3957 -0.8087
    1BTD    C4540515   0.719   2.022  -0.036 -0.0268  0.3238 -0.6798
    1BTD    C4640516   0.786   2.084  -0.155  0.4230  0.2486  0.3295
    1BTD    C4740517   0.505   1.923   0.072  0.2606  0.2376 -0.0449
    1BTD    C4840518   0.444   2.046   0.142  0.3651 -0.0462 -0.3954
    1BTD    C4940519   0.349   2.132   0.057  0.7478 -0.5485  0.5094
    1BTD    C5040520   0.349   2.282   0.082  0.2603 -0.1406  0.4441
    1BTD    C7540521   0.801   1.595   0.072  0.0195  0.6400  0.2722
    1BTD    C7640522   0.933   1.645   0.133  0.0747  0.7571  0.1559
    1BTD    C7740523   1.062   1.621   0.046 -0.2402  0.1801 -0.1799
    1BTD    C7840524   1.072   1.703  -0.084  0.4518  0.1157  0.3651
    1BTD    C7940525   0.920   1.787   0.190 -0.8218 -0.8063 -0.2511
    1BTD    C8040526   1.042   1.862   0.251  0.0985  0.0904 -0.2864
    1BTD    C8140527   1.018   2.002   0.299  0.1107 -0.1561  0.2180
    1BTD    C8240528   1.131   2.042   0.399  0.4049 -0.2583  0.6282
    2TTP     S140529   0.193   1.659  -0.301  0.0581  0.0946  0.0674
    2TTP     S540530   0.512   1.927  -0.407  0.1370  0.1161  0.3579
    2TTP     C140531   0.372   1.957  -0.518  0.2429  0.0940  0.2183
    2TTP     C240532   0.265   1.876  -0.492  0.2247  0.0860  0.1206
    2TTP     C340533   0.290   1.787  -0.383  0.1266  0.0971  0.1521
    2TTP     C440534   0.333   1.629  -0.189 -0.0478  0.1167  0.2072
    2TTP    C1740535   0.440   1.710  -0.215 -0.0296  0.1247  0.3048
    2TTP    C1840536   0.415   1.799  -0.324  0.0685  0.1135  0.2732
    2TTP    C3240537   0.132   1.859  -0.566 -0.4687 -0.1098 -0.6255
    2TTP    C3340538   0.009   1.895  -0.479  0.5467 -0.1751  0.7088
    2TTP    C3440539  -0.110   1.886  -0.584  0.0126  0.3126 -0.2058
    2TTP    C3540540  -0.244   1.884  -0.512 -0.2516 -0.1684  0.0219
    2TTP    C3640541  -0.355   1.880  -0.612 -0.2252 -1.0003  1.0022
    2TTP    C3740542  -0.497   1.872  -0.571  0.1331  0.0745 -0.1473
    2TTP    C3840543  -0.586   1.852  -0.695  0.1568 -0.2049  0.0324
    2TTP    C3940544  -0.726   1.817  -0.655  0.1935  0.6060 -0.4222
    2TTP    C4040545  -0.827   1.795  -0.771  0.0117  0.3017 -0.2563
    2TTP    C4140546  -0.846   1.915  -0.856 -0.6119  0.0130  0.1786
    2TTP    C4240547  -0.960   1.906  -0.960 -0.1782 -0.6468 -0.1116
    3TTP     S140548   0.582   1.282   0.405 -0.0135 -0.0212 -0.0212
    3TTP     S540549   0.933   1.529   0.423 -0.0171 -0.0153 -0.0318
    3TTP     C140550   0.933   1.419   0.567 -0.0795  0.0772  0.0389
    3TTP     C240551   0.824   1.336   0.570 -0.0821  0.0809  0.0464
    3TTP     C340552   0.738   1.356   0.459 -0.0348  0.0107 -0.0035
    3TTP     C440553   0.582   1.392   0.261  0.0490 -0.1138 -0.0920
    3TTP    C1740554   0.691   1.475   0.258  0.0515 -0.1174 -0.0994
    3TTP    C1840555   0.778   1.454   0.369  0.0043 -0.0472 -0.0495
    3TTP    C3240556   0.785   1.233   0.677 -0.7886  0.1023 -0.2747
    3TTP    C3340557   0.677   1.269   0.775  0.3020 -0.6351  0.1067
    3TTP    C3440558   0.696   1.387   0.870  0.2064  0.2659 -0.2388
    3TTP    C3540559   0.784   1.358   0.993 -0.4031 -0.3745  0.1171
    3TTP    C3640560   0.719   1.254   1.087 -0.7414 -0.4604 -0.4035
    3TTP    C3740561   0.800   1.198   1.206 -0.1669 -0.0925  0.6021
    3TTP    C3840562   0.921   1.107   1.172 -0.8178 -0.5270  0.3707
    3TTP    C3940563   1.011   1.075   1.291  0.4106 -0.5183  0.0858
    3TTP    C4040564   1.135   1.000   1.267 -0.0237  0.4280  0.1902
    3TTP    C4140565   1.211   0.996   1.395  0.0975 -0.3635  0.5844
    3TTP    C4240566   1.317   0.890   1.416 -0.2025 -0.2145  0.3660
    4BIM     F140567   0.925   2.460  -0.854  0.1044 -0.1438  0.1047
    4BIM     F240568   0.720   2.614  -0.944  0.1672 -0.2230 -0.1779
    4BIM     O140569   0.652   2.056  -0.618 -0.0639 -0.0613  0.0517
    4BIM     N540570   0.231   2.550  -0.904  0.1376 -0.2783 -0.6220
    4BIM     N640571   0.059   2.203  -0.701 -0.0066 -0.1979 -0.6065
    4BIM    C1940572   0.360   2.061  -0.619 -0.0636 -0.1078 -0.2371
    4BIM    C2040573   0.436   2.156  -0.675 -0.0237 -0.1255 -0.2127
    4BIM    C2140574   0.586   2.147  -0.670 -0.0267 -0.0995 -0.0610
    4BIM    C2240575   0.638   2.266  -0.740  0.0228 -0.1282 -0.0737
    4BIM    C2340576   0.771   2.301  -0.761  0.0380 -0.1186  0.0379
    4BIM    C2440577   0.796   2.419  -0.830  0.0868 -0.1512 -0.0002
    4BIM    C2540578   0.690   2.498  -0.876  0.1191 -0.1919 -0.1459
    4BIM    C2640579   0.557   2.464  -0.856  0.1041 -0.2018 -0.2580
    4BIM    C2740580   0.530   2.345  -0.786  0.0549 -0.1693 -0.2213
    4BIM    C2840581   0.402   2.281  -0.748  0.0276 -0.1692 -0.3126
    4BIM    C2940582   0.275   2.328  -0.775  0.0463 -0.2032 -0.4611
    4BIM    C3040583   0.251   2.450  -0.846  0.0964 -0.2444 -0.5491
    4BIM    C3140584   0.157   2.259  -0.734  0.0171 -0.2001 -0.5403
    5BIM     F140585   1.558   1.900   0.801 -0.2678  0.2195  0.2330
    5BIM     F240586   1.632   1.707   0.978  0.3117 -0.1678 -0.4219
    5BIM     O140587   1.118   1.673   0.581 -0.4189  0.2742  0.4778
    5BIM     N540588   1.426   1.268   1.076  1.0370 -0.6855 -1.1889
    5BIM     N640589   1.068   1.129   0.869  0.8021 -0.5646 -0.8656
    5BIM    C1940590   1.034   1.408   0.672  0.0809 -0.0763 -0.0609
    5BIM    C2040591   1.141   1.473   0.721  0.0964 -0.0750 -0.0969
    5BIM    C2140592   1.179   1.609   0.669 -0.1702  0.1111  0.1918
    5BIM    C2240593   1.300   1.650   0.743 -0.0773  0.0610  0.0675
    5BIM    C2340594   1.371   1.768   0.729 -0.2483  0.1856  0.2444
    5BIM    C2440595   1.483   1.785   0.810 -0.1116  0.1046  0.0733
    5BIM    C2540596   1.521   1.686   0.901  0.1870 -0.0950 -0.2641
    5BIM    C2640597   1.450   1.567   0.915  0.3589 -0.2201 -0.4420
    5BIM    C2740598   1.337   1.548   0.834  0.2244 -0.1408 -0.2731
    5BIM    C2840599   1.241   1.435   0.824  0.3430 -0.2323 -0.3876
    5BIM    C2940600   1.244   1.319   0.897  0.6270 -0.4257 -0.7027
    5BIM    C3040601   1.344   1.291   0.996  0.8515 -0.5679 -0.9689
    5BIM    C3140602   1.147   1.215   0.881  0.7217 -0.5010 -0.7905
    1BTD     S240603   7.731   2.754   8.925  0.2944 -0.1680 -0.0374
    1BTD     N140604   7.787   2.676   9.077  0.5363 -0.2143 -0.1497
    1BTD     N240605   7.692   2.599   8.842 -0.1205 -0.1320  0.0837
    1BTD     N340606   7.715   2.142   8.947 -0.5291 -0.1425  0.1278
    1BTD     N440607   7.831   2.236   9.236  0.2804 -0.2441 -0.1597
    1BTD     C540608   7.808   2.445   9.157  0.3930 -0.2287 -0.1516
    1BTD     C640609   7.774   2.545   9.059  0.3073 -0.2013 -0.0939
    1BTD     C740610   7.722   2.502   8.927 -0.0606 -0.1552  0.0365
    1BTD     C840611   7.705   2.362   8.900 -0.3240 -0.1387  0.1030
    1BTD    C1540612   7.740   2.268   8.999 -0.2280 -0.1666  0.0430
    1BTD    C1640613   7.791   2.309   9.126  0.1263 -0.2111 -0.0826
    1BTD    C4340614   7.901   2.108   9.244  0.2102  0.1409  0.1106
    1BTD    C4440615   7.984   2.059   9.121 -0.1123  0.2956  0.3347
    1BTD    C4540616   8.083   2.163   9.066 -0.1436 -0.1398 -0.0739
    1BTD    C4640617   8.193   2.206   9.163  0.2640  0.0180  0.3686
    1BTD    C4740618   8.028   1.917   9.146  0.1169  0.6093  0.5073
    1BTD    C4840619   8.086   1.840   9.027  0.3020  0.2545  0.7326
    1BTD    C4940620   8.156   1.710   9.072 -0.3305 -0.5693 -0.6723
    1BTD    C5040621   8.199   1.610   8.972  0.3272  0.2664 -0.1314
    1BTD    C7540622   7.688   2.021   9.022 -0.1357 -0.0414  0.2379
    1BTD    C7640623   7.642   1.889   8.962  0.2834 -0.4459  0.1085
    1BTD    C7740624   7.502   1.906   8.896  0.5623  0.7865 -0.2130
    1BTD    C7840625   7.372   1.928   8.988 -0.1322 -0.3504  0.8044
    1BTD    C7940626   7.653   1.778   9.062 -0.4044  0.0487 -0.1581
    1BTD    C8040627   7.607   1.636   9.012  0.0563  0.5247  0.0699
    1BTD    C8140628   7.676   1.590   8.883  0.2402  0.5539  0.0856
    1BTD    C8240629   7.638   1.446   8.845  0.1834 -0.2423 -1.0230
    2TTP     S140630   7.912   2.573   9.423 -0.2539  0.1550  0.0408
    2TTP     S540631   7.957   2.178   9.585  0.4803  0.2639  0.1080
    2TTP     C140632   8.012   2.298   9.710  0.2945  0.3853  0.0728
    2TTP     C240633   8.001   2.427   9.667  0.0567  0.3588  0.0501
    2TTP     C340634   7.949   2.436   9.534  0.0129  0.2417  0.0591
    2TTP     C440635   7.857   2.453   9.298 -0.0681  0.0337  0.0761
    2TTP    C1740636   7.868   2.323   9.341  0.1697  0.0602  0.0987
    2TTP    C1840637   7.920   2.315   9.474  0.2137  0.1772  0.0892
    2TTP    C3240638   8.048   2.552   9.741 -0.1163 -0.4345 -0.3005
    2TTP    C3340639   7.937   2.652   9.798 -0.4913 -0.1711 -0.4436
    2TTP    C3440640   8.002   2.783   9.841 -0.2500 -0.4458  0.1009
    2TTP    C3540641   7.910   2.905   9.850 -0.0103 -0.9061  0.5030
    2TTP    C3640642   7.989   3.030   9.897 -0.2118  0.6230  0.0137
    2TTP    C3740643   7.912   3.154   9.881  0.6892 -0.6623  0.1060
    2TTP    C3840644   7.967   3.272   9.960 -0.3573 -0.4131  0.2355
    2TTP    C3940645   7.875   3.390   9.930 -0.3317  0.4118  0.3386
    2TTP    C4040646   7.895   3.503  10.025  0.0782 -0.1272 -0.5985
    2TTP    C4140647   7.793   3.615  10.003  0.5493  0.6913  0.2873
    2TTP    C4240648   7.774   3.707  10.115  0.6136  0.0003 -0.1983
    3TTP     S140649   7.624   2.326   8.611  0.4129  0.0995 -0.3195
    3TTP     S540650   7.736   1.913   8.649 -0.2728 -0.0645 -0.0358
    3TTP     C140651   7.703   1.948   8.473  0.0632 -0.0557 -0.0987
    3TTP     C240652   7.667   2.078   8.451  0.2947 -0.0045 -0.1898
    3TTP     C340653   7.663   2.154   8.572  0.2152  0.0296 -0.2134
    3TTP     C440654   7.657   2.291   8.786  0.0769  0.0908 -0.2565
    3TTP    C1740655   7.693   2.161   8.808 -0.1546  0.0396 -0.1652
    3TTP    C1840656   7.697   2.085   8.687 -0.0751  0.0055 -0.1416
    3TTP    C3240657   7.643   2.137   8.312  0.4851  0.1525  0.8054
    3TTP    C3340658   7.641   2.289   8.269  0.1641 -0.0471 -0.4160
    3TTP    C3440659   7.779   2.355   8.282  0.5119  0.4583 -0.7657
    3TTP    C3540660   7.793   2.504   8.252  0.0822 -0.2173 -0.0944
    3TTP    C3640661   7.937   2.529   8.214 -0.4048 -0.4996 -0.3199
    3TTP    C3740662   7.958   2.672   8.176 -0.2458 -0.4011  0.8879
    3TTP    C3840663   8.078   2.700   8.076  0.3545  0.0867  0.2857
    3TTP    C3940664   8.101   2.843   8.021 -0.4306 -0.2551  0.3226
    3TTP    C4040665   8.227   2.875   7.942 -0.4472  0.0917  0.6539
    3TTP    C4140666   8.358   2.825   7.999 -0.5270 -0.0707  0.1303
    3TTP    C4240667   8.483   2.900   7.950  0.3066  0.1291  0.0554
    4BIM     F140668   8.126   1.601  10.142  0.1462 -0.0480 -0.0332
    4BIM     F240669   8.207   1.752  10.354  0.2205 -0.0618 -0.0517
    4BIM     O140670   8.012   1.987   9.779 -0.0315 -0.0219  0.0497
    4BIM     N540671   8.242   2.244  10.399  0.2005 -0.0633 -0.0191
    4BIM     N640672   8.137   2.514  10.073  0.0465 -0.0402  0.0494
    4BIM    C1940673   8.049   2.268   9.852 -0.0240 -0.0260  0.0615
    4BIM    C2040674   8.075   2.165   9.935  0.0179 -0.0320  0.0414
    4BIM    C2140675   8.053   2.023   9.890  0.0107 -0.0294  0.0366
    4BIM    C2240676   8.090   1.937  10.004  0.0637 -0.0374  0.0133
    4BIM    C2340677   8.087   1.798  10.011  0.0772 -0.0383  0.0014
    4BIM    C2440678   8.127   1.739  10.129  0.1302 -0.0466 -0.0204
    4BIM    C2540679   8.168   1.817  10.238  0.1684 -0.0538 -0.0299
    4BIM    C2640680   8.172   1.955  10.233  0.1554 -0.0529 -0.0181
    4BIM    C2740681   8.132   2.017  10.113  0.1020 -0.0446  0.0040
    4BIM    C2840682   8.124   2.160  10.075  0.0751 -0.0415  0.0209
    4BIM    C2940683   8.156   2.268  10.154  0.0989 -0.0465  0.0180
    4BIM    C3040684   8.203   2.254  10.289  0.1547 -0.0557 -0.0024
    4BIM    C3140685   8.146   2.403  10.109  0.0699 -0.0430  0.0353
    5BIM     F140686   8.121   1.253   8.394  0.0975  0.2137 -0.0305
    5BIM     F240687   7.967   1.190   8.179 -0.0820  0.0509  0.1438
    5BIM     O140688   7.919   1.737   8.527  0.1361  0.2663 -0.1628
    5BIM     N540689   7.601   1.445   7.964 -0.3121 -0.1458  0.3004
    5BIM     N640690   7.474   1.836   8.111 -0.2455 -0.0719  0.1619
    5BIM    C1940691   7.700   1.849   8.368 -0.0212  0.1294 -0.0436
    5BIM    C2040692   7.757   1.730   8.343 -0.0241  0.1225 -0.0167
    5BIM    C2140693   7.869   1.679   8.429  0.0598  0.1957 -0.0827
    5BIM    C2240694   7.907   1.547   8.375  0.0331  0.1670 -0.0317
    5BIM    C2340695   8.006   1.462   8.421  0.0877  0.2128 -0.0639
    5BIM    C2440696   8.024   1.342   8.353  0.0472  0.1721 -0.0034
    5BIM    C2540697   7.945   1.310   8.242 -0.0453  0.0882  0.0866
    5BIM    C2640698   7.845   1.395   8.195 -0.1001  0.0422  0.1192
    5BIM    C2740699   7.826   1.516   8.263 -0.0602  0.0823  0.0587
    5BIM    C2840700   7.730   1.627   8.239 -0.0992  0.0517  0.0715
    5BIM    C2940701   7.635   1.633   8.139 -0.1876 -0.0274  0.1500
    5BIM    C3040702   7.617   1.530   8.043 -0.2557 -0.0922  0.2325
    5BIM    C3140703   7.547   1.745   8.124 -0.2190 -0.0514  0.1559
    1BTD     S240704   2.026   7.950   2.347  0.0986  0.0042 -0.2361
    1BTD     N140705   2.077   7.777   2.352  0.1146  0.0124 -0.1044
    1BTD     N240706   2.187   8.014   2.396  0.0631  0.0503 -0.1779
    1BTD     N340707   2.607   7.833   2.503  0.0194  0.1583  0.1777
    1BTD     N440708   2.471   7.541   2.449  0.0829  0.1115  0.2685
    1BTD     C540709   2.284   7.658   2.404  0.0973  0.0644  0.0892
    1BTD     C640710   2.204   7.776   2.388  0.0937  0.0470 -0.0280
    1BTD     C740711   2.266   7.909   2.412  0.0648  0.0682 -0.0692
    1BTD     C840712   2.404   7.916   2.451  0.0411  0.1061  0.0088
    1BTD    C1540713   2.479   7.797   2.465  0.0456  0.1221  0.1228
    1BTD    C1640714   2.419   7.669   2.442  0.0733  0.1017  0.1625
    1BTD    C4340715   2.601   7.508   2.380 -0.4029 -0.0045 -0.7841
    1BTD    C4440716   2.677   7.374   2.405  0.2247 -0.0067  0.0855
    1BTD    C4540717   2.719   7.367   2.546 -0.4894  0.1537  0.1116
    1BTD    C4640718   2.779   7.232   2.592 -0.7424 -0.9833  1.1129
    1BTD    C4740719   2.774   7.333   2.296 -0.6265 -0.5456 -0.5091
    1BTD    C4840720   2.731   7.339   2.148 -0.3726 -0.0739 -0.1143
    1BTD    C4940721   2.601   7.285   2.091 -0.0247  0.1466 -0.0446
    1BTD    C5040722   2.577   7.317   1.949 -0.0410 -0.0294  0.4633
    1BTD    C7540723   2.697   7.752   2.588 -0.1115  0.0090 -0.2997
    1BTD    C7640724   2.850   7.771   2.589  0.3880  0.5720  0.6432
    1BTD    C7740725   2.918   7.687   2.696 -0.9720  0.2778  0.0245
    1BTD    C7840726   2.902   7.730   2.845  0.1408 -0.0241 -0.2522
    1BTD    C7940727   2.918   7.730   2.454  0.2353 -0.4168  0.1597
    1BTD    C8040728   2.876   7.803   2.331  0.3562  0.5701  0.8786
    1BTD    C8140729   2.934   7.735   2.202  0.1657 -0.9523 -0.1427
    1BTD    C8240730   2.887   7.815   2.088 -0.1053  0.4061  0.5204
    2TTP     S140731   2.109   7.416   2.365  0.3424 -0.2595  0.0296
    2TTP     S540732   2.438   7.163   2.479  0.1287 -0.4414  0.2462
    2TTP     C140733   2.289   7.060   2.462  0.0755 -0.3540  0.1823
    2TTP     C240734   2.178   7.132   2.426  0.1383 -0.2925  0.1116
    2TTP     C340735   2.208   7.271   2.410  0.2308 -0.3126  0.1054
    2TTP     C440736   2.258   7.519   2.383  0.3957 -0.3471  0.0936
    2TTP    C1740737   2.368   7.447   2.419  0.3329 -0.4085  0.1643
    2TTP    C1840738   2.339   7.308   2.434  0.2404 -0.3885  0.1704
    2TTP    C3240739   2.045   7.087   2.389 -0.2393  0.4900  0.2366
    2TTP    C3340740   2.024   7.051   2.244  0.1890 -0.1794 -0.4194
    2TTP    C3440741   2.057   7.159   2.136  0.3885 -0.2803 -0.2836
    2TTP    C3540742   2.044   7.094   1.998  0.2333  0.0494 -0.0379
    2TTP    C3640743   2.073   7.192   1.881 -0.3898  0.7394  0.1306
    2TTP    C3740744   2.078   7.126   1.742  0.3091 -0.3478 -0.3762
    2TTP    C3840745   2.109   7.218   1.625 -0.4071  0.0343  0.2071
    2TTP    C3940746   2.251   7.284   1.623 -0.6639  0.4032 -0.3751
    2TTP    C4040747   2.297   7.326   1.480  0.4567 -0.2393 -0.5310
    2TTP    C4140748   2.415   7.408   1.504 -0.3904  0.1971  0.1564
    2TTP    C4240749   2.536   7.353   1.419  0.1331 -0.3425 -0.5883
    3TTP     S140750   2.485   8.206   2.480  0.0305 -0.0548 -0.1615
    3TTP     S540751   2.886   8.086   2.577 -0.0286  0.0210  0.1820
    3TTP     C140752   2.880   8.267   2.571  0.0418  0.0126 -0.2546
    3TTP     C240753   2.756   8.315   2.541  0.0643 -0.0112 -0.3864
    3TTP     C340754   2.661   8.210   2.521  0.0266 -0.0238 -0.1473
    3TTP     C440755   2.491   8.025   2.486 -0.0399 -0.0463  0.2751
    3TTP    C1740756   2.615   7.977   2.516 -0.0624 -0.0224  0.4069
    3TTP    C1840757   2.710   8.082   2.536 -0.0247 -0.0098  0.1678
    3TTP    C3240758   2.713   8.464   2.527  0.1333  0.5074 -0.2940
    3TTP    C3340759   2.664   8.515   2.390 -0.5878 -0.1681  0.2347
    3TTP    C3440760   2.632   8.660   2.390  0.9173 -0.1120 -0.2173
    3TTP    C3540761   2.573   8.714   2.257 -0.1413  0.2978  0.0570
    3TTP    C3640762   2.445   8.642   2.207 -0.0227 -0.3250 -0.5913
    3TTP    C3740763   2.325   8.641   2.304 -0.2490 -0.2530  0.4176
    3TTP    C3840764   2.220   8.532   2.289  0.5203  0.0876  0.1506
    3TTP    C3940765   2.118   8.559   2.179  0.6118  0.1544 -0.1545
    3TTP    C4040766   1.993   8.475   2.175 -0.8633 -0.2618  0.1797
    3TTP    C4140767   1.895   8.533   2.080  0.4912 -0.6176 -0.1259
    3TTP    C4240768   1.764   8.461   2.067  0.3862 -0.0287  0.3066
    4BIM     F140769   2.764   6.520   2.851 -0.0789  0.2475  0.0014
    4BIM     F240770   2.591   6.324   2.778  0.0874  0.1262 -0.0688
    4BIM     O140771   2.526   6.954   2.632 -0.2969  0.0834 -0.0876
    4BIM     N540772   2.172   6.350   2.516  0.1712 -0.1651 -0.2331
    4BIM     N640773   2.021   6.729   2.359 -0.0326 -0.2688 -0.2885
    4BIM    C1940774   2.276   6.921   2.483 -0.2153 -0.0908 -0.1863
    4BIM    C2040775   2.343   6.819   2.542 -0.1670 -0.0447 -0.1612
    4BIM    C2140776   2.471   6.844   2.616 -0.2138  0.0445 -0.1107
    4BIM    C2240777   2.517   6.714   2.666 -0.1418  0.0758 -0.0939
    4BIM    C2340778   2.631   6.686   2.741 -0.1521  0.1552 -0.0495
    4BIM    C2440779   2.653   6.554   2.777 -0.0738  0.1704 -0.0420
    4BIM    C2540780   2.564   6.453   2.739  0.0119  0.1078 -0.0781
    4BIM    C2640781   2.450   6.480   2.665  0.0225  0.0284 -0.1227
    4BIM    C2740782   2.425   6.613   2.627 -0.0559  0.0119 -0.1310
    4BIM    C2840783   2.315   6.674   2.549 -0.0680 -0.0647 -0.1736
    4BIM    C2940784   2.207   6.608   2.494 -0.0004 -0.1396 -0.2165
    4BIM    C3040785   2.188   6.466   2.506  0.0938 -0.1534 -0.2255
    4BIM    C3140786   2.106   6.675   2.420 -0.0185 -0.2103 -0.2559
    5BIM     F140787   3.677   8.181   2.750  0.0677 -0.1349 -0.1923
    5BIM     F240788   3.709   8.448   2.708  0.0539 -0.1135 -0.0705
    5BIM     O140789   3.146   8.126   2.664  0.0564 -0.1085 -0.1389
    5BIM     N540790   3.376   8.793   2.586  0.0260 -0.0641  0.1425
    5BIM     N640791   2.954   8.696   2.527  0.0200 -0.0479  0.1597
    5BIM    C1940792   2.987   8.362   2.593  0.0391 -0.0789 -0.0036
    5BIM    C2040793   3.120   8.365   2.617  0.0426 -0.0863 -0.0218
    5BIM    C2140794   3.194   8.240   2.653  0.0514 -0.1013 -0.0924
    5BIM    C2240795   3.335   8.279   2.671  0.0531 -0.1063 -0.0949
    5BIM    C2340796   3.442   8.197   2.705  0.0605 -0.1194 -0.1498
    5BIM    C2440797   3.567   8.256   2.717  0.0606 -0.1219 -0.1401
    5BIM    C2540798   3.583   8.394   2.695  0.0535 -0.1110 -0.0774
    5BIM    C2640799   3.477   8.476   2.661  0.0461 -0.0973 -0.0224
    5BIM    C2740800   3.350   8.418   2.649  0.0459 -0.0951 -0.0312
    5BIM    C2840801   3.218   8.476   2.614  0.0391 -0.0825  0.0162
    5BIM    C2940802   3.192   8.609   2.586  0.0312 -0.0696  0.0827
    5BIM    C3040803   3.294   8.709   2.586  0.0284 -0.0668  0.1153
    5BIM    C3140804   3.062   8.656   2.554  0.0251 -0.0577  0.1246
    1BTD     S240805   7.149   8.722   7.813  0.1308  0.1701  0.0162
    1BTD     N140806   7.118   8.886   7.746  0.1233  0.1965  0.0829
    1BTD     N240807   7.306   8.767   7.888  0.1889  0.1144 -0.0710
    1BTD     N340808   7.569   9.155   7.920  0.2942  0.0474 -0.1286
    1BTD     N440809   7.337   9.301   7.744  0.2133  0.1488  0.0609
    1BTD     C540810   7.235   9.101   7.747  0.1713  0.1705  0.0691
    1BTD     C640811   7.220   8.961   7.781  0.1626  0.1638  0.0389
    1BTD     C740812   7.326   8.895   7.861  0.1993  0.1175 -0.0471
    1BTD     C840813   7.440   8.971   7.903  0.2428  0.0806 -0.0987
    1BTD    C1540814   7.450   9.107   7.867  0.2499  0.0890 -0.0666
    1BTD    C1640815   7.349   9.171   7.790  0.2144  0.1329  0.0165
    1BTD    C4340816   7.436   9.416   7.724 -0.4621  0.3621  0.2674
    1BTD    C4440817   7.518   9.410   7.596 -0.1859  0.5853 -0.0861
    1BTD    C4540818   7.431   9.387   7.466 -0.5187 -0.1361  0.5311
    1BTD    C4640819   7.505   9.367   7.334 -0.2687  0.2986  0.1875
    1BTD    C4740820   7.615   9.529   7.584 -0.2340 -0.4600 -1.2824
    1BTD    C4840821   7.716   9.566   7.694 -0.1167 -0.3804  0.0368
    1BTD    C4940822   7.815   9.454   7.727  0.8896 -0.4147 -0.2366
    1BTD    C5040823   7.915   9.419   7.611  0.0364  0.0148  0.3691
    1BTD    C7540824   7.589   9.292   7.968  0.0300 -0.4264 -0.4835
    1BTD    C7640825   7.536   9.324   8.111 -0.1031 -0.0088 -0.8227
    1BTD    C7740826   7.588   9.458   8.179  0.5957  0.6699 -0.0878
    1BTD    C7840827   7.737   9.487   8.181 -0.0025  0.0144  0.2760
    1BTD    C7940828   7.390   9.303   8.137  0.1626  0.2537  0.0075
    1BTD    C8040829   7.293   9.396   8.073  0.3167  0.7741  0.2283
    1BTD    C8140830   7.147   9.359   8.106  0.0021  0.1571  0.5795
    1BTD    C8240831   7.051   9.437   8.014  0.2688 -0.1408  0.1262
    2TTP     S140832   6.974   9.203   7.632 -0.1596  0.3042  0.2104
    2TTP     S540833   7.135   9.602   7.625  0.1111  0.1893 -0.1206
    2TTP     C140834   6.963   9.608   7.565  0.1127  0.2573 -0.1185
    2TTP     C240835   6.904   9.485   7.564  0.0291  0.2971 -0.0162
    2TTP     C340836   6.991   9.382   7.610 -0.0390  0.2747  0.0644
    2TTP     C440837   7.146   9.198   7.692 -0.1611  0.2360  0.2084
    2TTP    C1740838   7.206   9.320   7.693 -0.0776  0.1966  0.1061
    2TTP    C1840839   7.118   9.423   7.647 -0.0094  0.2186  0.0256
    2TTP    C3240840   6.755   9.453   7.523  0.2996 -0.9597 -0.6387
    2TTP    C3340841   6.667   9.426   7.650 -0.0838  0.2702 -0.1570
    2TTP    C3440842   6.623   9.546   7.736  0.7473  0.1522 -0.0362
    2TTP    C3540843   6.501   9.604   7.662  0.2701 -0.5892 -0.0301
    2TTP    C3640844   6.516   9.760   7.652 -0.1799  1.0241 -0.3530
    2TTP    C3740845   6.417   9.830   7.562 -0.6210  0.1798  0.6873
    2TTP    C3840846   6.459   9.975   7.544  0.7070  0.3838 -0.2083
    2TTP    C3940847   6.364  10.045   7.440 -1.2028 -0.5314 -0.2077
    2TTP    C4040848   6.385  10.195   7.453 -0.6959 -0.0780 -0.5810
    2TTP    C4140849   6.280  10.266   7.369 -0.1927 -0.8402 -0.6075
    2TTP    C4240850   6.313  10.414   7.354  0.2445  0.1321  0.2920
    3TTP     S140851   7.632   8.794   8.061  0.0133  0.0653  0.3022
    3TTP     S540852   7.900   9.129   8.093  0.3732 -0.2086  0.1655
    3TTP     C140853   7.975   8.987   8.179  0.0581 -0.1547  0.5335
    3TTP     C240854   7.896   8.875   8.174 -0.0718 -0.0665  0.5975
    3TTP     C340855   7.774   8.898   8.102  0.0732 -0.0389  0.3581
    3TTP     C440856   7.558   8.936   7.975  0.3284  0.0112 -0.0660
    3TTP    C1740857   7.636   9.048   7.980  0.4581 -0.0765 -0.1301
    3TTP    C1840858   7.758   9.025   8.052  0.3134 -0.1044  0.1094
    3TTP    C3240859   7.928   8.739   8.236  0.9020  0.4475  0.3153
    3TTP    C3340860   7.821   8.695   8.337  0.2919  0.2076  0.1507
    3TTP    C3440861   7.822   8.552   8.397  0.0350 -0.2084  0.0322
    3TTP    C3540862   7.782   8.433   8.305 -0.8952  0.1221 -0.3210
    3TTP    C3640863   7.794   8.300   8.378  0.3808 -0.0888  0.2617
    3TTP    C3740864   7.664   8.270   8.460  0.0854  0.3576  0.3198
    3TTP    C3840865   7.646   8.130   8.518 -0.1242 -0.8605 -0.7533
    3TTP    C3940866   7.662   8.013   8.418 -0.4329 -0.4614 -0.4988
    3TTP    C4040867   7.655   7.868   8.466  0.7577 -0.1857  0.7474
    3TTP    C4140868   7.510   7.834   8.487  0.7408 -0.6383 -0.0748
    3TTP    C4240869   7.495   7.693   8.535  0.4211 -0.1205 -0.2305
    4BIM     F140870   7.114  10.409   7.638 -0.1115  0.1930  0.0094
    4BIM     F240871   6.924  10.456   7.449 -0.1392  0.1170  0.0181
    4BIM     O140872   7.083   9.870   7.682  0.0380  0.1903  0.0818
    4BIM     N540873   6.628  10.140   7.210 -0.0724  0.0057  0.0823
    4BIM     N640874   6.642   9.709   7.282  0.0499  0.0189  0.1372
    4BIM    C1940875   6.890   9.724   7.518  0.0645  0.1167  0.1158
    4BIM    C2040876   6.906   9.858   7.514  0.0280  0.1203  0.0974
    4BIM    C2140877   7.007   9.926   7.601  0.0166  0.1592  0.0807
    4BIM    C2240878   6.997  10.070   7.572 -0.0249  0.1528  0.0627
    4BIM    C2340879   7.071  10.173   7.629 -0.0483  0.1803  0.0435
    4BIM    C2440880   7.045  10.302   7.586 -0.0867  0.1674  0.0287
    4BIM    C2540881   6.946  10.326   7.489 -0.1008  0.1282  0.0332
    4BIM    C2640882   6.872  10.224   7.432 -0.0776  0.1007  0.0525
    4BIM    C2740883   6.898  10.092   7.474 -0.0386  0.1132  0.0674
    4BIM    C2840884   6.838   9.963   7.434 -0.0068  0.0916  0.0890
    4BIM    C2940885   6.738   9.944   7.342 -0.0091  0.0525  0.0992
    4BIM    C3040886   6.678  10.052   7.269 -0.0440  0.0270  0.0898
    4BIM    C3140887   6.686   9.815   7.309  0.0234  0.0343  0.1200
    5BIM     F140888   8.664   9.426   8.098 -0.1087 -0.0162 -0.2441
    5BIM     F240889   8.753   9.318   8.331  0.1428 -0.1078 -0.3815
    5BIM     O140890   8.187   9.175   8.045 -0.2546  0.1485  0.2692
    5BIM     N540891   8.542   8.984   8.629  0.4013 -0.1228 -0.2136
    5BIM     N640892   8.151   8.810   8.541  0.2367  0.0246  0.2155
    5BIM    C1940893   8.103   8.983   8.249 -0.0654  0.1192  0.3201
    5BIM    C2040894   8.219   9.050   8.253 -0.0391  0.0815  0.1965
    5BIM    C2140895   8.256   9.147   8.144 -0.1409  0.0997  0.1781
    5BIM    C2240896   8.388   9.202   8.180 -0.0796  0.0484  0.0319
    5BIM    C2340897   8.462   9.296   8.109 -0.1361  0.0441 -0.0339
    5BIM    C2440898   8.585   9.333   8.162 -0.0591 -0.0092 -0.1728
    5BIM    C2540899   8.631   9.278   8.283  0.0705 -0.0563 -0.2434
    5BIM    C2640900   8.557   9.184   8.354  0.1276 -0.0525 -0.1786
    5BIM    C2740901   8.432   9.145   8.301  0.0508  0.0010 -0.0374
    5BIM    C2840902   8.331   9.049   8.351  0.0811  0.0196  0.0608
    5BIM    C2940903   8.339   8.974   8.466  0.1984 -0.0145  0.0310
    5BIM    C3040904   8.450   8.980   8.555  0.3095 -0.0737 -0.1032
    5BIM    C3140905   8.235   8.884   8.507  0.2189  0.0072  0.1328
    1BTD     S240906   8.275   6.432   6.714 -0.0301 -0.1459 -0.0953
    1BTD     N140907   8.440   6.502   6.733 -0.0491 -0.0911 -0.1316
    1BTD     N240908   8.324   6.266   6.762  0.0124 -0.1045  0.0041
    1BTD     N340909   8.721   6.053   6.895  0.0646  0.0781  0.1410
    1BTD     N440910   8.864   6.344   6.859 -0.0110  0.0949 -0.0261
    1BTD     C540911   8.660   6.416   6.799 -0.0281  0.0060 -0.0746
    1BTD     C640912   8.519   6.403   6.772 -0.0238 -0.0472 -0.0709
    1BTD     C740913   8.454   6.271   6.789  0.0103 -0.0548  0.0049
    1BTD     C840914   8.533   6.158   6.831  0.0386 -0.0091  0.0734
    1BTD    C1540915   8.671   6.176   6.856  0.0336  0.0422  0.0672
    1BTD    C1640916   8.733   6.303   6.841  0.0002  0.0493 -0.0060
    1BTD    C4340917   8.979   6.281   6.929  0.7597 -0.2283 -0.5363
    1BTD    C4440918   8.997   6.318   7.086  0.1839 -0.8214  1.0843
    1BTD    C4540919   8.867   6.300   7.166  0.5993  0.0665  0.5291
    1BTD    C4640920   8.870   6.327   7.320  0.0534 -0.0112  0.8996
    1BTD    C4740921   9.110   6.241   7.154 -0.4799 -0.3922 -0.2407
    1BTD    C4840922   9.251   6.237   7.092 -0.1979 -0.0781  0.2238
    1BTD    C4940923   9.316   6.377   7.071  0.0305  0.0541 -0.1883
    1BTD    C5040924   9.462   6.376   7.044 -0.1811 -0.0122  0.4813
    1BTD    C7540925   8.858   5.993   6.887  0.0670  0.1766 -0.1264
    1BTD    C7640926   8.893   5.911   6.765  0.7902 -0.1429  0.2904
    1BTD    C7740927   8.901   5.987   6.629 -0.0363 -0.0898  0.1924
    1BTD    C7840928   9.016   6.085   6.614  0.1782  0.1080  1.0647
    1BTD    C7940929   8.995   5.804   6.799 -0.6281  0.7199 -0.4942
    1BTD    C8040930   9.056   5.703   6.697  0.1325 -0.2947  0.2134
    1BTD    C8140931   8.977   5.636   6.586 -0.1756 -0.7346 -0.1330
    1BTD    C8240932   9.067   5.600   6.468 -0.1269 -0.6380 -0.3978
    2TTP     S140933   8.761   6.696   6.728  0.0122  0.1155  0.1564
    2TTP     S540934   9.157   6.575   6.845  0.0284  0.2763  0.2719
    2TTP     C140935   9.165   6.746   6.784  0.0041  0.2237  0.1214
    2TTP     C240936   9.043   6.793   6.744 -0.0021  0.1709  0.0770
    2TTP     C340937   8.939   6.696   6.761  0.0117  0.1702  0.1600
    2TTP     C440938   8.754   6.525   6.790  0.0367  0.1682  0.3070
    2TTP    C1740939   8.875   6.477   6.830  0.0427  0.2210  0.3512
    2TTP    C1840940   8.979   6.574   6.813  0.0288  0.2218  0.2683
    2TTP    C3240941   9.013   6.934   6.696 -0.4385 -0.0492 -0.1195
    2TTP    C3340942   8.930   7.024   6.792 -0.3800 -0.2874  0.3886
    2TTP    C3440943   8.877   7.149   6.730  0.6642  0.3602  0.1416
    2TTP    C3540944   8.775   7.223   6.817 -0.1604 -0.2207  0.5711
    2TTP    C3640945   8.833   7.315   6.922  0.1828  0.0409 -0.0469
    2TTP    C3740946   8.730   7.405   6.981 -0.2221 -0.3890 -0.2860
    2TTP    C3840947   8.639   7.494   6.896 -0.6272 -0.3845 -0.1670
    2TTP    C3940948   8.707   7.598   6.812 -0.6202  0.3102  0.3602
    2TTP    C4040949   8.802   7.694   6.887 -0.0831  1.1627 -0.2263
    2TTP    C4140950   8.856   7.811   6.806 -0.5822 -0.3603 -0.7047
    2TTP    C4240951   8.959   7.887   6.878 -0.1392 -0.8089 -0.5461
    3TTP     S140952   8.354   5.919   6.856 -0.1826  0.0360  0.1756
    3TTP     S540953   8.681   5.699   7.029  0.0315  0.0751 -0.1764
    3TTP     C140954   8.534   5.592   7.029  0.0567  0.0388 -0.0661
    3TTP     C240955   8.424   5.654   6.975 -0.0079  0.0248  0.0489
    3TTP     C340956   8.453   5.787   6.933 -0.0796  0.0420  0.0545
    3TTP     C440957   8.502   6.025   6.857 -0.2079  0.0722  0.0653
    3TTP    C1740958   8.612   5.963   6.910 -0.1434  0.0864 -0.0498
    3TTP    C1840959   8.583   5.830   6.953 -0.0718  0.0691 -0.0551
    3TTP    C3240960   8.284   5.597   6.942 -0.0030  0.1589 -0.2638
    3TTP    C3340961   8.157   5.659   7.002  0.1889  0.1357 -0.2511
    3TTP    C3440962   8.036   5.569   7.029 -0.0596  0.4497 -0.2752
    3TTP    C3540963   7.945   5.527   6.916 -0.3280 -0.5352  0.3560
    3TTP    C3640964   7.836   5.435   6.958  0.0556  0.8928 -0.8737
    3TTP    C3740965   7.791   5.371   6.834  0.0687  0.5773  0.1003
    3TTP    C3840966   7.682   5.269   6.864  0.6998  0.3566  0.4411
    3TTP    C3940967   7.631   5.202   6.730  0.0903  0.8177  0.0319
    3TTP    C4040968   7.547   5.078   6.754 -0.2320  0.1125  0.2289
    3TTP    C4140969   7.503   4.989   6.635 -0.7947  0.1578  0.4482
    3TTP    C4240970   7.615   4.889   6.580 -0.5624 -0.2594 -0.2727
    4BIM     F140971   9.975   6.610   6.736 -0.2723 -0.2712 -0.0129
    4BIM     F240972  10.014   6.878   6.758 -0.1092 -0.2989  0.0371
    4BIM     O140973   9.434   6.583   6.745 -0.2906  0.0614 -0.0901
    4BIM     N540974   9.684   7.245   6.796  0.1125 -0.1013  0.0536
    4BIM     N640975   9.253   7.170   6.799  0.0653  0.1642 -0.0166
    4BIM    C1940976   9.279   6.830   6.770 -0.1413  0.1534 -0.0698
    4BIM    C2040977   9.414   6.826   6.766 -0.1433  0.0707 -0.0522
    4BIM    C2140978   9.486   6.695   6.754 -0.2224  0.0278 -0.0643
    4BIM    C2240979   9.630   6.727   6.753 -0.2024 -0.0610 -0.0396
    4BIM    C2340980   9.737   6.638   6.743 -0.2561 -0.1253 -0.0401
    4BIM    C2440981   9.865   6.692   6.745 -0.2229 -0.2047 -0.0140
    4BIM    C2540982   9.885   6.830   6.757 -0.1387 -0.2187  0.0117
    4BIM    C2640983   9.779   6.919   6.767 -0.0851 -0.1550  0.0124
    4BIM    C2740984   9.648   6.867   6.765 -0.1175 -0.0741 -0.0139
    4BIM    C2840985   9.516   6.933   6.773 -0.0775  0.0062 -0.0207
    4BIM    C2940986   9.493   7.068   6.785  0.0045  0.0186 -0.0013
    4BIM    C3040987   9.598   7.165   6.791  0.0639 -0.0476  0.0287
    4BIM    C3140988   9.361   7.123   6.793  0.0374  0.0987 -0.0100
    5BIM     F140989   9.017   5.066   7.435  0.3176  0.1373 -0.4970
    5BIM     F240990   8.819   4.880   7.420  0.3028  0.1181 -0.0955
    5BIM     O140991   8.784   5.485   7.184 -0.1056  0.0050 -0.3258
    5BIM     N540992   8.368   4.911   7.218 -0.0203 -0.0041  0.6042
    5BIM     N640993   8.226   5.276   7.025 -0.3483 -0.1036  0.6567
    5BIM    C1940994   8.512   5.456   7.080 -0.2703 -0.0605  0.1186
    5BIM    C2040995   8.578   5.358   7.144 -0.1633 -0.0266  0.0598
    5BIM    C2140996   8.718   5.380   7.195 -0.0837  0.0058 -0.1720
    5BIM    C2240997   8.760   5.254   7.258  0.0253  0.0385 -0.1791
    5BIM    C2340998   8.882   5.227   7.320  0.1247  0.0747 -0.3591
    5BIM    C2440999   8.899   5.100   7.373  0.2167  0.1009 -0.3260
    5BIM    C2541000   8.797   5.004   7.365  0.2089  0.0911 -0.1190
    5BIM    C2641001   8.675   5.031   7.304  0.1097  0.0548  0.0612
    5BIM    C2741002   8.656   5.159   7.249  0.0157  0.0279  0.0311
    5BIM    C2841003   8.540   5.219   7.178 -0.1001 -0.0124  0.1862
    5BIM    C2941004   8.421   5.157   7.150 -0.1416 -0.0327  0.4050
    5BIM    C3041005   8.392   5.022   7.188 -0.0749 -0.0170  0.5137
    5BIM    C3141006   8.314   5.223   7.082 -0.2551 -0.0716  0.5423
    1BTD     S241007   4.329   2.580   1.714 -0.1154 -0.0845  0.0181
    1BTD     N141008   4.382   2.709   1.601 -0.0919 -0.0446  0.0745
    1BTD     N241009   4.161   2.571   1.650 -0.0879 -0.0968 -0.0527
    1BTD     N341010   3.915   2.788   1.314  0.0113 -0.0500 -0.0953
    1BTD     N441011   4.186   2.957   1.254  0.0061  0.0143  0.0614
    1BTD     C541012   4.276   2.837   1.420 -0.0405 -0.0147  0.0658
    1BTD     C641013   4.277   2.738   1.525 -0.0659 -0.0427  0.0394
    1BTD     C741014   4.154   2.661   1.552 -0.0637 -0.0719 -0.0318
    1BTD     C841015   4.036   2.687   1.474 -0.0361 -0.0716 -0.0731
    1BTD    C1541016   4.040   2.784   1.372 -0.0119 -0.0436 -0.0451
    1BTD    C1641017   4.159   2.858   1.346 -0.0141 -0.0154  0.0235
    1BTD    C4341018   4.089   3.057   1.190 -0.6645 -0.0552 -0.7748
    1BTD    C4441019   4.050   3.182   1.273 -0.1432  0.1776 -0.7493
    1BTD    C4541020   3.988   3.144   1.410 -0.7291  0.0889 -0.0759
    1BTD    C4641021   3.928   3.245   1.510  0.3135  0.1459  0.4197
    1BTD    C4741022   3.967   3.283   1.196  1.1933 -0.1644  0.0163
    1BTD    C4841023   4.017   3.336   1.063  0.2073 -0.4410  0.1237
    1BTD    C4941024   4.133   3.437   1.077  0.2625 -0.0130  0.4515
    1BTD    C5041025   4.164   3.495   0.935 -0.2123  0.1075 -0.1091
    1BTD    C7541026   3.882   2.819   1.167  0.0837  0.5043 -0.1353
    1BTD    C7641027   3.748   2.870   1.127  0.8336  0.0006 -0.0132
    1BTD    C7741028   3.741   2.904   0.980  0.2924 -0.0091  0.8715
    1BTD    C7841029   3.742   2.780   0.885 -0.5029 -0.6467  0.5355
    1BTD    C7941030   3.705   2.988   1.223 -0.3102  0.0213  0.3909
    1BTD    C8041031   3.585   3.083   1.184 -0.3842  0.4633 -0.7486
    1BTD    C8141032   3.586   3.205   1.287  0.3091  0.2185 -0.1255
    1BTD    C8241033   3.479   3.312   1.256 -0.2891  0.0705 -0.0649
    2TTP     S141034   4.560   2.937   1.362  0.0756  0.2824  0.3015
    2TTP     S541035   4.400   3.190   1.053  0.0008 -0.2676 -0.1132
    2TTP     C141036   4.580   3.214   1.061 -0.0219 -0.1113 -0.0690
    2TTP     C241037   4.640   3.138   1.156 -0.0001  0.0677  0.0618
    2TTP     C341038   4.546   3.057   1.228  0.0352  0.0880  0.1316
    2TTP     C441039   4.380   2.912   1.355  0.0981  0.1261  0.2572
    2TTP    C1741040   4.320   2.989   1.259  0.0764 -0.0530  0.1265
    2TTP    C1841041   4.414   3.070   1.188  0.0411 -0.0731  0.0567
    2TTP    C3241042   4.786   3.125   1.183 -0.2852  0.9621 -0.6785
    2TTP    C3341043   4.843   3.176   1.316 -0.0179 -0.3352  0.6276
    2TTP    C3441044   4.984   3.134   1.351 -0.0868 -0.1222 -0.6728
    2TTP    C3541045   5.024   3.158   1.494 -0.1453  0.4877 -0.1588
    2TTP    C3641046   4.965   3.060   1.598 -0.0365  0.3335  0.3010
    2TTP    C3741047   5.048   3.080   1.725 -0.3396 -0.2832 -0.5394
    2TTP    C3841048   5.067   2.951   1.809  0.0722  0.0068 -0.6328
    2TTP    C3941049   5.151   2.848   1.739  0.5744  0.4990  0.0828
    2TTP    C4041050   5.179   2.717   1.825  0.2488  0.7893  0.3551
    2TTP    C4141051   5.295   2.719   1.922  0.0361 -0.7689 -0.8691
    2TTP    C4241052   5.288   2.603   2.016 -0.0691  0.4778  0.5047
    3TTP     S141053   3.829   2.480   1.542  0.2259 -0.2458 -0.1028
    3TTP     S541054   3.590   2.622   1.214  0.1076  0.0090  0.0933
    3TTP     C141055   3.508   2.476   1.286 -0.1137  0.2377  0.3112
    3TTP     C241056   3.577   2.424   1.391 -0.0901  0.1725  0.2635
    3TTP     C341057   3.697   2.497   1.419  0.1035 -0.0605  0.0531
    3TTP     C441058   3.910   2.626   1.470  0.4473 -0.4746 -0.3207
    3TTP    C1741059   3.841   2.679   1.364  0.4237 -0.4094 -0.2730
    3TTP    C1841060   3.721   2.606   1.336  0.2301 -0.1764 -0.0626
    3TTP    C3241061   3.543   2.310   1.490 -0.0438  0.5521  0.2757
    3TTP    C3341062   3.621   2.179   1.459 -0.1535  0.1808  0.2770
    3TTP    C3441063   3.581   2.059   1.544  0.6411  0.0379 -1.0004
    3TTP    C3541064   3.435   2.014   1.533 -0.4529 -0.0254 -0.3010
    3TTP    C3641065   3.379   1.907   1.626  0.1074  0.3682 -0.1970
    3TTP    C3741066   3.222   1.909   1.630  0.5770 -0.4616  0.1937
    3TTP    C3841067   3.149   1.792   1.692 -0.5315  0.1043 -0.8973
    3TTP    C3941068   3.001   1.810   1.717  0.2183  0.6355 -0.2068
    3TTP    C4041069   2.902   1.838   1.605  0.0261  0.0277  0.5754
    3TTP    C4141070   2.869   1.725   1.512  0.3355  0.4544  0.0420
    3TTP    C4241071   2.733   1.757   1.433 -0.0238  0.3433  0.0306
    4BIM     F141072   4.392   3.635   0.379 -0.2126  0.0443  0.2941
    4BIM     F241073   4.607   3.794   0.425  0.2620 -0.4474 -0.1946
    4BIM     O141074   4.431   3.289   0.794 -0.3282  0.2331  0.4630
    4BIM     N541075   4.945   3.777   0.786  0.8619 -1.0198 -0.7768
    4BIM     N641076   4.933   3.475   1.101  0.6758 -0.7733 -0.5463
    4BIM    C1941077   4.651   3.318   0.985  0.0842 -0.1697  0.0561
    4BIM    C2041078   4.633   3.399   0.879  0.0947 -0.1980  0.0327
    4BIM    C2141079   4.517   3.378   0.785 -0.1251  0.0180  0.2505
    4BIM    C2241080   4.527   3.482   0.681 -0.0511 -0.0766  0.1613
    4BIM    C2341081   4.442   3.503   0.573 -0.1929  0.0551  0.2964
    4BIM    C2441082   4.472   3.609   0.488 -0.0828 -0.0745  0.1718
    4BIM    C2541083   4.583   3.691   0.512  0.1617 -0.3278 -0.0800
    4BIM    C2641084   4.668   3.671   0.620  0.3042 -0.4603 -0.2159
    4BIM    C2741085   4.640   3.564   0.707  0.1961 -0.3324 -0.0929
    4BIM    C2841086   4.709   3.516   0.829  0.2953 -0.4170 -0.1820
    4BIM    C2941087   4.822   3.571   0.885  0.5287 -0.6533 -0.4183
    4BIM    C3041088   4.890   3.684   0.830  0.7110 -0.8540 -0.6146
    4BIM    C3141089   4.882   3.518   1.003  0.6082 -0.7179 -0.4874
    5BIM     F141090   3.201   2.416   0.528  0.1110 -0.1790 -0.0378
    5BIM     F241091   2.995   2.269   0.629  0.1791 -0.2426  0.0087
    5BIM     O141092   3.489   2.510   0.977  0.1056  0.0358 -0.0791
    5BIM     N541093   2.906   2.124   1.094  0.2731 -0.1810  0.0461
    5BIM     N641094   3.172   2.227   1.424  0.2552 -0.0002  0.0045
    5BIM    C1941095   3.395   2.403   1.232  0.1687  0.0514 -0.0494
    5BIM    C2041096   3.331   2.385   1.116  0.1674 -0.0002 -0.0408
    5BIM    C2141097   3.385   2.444   0.988  0.1339 -0.0048 -0.0572
    5BIM    C2241098   3.291   2.405   0.881  0.1417 -0.0664 -0.0422
    5BIM    C2341099   3.300   2.437   0.746  0.1189 -0.0918 -0.0494
    5BIM    C2441100   3.199   2.389   0.663  0.1321 -0.1511 -0.0319
    5BIM    C2541101   3.093   2.313   0.716  0.1673 -0.1838 -0.0080
    5BIM    C2641102   3.084   2.282   0.851  0.1901 -0.1588 -0.0007
    5BIM    C2741103   3.185   2.329   0.936  0.1771 -0.0987 -0.0181
    5BIM    C2841104   3.205   2.313   1.082  0.1944 -0.0594 -0.0163
    5BIM    C2941105   3.123   2.246   1.169  0.2287 -0.0748  0.0042
    5BIM    C3041106   3.004   2.179   1.127  0.2530 -0.1331  0.0271
    5BIM    C3141107   3.151   2.236   1.309  0.2431 -0.0337  0.0042
    1BTD     S241108   6.249   2.850   2.180  0.1458  0.0112 -0.1226
    1BTD     N141109   6.318   2.752   2.314  0.1936 -0.0206 -0.1708
    1BTD     N241110   6.357   2.991   2.209  0.0299  0.0775 -0.0086
    1BTD     N341111   6.702   3.101   2.507 -0.1197  0.1551  0.1363
    1BTD     N441112   6.654   2.806   2.637  0.0819  0.0343 -0.0635
    1BTD     C541113   6.494   2.783   2.481  0.1328  0.0095 -0.1124
    1BTD     C641114   6.413   2.825   2.370  0.1243  0.0178 -0.1031
    1BTD     C741115   6.435   2.959   2.311  0.0327  0.0727 -0.0123
    1BTD     C841116   6.536   3.045   2.366 -0.0457  0.1165  0.0647
    1BTD    C1541117   6.613   3.000   2.475 -0.0341  0.1065  0.0522
    1BTD    C1641118   6.592   2.871   2.532  0.0541  0.0536 -0.0352
    1BTD    C4341119   6.799   2.825   2.663  0.0686  0.2898 -0.7602
    1BTD    C4441120   6.859   2.787   2.801  0.1564 -0.2402 -0.7440
    1BTD    C4541121   6.798   2.883   2.912 -0.3839  0.1129  0.1458
    1BTD    C4641122   6.830   2.862   3.058 -0.2200  0.7697  0.4605
    1BTD    C4741123   7.013   2.797   2.787  0.1150  0.2851 -0.5522
    1BTD    C4841124   7.083   2.684   2.711  0.6789 -0.4843  0.2626
    1BTD    C4941125   7.055   2.546   2.758 -0.4552  0.3988 -0.0840
    1BTD    C5041126   7.122   2.502   2.890  0.2006  0.2457  0.2598
    1BTD    C7541127   6.737   3.135   2.651 -0.3401  0.3052 -0.4077
    1BTD    C7641128   6.868   3.206   2.699  0.6686 -0.0723 -0.1022
    1BTD    C7741129   6.866   3.246   2.851  0.1563  0.7044 -0.0255
    1BTD    C7841130   6.759   3.347   2.888  0.2088 -0.6464 -0.6025
    1BTD    C7941131   6.992   3.144   2.644  0.6295  0.2988  0.2063
    1BTD    C8041132   7.127   3.190   2.691  0.0689 -0.5878  0.1513
    1BTD    C8141133   7.242   3.094   2.671 -0.2564  0.0580  0.2895
    1BTD    C8241134   7.371   3.128   2.748  0.1973  0.5811 -0.0054
    2TTP     S141135   6.396   2.509   2.578 -0.3104  0.0691  0.4590
    2TTP     S541136   6.700   2.526   2.882  0.3314 -0.1979 -0.1613
    2TTP     C141137   6.604   2.373   2.904  0.1279 -0.0297  0.1401
    2TTP     C241138   6.505   2.358   2.812 -0.0824  0.0628  0.3493
    2TTP     C341139   6.501   2.468   2.720 -0.0902  0.0039  0.2793
    2TTP     C441140   6.492   2.662   2.556 -0.1069 -0.0992  0.1576
    2TTP    C1741141   6.591   2.676   2.649  0.1034 -0.1916 -0.0518
    2TTP    C1841142   6.595   2.567   2.740  0.1112 -0.1328  0.0183
    2TTP    C3241143   6.409   2.235   2.815  0.1615 -0.0152  0.4477
    2TTP    C3341144   6.396   2.143   2.691 -0.3124 -0.0815  0.1432
    2TTP    C3441145   6.309   2.027   2.718 -0.0714  0.0276 -0.0144
    2TTP    C3541146   6.284   1.939   2.595 -0.3770  1.1774 -0.3394
    2TTP    C3641147   6.206   1.998   2.487  0.4182 -0.3777 -0.0008
    2TTP    C3741148   6.184   1.905   2.368  0.1058  0.1868 -0.4467
    2TTP    C3841149   6.066   1.922   2.282  0.7013  0.3902  0.2905
    2TTP    C3941150   6.000   2.055   2.254  0.0011 -0.1139 -0.1333
    2TTP    C4041151   5.886   2.062   2.152  0.1172 -0.0792  0.1678
    2TTP    C4141152   5.897   2.029   2.001 -0.5079 -0.0181  0.5427
    2TTP    C4241153   5.972   2.127   1.915  0.5508 -0.9158  0.1902
    3TTP     S141154   6.546   3.309   2.214 -0.2114  0.0009 -0.0199
    3TTP     S541155   6.861   3.444   2.473 -0.0988 -0.0610 -0.1240
    3TTP     C141156   6.825   3.575   2.352 -0.0801 -0.0730 -0.1423
    3TTP     C241157   6.726   3.541   2.265 -0.1136 -0.0545 -0.1113
    3TTP     C341158   6.674   3.410   2.290 -0.1556 -0.0304 -0.0719
    3TTP     C441159   6.582   3.178   2.335 -0.2302  0.0128 -0.0016
    3TTP    C1741160   6.681   3.212   2.422 -0.1966 -0.0056 -0.0326
    3TTP    C1841161   6.733   3.343   2.397 -0.1547 -0.0299 -0.0720
    3TTP    C3241162   6.653   3.633   2.170 -0.0304 -0.6357 -0.0138
    3TTP    C3341163   6.595   3.575   2.037 -0.0091 -0.3140 -0.1758
    3TTP    C3441164   6.599   3.677   1.920  0.2838  0.8385  0.0946
    3TTP    C3541165   6.529   3.816   1.937 -0.2017  0.9187 -0.4426
    3TTP    C3641166   6.573   3.916   1.832 -0.0281  0.2069  0.1250
    3TTP    C3741167   6.501   4.048   1.829 -0.4643 -0.1815 -0.4518
    3TTP    C3841168   6.567   4.148   1.737 -0.0772  0.5819 -0.6332
    3TTP    C3941169   6.705   4.204   1.789  0.1471 -0.5632  0.4498
    3TTP    C4041170   6.702   4.310   1.907  0.2934  0.2990  0.6296
    3TTP    C4141171   6.833   4.347   1.969  0.5604  0.0625 -0.2343
    3TTP    C4241172   6.816   4.422   2.095 -0.0028  0.4610 -0.1379
    4BIM     F141173   6.972   2.437   3.638 -0.0151 -0.2366  0.0396
    4BIM     F241174   6.971   2.165   3.656 -0.1029 -0.2414 -0.0430
    4BIM     O141175   6.718   2.511   3.166  0.0235 -0.0112  0.0538
    4BIM     N541176   6.788   1.828   3.343 -0.2013 -0.0878 -0.1516
    4BIM     N641177   6.590   1.940   2.971 -0.1534  0.0892 -0.1239
    4BIM    C1941178   6.627   2.278   3.014 -0.0464  0.0642 -0.0200
    4BIM    C2041179   6.691   2.270   3.133 -0.0527  0.0076 -0.0205
    4BIM    C2141180   6.735   2.394   3.205 -0.0150 -0.0283  0.0189
    4BIM    C2241181   6.801   2.350   3.329 -0.0333 -0.0873  0.0075
    4BIM    C2341182   6.857   2.429   3.428 -0.0110 -0.1357  0.0336
    4BIM    C2441183   6.914   2.364   3.537 -0.0352 -0.1870  0.0157
    4BIM    C2541184   6.913   2.224   3.545 -0.0804 -0.1894 -0.0269
    4BIM    C2641185   6.857   2.145   3.447 -0.1030 -0.1412 -0.0530
    4BIM    C2741186   6.799   2.208   3.336 -0.0789 -0.0889 -0.0355
    4BIM    C2841187   6.732   2.154   3.216 -0.0926 -0.0307 -0.0544
    4BIM    C2941188   6.711   2.021   3.187 -0.1345 -0.0153 -0.0954
    4BIM    C3041189   6.754   1.915   3.273 -0.1711 -0.0553 -0.1262
    4BIM    C3141190   6.645   1.977   3.068 -0.1447  0.0421 -0.1109
    5BIM     F141191   7.539   3.863   2.633  0.0248 -0.0046 -0.3865
    5BIM     F241192   7.447   4.115   2.591 -0.2198 -0.0402 -0.0718
    5BIM     O141193   7.123   3.569   2.450  0.0668 -0.1754 -0.2084
    5BIM     N541194   7.017   4.269   2.400 -0.5416 -0.2134  0.5077
    5BIM     N641195   6.710   3.988   2.266 -0.4596 -0.3396  0.5834
    5BIM    C1941196   6.887   3.706   2.345 -0.1521 -0.2702  0.1555
    5BIM    C2041197   6.995   3.770   2.393 -0.1529 -0.2258  0.0984
    5BIM    C2141198   7.113   3.693   2.445 -0.0367 -0.1787 -0.0907
    5BIM    C2241199   7.212   3.792   2.489 -0.0705 -0.1376 -0.1078
    5BIM    C2341200   7.337   3.768   2.544  0.0068 -0.0870 -0.2586
    5BIM    C2441201   7.414   3.879   2.578 -0.0461 -0.0551 -0.2425
    5BIM    C2541202   7.366   4.009   2.556 -0.1722 -0.0735 -0.0803
    5BIM    C2641203   7.241   4.033   2.501 -0.2496 -0.1240  0.0708
    5BIM    C2741204   7.162   3.923   2.466 -0.1976 -0.1569  0.0570
    5BIM    C2841205   7.027   3.914   2.406 -0.2536 -0.2118  0.1903
    5BIM    C2941206   6.946   4.020   2.370 -0.3753 -0.2435  0.3653
    5BIM    C3041207   6.985   4.156   2.387 -0.4662 -0.2269  0.4429
    5BIM    C3141208   6.817   4.002   2.313 -0.4209 -0.2962  0.4842
    1BTD     S241209   6.247   6.180   8.877  0.2005 -0.0853  0.1057
    1BTD     N141210   6.114   6.288   8.823  0.1575 -0.1558  0.0703
    1BTD     N241211   6.372   6.310   8.877  0.1373 -0.0243  0.1156
    1BTD     N341212   6.384   6.769   8.780 -0.0691 -0.0278  0.0718
    1BTD     N441213   6.067   6.743   8.714 -0.0440 -0.1894  0.0157
    1BTD     C541214   6.093   6.526   8.767  0.0520 -0.1715  0.0427
    1BTD     C641215   6.166   6.409   8.809  0.1012 -0.1316  0.0677
    1BTD     C741216   6.310   6.421   8.839  0.0899 -0.0582  0.0932
    1BTD     C841217   6.374   6.549   8.826  0.0298 -0.0281  0.0923
    1BTD    C1541218   6.299   6.661   8.784 -0.0170 -0.0691  0.0671
    1BTD    C1641219   6.160   6.649   8.756 -0.0061 -0.1399  0.0424
    1BTD    C4341220   6.056   6.882   8.753  0.5672 -0.0142 -0.2538
    1BTD    C4441221   5.963   6.929   8.866  0.4218  0.4142 -0.2421
    1BTD    C4541222   5.961   6.832   8.987 -0.6082 -0.1683  0.2860
    1BTD    C4641223   5.854   6.844   9.089  0.0840  0.1598  0.2763
    1BTD    C4741224   5.958   7.079   8.899  0.8112  0.4466 -0.2426
    1BTD    C4841225   5.968   7.186   8.786  0.4157 -0.1304  0.3607
    1BTD    C4941226   5.844   7.176   8.691  0.4313 -0.2704 -0.0338
    1BTD    C5041227   5.839   7.291   8.593  0.2708 -0.0947  0.5847
    1BTD    C7541228   6.372   6.909   8.731  0.3952  0.0186  0.1233
    1BTD    C7641229   6.399   6.957   8.584 -0.0162 -0.7790  0.6348
    1BTD    C7741230   6.307   7.072   8.540 -0.3182 -0.2282  0.7601
    1BTD    C7841231   6.299   7.123   8.397 -0.2131  0.6569 -0.0717
    1BTD    C7941232   6.551   6.951   8.536  0.3611 -0.1638  0.1795
    1BTD    C8041233   6.632   7.075   8.572 -0.8841 -0.1438  0.1191
    1BTD    C8141234   6.780   7.047   8.549 -0.0425 -0.1106  0.0627
    1BTD    C8241235   6.876   7.162   8.579 -0.3496  0.4078 -0.1866
    2TTP     S141236   5.805   6.453   8.699  0.1181 -0.1485 -0.0105
    2TTP     S541237   5.743   6.853   8.555 -0.2493 -0.1365  0.1798
    2TTP     C141238   5.588   6.759   8.533 -0.2553 -0.1818  0.4109
    2TTP     C241239   5.599   6.630   8.576 -0.1421 -0.1882  0.3660
    2TTP     C341240   5.729   6.600   8.628 -0.0466 -0.1575  0.1471
    2TTP     C441241   5.959   6.547   8.721  0.1242 -0.1032 -0.2415
    2TTP    C1741242   5.949   6.676   8.678  0.0111 -0.0967 -0.1965
    2TTP    C1841243   5.819   6.705   8.626 -0.0843 -0.1274  0.0224
    2TTP    C3241244   5.488   6.528   8.562  0.0197  0.6469 -0.0911
    2TTP    C3341245   5.434   6.472   8.690 -0.2965 -0.1182  0.0037
    2TTP    C3441246   5.374   6.573   8.787 -0.0156 -0.3017  0.0908
    2TTP    C3541247   5.240   6.620   8.750  0.2006  0.3330 -0.1694
    2TTP    C3641248   5.205   6.758   8.806 -0.3789  0.2150  0.0867
    2TTP    C3741249   5.082   6.812   8.743  0.8536 -0.0662 -0.2574
    2TTP    C3841250   5.065   6.962   8.758 -0.6362  0.5155  0.7410
    2TTP    C3941251   4.941   7.016   8.683 -0.0750 -0.1714  0.2185
    2TTP    C4041252   4.891   7.159   8.717 -1.1667 -0.2041 -0.5171
    2TTP    C4141253   4.988   7.275   8.686  0.4635  0.0595  0.3195
    2TTP    C4241254   4.948   7.410   8.747  0.6214 -0.1253  0.4771
    3TTP     S141255   6.653   6.529   8.928 -0.1067  0.1396  0.0460
    3TTP     S541256   6.701   6.954   8.883  0.0837  0.0968 -0.1583
    3TTP     C141257   6.850   6.887   8.963  0.0176  0.0803 -0.0477
    3TTP     C241258   6.844   6.751   8.981 -0.0452  0.0924  0.0219
    3TTP     C341259   6.721   6.696   8.933 -0.0433  0.1154 -0.0095
    3TTP     C441260   6.503   6.596   8.849 -0.0408  0.1563 -0.0646
    3TTP    C1741261   6.509   6.731   8.830  0.0221  0.1442 -0.1342
    3TTP    C1841262   6.632   6.786   8.878  0.0201  0.1210 -0.1025
    3TTP    C3241263   6.962   6.654   9.025  0.2570  0.3620  0.4053
    3TTP    C3341264   6.953   6.511   9.083  0.1348  0.1419  0.2847
    3TTP    C3441265   7.090   6.448   9.085  0.1612  0.4193  0.6656
    3TTP    C3541266   7.125   6.346   9.183  0.3931 -0.0560  0.6274
    3TTP    C3641267   7.269   6.307   9.188  0.7460  0.1407  0.4750
    3TTP    C3741268   7.375   6.397   9.263  0.0448 -0.0097  0.6870
    3TTP    C3841269   7.530   6.356   9.246  0.3215  0.3800 -0.7433
    3TTP    C3941270   7.630   6.429   9.333 -0.3333 -0.0734  0.0380
    3TTP    C4041271   7.651   6.579   9.320  0.3175 -0.6781  0.1163
    3TTP    C4141272   7.649   6.637   9.177 -0.3902  0.2793 -1.0037
    3TTP    C4241273   7.668   6.785   9.184  0.3698 -0.1105 -0.7068
    4BIM     F141274   5.288   7.517   8.402  0.0660  0.0626 -0.0663
    4BIM     F241275   5.048   7.405   8.338  0.0225  0.1297 -0.0229
    4BIM     O141276   5.582   7.076   8.509  0.0045 -0.0273 -0.2661
    4BIM     N541277   4.914   6.929   8.321 -0.0837  0.1622 -0.1032
    4BIM     N641278   5.193   6.607   8.418 -0.1229  0.0786 -0.2682
    4BIM    C1941279   5.458   6.812   8.485 -0.0589  0.0051 -0.2956
    4BIM    C2041280   5.393   6.927   8.461 -0.0415  0.0249 -0.2472
    4BIM    C2141281   5.464   7.059   8.475 -0.0092  0.0066 -0.2351
    4BIM    C2241282   5.365   7.163   8.442  0.0027  0.0360 -0.1791
    4BIM    C2341283   5.384   7.301   8.441  0.0317  0.0322 -0.1500
    4BIM    C2441284   5.276   7.380   8.405  0.0378  0.0642 -0.0974
    4BIM    C2541285   5.153   7.322   8.372  0.0155  0.0989 -0.0750
    4BIM    C2641286   5.133   7.184   8.373 -0.0136  0.1028 -0.1040
    4BIM    C2741287   5.242   7.103   8.408 -0.0201  0.0706 -0.1574
    4BIM    C2841288   5.254   6.955   8.419 -0.0484  0.0653 -0.1984
    4BIM    C2941289   5.155   6.863   8.395 -0.0755  0.0924 -0.1922
    4BIM    C3041290   5.023   6.900   8.354 -0.0799  0.1308 -0.1431
    4BIM    C3141291   5.176   6.722   8.407 -0.1014  0.0846 -0.2341
    5BIM     F141292   7.058   7.676   9.015  0.1251 -0.0694  0.5579
    5BIM     F241293   7.318   7.600   9.040  0.2156 -0.1014 -0.4063
    5BIM     O141294   6.814   7.193   8.984  0.0166 -0.0330  0.8478
    5BIM     N541295   7.518   7.148   9.054  0.2685 -0.1221 -1.5862
    5BIM     N641296   7.275   6.786   9.025  0.1655 -0.0873 -1.1654
    5BIM    C1941297   6.976   6.950   8.997  0.0646 -0.0511  0.0296
    5BIM    C2041298   7.027   7.074   9.004  0.0883 -0.0588 -0.0057
    5BIM    C2141299   6.937   7.195   8.997  0.0612 -0.0486  0.4315
    5BIM    C2241300   7.025   7.313   9.007  0.0976 -0.0610  0.2670
    5BIM    C2341301   6.987   7.447   9.005  0.0899 -0.0578  0.5429
    5BIM    C2441302   7.088   7.541   9.016  0.1303 -0.0716  0.3067
    5BIM    C2541303   7.222   7.502   9.029  0.1768 -0.0882 -0.1898
    5BIM    C2641304   7.260   7.369   9.031  0.1849 -0.0916 -0.4675
    5BIM    C2741305   7.159   7.272   9.020  0.1445 -0.0778 -0.2348
    5BIM    C2841306   7.166   7.123   9.019  0.1407 -0.0771 -0.4225
    5BIM    C2941307   7.280   7.047   9.029  0.1783 -0.0907 -0.8922
    5BIM    C3041308   7.411   7.103   9.043  0.2279 -0.1078 -1.2722
    5BIM    C3141309   7.277   6.904   9.027  0.1711 -0.0887 -1.0397
    1BTD     S241310   2.204   1.843   4.659 -0.1755  0.0775 -0.1945
    1BTD     N141311   2.323   1.956   4.732 -0.0570  0.1613 -0.5101
    1BTD     N241312   2.074   1.966   4.643 -0.2685  0.0117  0.0533
    1BTD     N341313   2.022   2.421   4.744 -0.2444  0.0291 -0.0125
    1BTD     N441314   2.328   2.410   4.854  0.0161  0.2134 -0.7067
    1BTD     C541315   2.322   2.193   4.795 -0.0220  0.1863 -0.6044
    1BTD     C641316   2.262   2.074   4.741 -0.0913  0.1373 -0.4196
    1BTD     C741317   2.123   2.079   4.691 -0.2096  0.0535 -0.1041
    1BTD     C841318   2.051   2.204   4.697 -0.2528  0.0231  0.0106
    1BTD    C1541319   2.113   2.318   4.751 -0.1819  0.0732 -0.1788
    1BTD    C1641320   2.247   2.313   4.799 -0.0679  0.1540 -0.4825
    1BTD    C4341321   2.295   2.527   4.941  0.2762  0.8723 -0.1732
    1BTD    C4441322   2.276   2.501   5.097 -0.3714  0.0951  0.3381
    1BTD    C4541323   2.266   2.630   5.173  1.0404  0.2729  0.1664
    1BTD    C4641324   2.145   2.728   5.148  0.0100 -0.1405 -0.3152
    1BTD    C4741325   2.167   2.396   5.128  0.3693 -0.1036  0.0109
    1BTD    C4841326   2.167   2.330   5.269  0.0176 -0.3248 -0.5542
    1BTD    C4941327   2.288   2.244   5.319  0.4694  0.5315  0.5850
    1BTD    C5041328   2.409   2.314   5.360  0.0078 -0.2962 -0.2078
    1BTD    C7541329   2.035   2.567   4.782  0.0142  0.4390  0.1426
    1BTD    C7641330   2.097   2.661   4.674 -0.2562 -0.0496  0.0762
    1BTD    C7741331   2.041   2.662   4.526 -0.2835  0.1918 -0.0835
    1BTD    C7841332   2.115   2.744   4.420  0.3205  0.4986  0.1984
    1BTD    C7941333   2.105   2.802   4.733  0.1524  0.7583  0.3955
    1BTD    C8041334   1.995   2.902   4.728 -0.2939 -0.4424  0.4868
    1BTD    C8141335   2.036   3.050   4.763 -0.4892  0.7564 -0.3826
    1BTD    C8241336   2.107   3.075   4.898 -0.1280 -0.0642  0.1465
    2TTP     S141337   2.607   2.135   4.851  0.0657 -0.0406 -0.0373
    2TTP     S541338   2.672   2.554   4.922 -0.1570  0.0820 -0.5484
    2TTP     C141339   2.833   2.471   4.918 -0.0995  0.1976 -0.6600
    2TTP     C241340   2.823   2.336   4.896 -0.0272  0.1667 -0.5087
    2TTP     C341341   2.687   2.295   4.881 -0.0148  0.0504 -0.2993
    2TTP     C441342   2.446   2.219   4.855  0.0082 -0.1563  0.0744
    2TTP    C1741343   2.456   2.353   4.877 -0.0641 -0.1254 -0.0771
    2TTP    C1841344   2.592   2.395   4.892 -0.0765 -0.0091 -0.2866
    2TTP    C3241345   2.935   2.236   4.899  0.3136  0.1093 -0.5631
    2TTP    C3341346   2.934   2.141   5.029 -0.0254 -0.4057  0.5642
    2TTP    C3441347   3.040   2.034   5.003 -1.2505 -0.5701  0.2870
    2TTP    C3541348   3.010   1.906   5.075 -0.2586 -0.1197 -0.0858
    2TTP    C3641349   2.891   1.831   5.031  0.1191 -0.0095 -0.2996
    2TTP    C3741350   2.888   1.692   5.089 -0.0775  0.5937  0.2392
    2TTP    C3841351   2.753   1.616   5.063  0.0231 -0.1358 -0.3412
    2TTP    C3941352   2.737   1.507   5.169  0.3452 -0.4380  0.3639
    2TTP    C4041353   2.602   1.438   5.194  0.3772 -0.5424  0.1553
    2TTP    C4141354   2.540   1.362   5.071 -0.8798 -0.4136  0.2709
    2TTP    C4241355   2.398   1.320   5.100  0.1910 -0.2254  0.0409
    3TTP     S141356   1.767   2.174   4.582 -0.1880 -0.1017  0.3658
    3TTP     S541357   1.713   2.598   4.625  0.1602 -0.0004 -0.1762
    3TTP     C141358   1.565   2.529   4.545  0.0404 -0.0042  0.0469
    3TTP     C241359   1.573   2.394   4.527 -0.0741 -0.0357  0.2273
    3TTP     C341360   1.696   2.340   4.576 -0.0715 -0.0579  0.1961
    3TTP     C441361   1.915   2.243   4.662 -0.0682 -0.0979  0.1428
    3TTP    C1741362   1.907   2.378   4.680  0.0464 -0.0664 -0.0376
    3TTP    C1841363   1.784   2.432   4.631  0.0437 -0.0441 -0.0064
    3TTP    C3241364   1.478   2.299   4.456 -0.8188  0.4669 -0.1896
    3TTP    C3341365   1.526   2.273   4.311  0.1169  0.5217 -0.4055
    3TTP    C3441366   1.446   2.163   4.251  0.1177 -0.5995  0.6698
    3TTP    C3541367   1.454   2.034   4.317  0.0102 -0.0051 -0.1145
    3TTP    C3641368   1.430   1.918   4.225  0.7961 -0.1404 -0.1160
    3TTP    C3741369   1.450   1.779   4.286  0.1639  0.2584 -0.6925
    3TTP    C3841370   1.597   1.742   4.318 -0.0178 -0.5937 -0.8470
    3TTP    C3941371   1.585   1.616   4.396 -0.1792  0.8168 -0.2366
    3TTP    C4041372   1.716   1.542   4.441  0.5660  0.2311 -0.1280
    3TTP    C4141373   1.829   1.628   4.495 -0.0622 -0.1857  0.1754
    3TTP    C4241374   1.957   1.544   4.503  0.8289 -0.5683  0.4179
    4BIM     F141375   3.132   3.215   4.769  0.1720 -0.1618  0.0815
    4BIM     F241376   3.370   3.136   4.874  0.0080 -0.0536  0.5369
    4BIM     O141377   2.843   2.760   4.813  0.2632 -0.2666 -0.3862
    4BIM     N541378   3.506   2.697   5.058 -0.1625  0.0271  0.8584
    4BIM     N641379   3.232   2.357   5.071 -0.0582 -0.0765  0.4010
    4BIM    C1941380   2.968   2.522   4.930  0.1390 -0.2005 -0.1173
    4BIM    C2041381   3.031   2.640   4.914  0.1225 -0.1783 -0.0175
    4BIM    C2141382   2.961   2.757   4.854  0.1895 -0.2151 -0.1674
    4BIM    C2241383   3.058   2.868   4.852  0.1507 -0.1779 -0.0038
    4BIM    C2341384   3.038   2.998   4.805  0.1882 -0.1928 -0.0604
    4BIM    C2441385   3.145   3.086   4.813  0.1387 -0.1500  0.1250
    4BIM    C2541386   3.267   3.044   4.868  0.0544 -0.0943  0.3595
    4BIM    C2641387   3.288   2.915   4.915  0.0164 -0.0792  0.4175
    4BIM    C2741388   3.181   2.825   4.907  0.0656 -0.1218  0.2320
    4BIM    C2841389   3.169   2.683   4.948  0.0449 -0.1199  0.2329
    4BIM    C2941390   3.268   2.606   5.005 -0.0317 -0.0730  0.4284
    4BIM    C3041391   3.399   2.656   5.034 -0.1033 -0.0181  0.6641
    4BIM    C3141392   3.248   2.469   5.041 -0.0458 -0.0752  0.4122
    5BIM     F141393   1.269   3.282   4.699 -0.0727 -0.0283  0.1428
    5BIM     F241394   1.077   3.238   4.511  0.0878  0.0600 -0.0427
    5BIM     O141395   1.536   2.811   4.685 -0.0468 -0.0134  0.1323
    5BIM     N541396   0.991   2.839   4.232  0.3371  0.1977 -0.3169
    5BIM     N641397   1.238   2.480   4.259  0.3250  0.1916 -0.2877
    5BIM    C1941398   1.447   2.601   4.501  0.1158  0.0763 -0.0487
    5BIM    C2041399   1.387   2.722   4.512  0.1030  0.0691 -0.0386
    5BIM    C2141400   1.439   2.824   4.609  0.0175  0.0220  0.0566
    5BIM    C2241401   1.352   2.942   4.595  0.0257  0.0263  0.0422
    5BIM    C2341402   1.361   3.063   4.664 -0.0368 -0.0082  0.1099
    5BIM    C2441403   1.267   3.160   4.634 -0.0141  0.0041  0.0794
    5BIM    C2541404   1.168   3.137   4.537  0.0687  0.0497 -0.0162
    5BIM    C2641405   1.159   3.018   4.468  0.1313  0.0843 -0.0843
    5BIM    C2741406   1.253   2.917   4.497  0.1096  0.0725 -0.0546
    5BIM    C2841407   1.271   2.781   4.442  0.1603  0.1006 -0.1082
    5BIM    C2941408   1.194   2.721   4.345  0.2444  0.1469 -0.2037
    5BIM    C3041409   1.082   2.786   4.283  0.2951  0.1746 -0.2656
    5BIM    C3141410   1.218   2.589   4.298  0.2882  0.1712 -0.2495
    1BTD     S241411   2.309   3.408   8.800  0.0513 -0.0806  0.0675
    1BTD     N141412   2.363   3.315   8.945  0.0778 -0.2013 -0.0193
    1BTD     N241413   2.450   3.520   8.802  0.0368 -0.0634  0.1523
    1BTD     N341414   2.833   3.580   9.066  0.0550 -0.2464  0.1683
    1BTD     N441415   2.726   3.328   9.242  0.1056 -0.4163 -0.0432
    1BTD     C541416   2.553   3.325   9.098  0.0917 -0.3114 -0.0291
    1BTD     C641417   2.477   3.369   8.985  0.0746 -0.2215  0.0176
    1BTD     C741418   2.525   3.484   8.905  0.0516 -0.1444  0.1135
    1BTD     C841419   2.649   3.548   8.942  0.0470 -0.1611  0.1583
    1BTD    C1541420   2.720   3.501   9.054  0.0641 -0.2502  0.1098
    1BTD    C1641421   2.673   3.391   9.131  0.0863 -0.3245  0.0169
    1BTD    C4341422   2.820   3.374   9.347 -0.3750  0.1671 -0.1529
    1BTD    C4441423   2.779   3.456   9.471 -0.1930 -0.1020  0.0737
    1BTD    C4541424   2.890   3.495   9.579 -0.1827  0.0100  0.0712
    1BTD    C4641425   2.955   3.387   9.668 -0.1199 -0.2612 -0.1193
    1BTD    C4741426   2.665   3.557   9.435 -0.3851  0.3980  0.2192
    1BTD    C4841427   2.598   3.648   9.540  0.7006  0.3161  0.3420
    1BTD    C4941428   2.512   3.561   9.645 -0.1550  0.3415  0.3681
    1BTD    C5041429   2.411   3.459   9.589 -0.0679 -0.0731  0.1637
    1BTD    C7541430   2.962   3.540   9.123 -0.0478 -0.2468 -0.0159
    1BTD    C7641431   3.073   3.482   9.043 -0.2938 -0.0870 -0.0404
    1BTD    C7741432   3.019   3.381   8.940  0.2898  0.6312  0.1383
    1BTD    C7841433   3.108   3.347   8.826  0.1144 -0.2649  0.0767
    1BTD    C7941434   3.188   3.437   9.132  0.1721 -0.5889 -0.4735
    1BTD    C8041435   3.273   3.547   9.205  0.0101  0.0077  0.2732
    1BTD    C8141436   3.379   3.497   9.305  0.4629  0.2323  0.3820
    1BTD    C8241437   3.486   3.407   9.244 -0.0352 -0.8150 -0.3079
    2TTP     S141438   2.403   3.107   9.243 -0.2027  0.0911 -0.1871
    2TTP     S541439   2.728   3.086   9.524 -0.0885 -0.2725 -0.3457
    2TTP     C141440   2.597   2.972   9.578 -0.1040 -0.2767 -0.3922
    2TTP     C241441   2.489   2.972   9.494 -0.1402 -0.1647 -0.3459
    2TTP     C341442   2.506   3.062   9.385 -0.1569 -0.0715 -0.2725
    2TTP     C441443   2.534   3.221   9.189 -0.1872  0.0953 -0.1409
    2TTP    C1741444   2.642   3.221   9.272 -0.1510 -0.0168 -0.1872
    2TTP    C1841445   2.626   3.131   9.382 -0.1342 -0.1099 -0.2606
    2TTP    C3241446   2.358   2.903   9.521 -0.2511  0.3322  0.1112
    2TTP    C3341447   2.231   2.986   9.509  0.0143  0.0373  0.0009
    2TTP    C3441448   2.223   3.089   9.627  0.0574 -0.3753  0.0560
    2TTP    C3541449   2.104   3.188   9.610  0.3501  1.0458 -0.4044
    2TTP    C3641450   2.094   3.295   9.717  0.1779 -0.2623 -0.1293
    2TTP    C3741451   1.994   3.404   9.676 -0.9045  0.3447 -0.6514
    2TTP    C3841452   1.953   3.497   9.784  0.5627 -0.4725  0.3582
    2TTP    C3941453   1.869   3.453   9.910 -0.0481 -0.2667  0.1479
    2TTP    C4041454   1.729   3.401   9.884 -0.2333  0.8571 -0.1951
    2TTP    C4141455   1.631   3.489   9.807 -0.4806  0.6719 -0.0175
    2TTP    C4241456   1.504   3.419   9.811  0.0387 -0.0040 -0.4621
    3TTP     S141457   2.716   3.785   8.754  0.0511  0.1635 -0.1719
    3TTP     S541458   3.061   3.868   8.998  0.0507  0.4196 -0.2587
    3TTP     C141459   3.054   3.990   8.863  0.0465  0.2829 -0.3828
    3TTP     C241460   2.947   3.972   8.780  0.0464  0.1958 -0.3631
    3TTP     C341461   2.867   3.860   8.820  0.0496  0.2338 -0.2496
    3TTP     C441462   2.723   3.663   8.889  0.0552  0.3002 -0.0479
    3TTP    C1741463   2.830   3.681   8.973  0.0554  0.3873 -0.0676
    3TTP    C1841464   2.910   3.793   8.933  0.0522  0.3493 -0.1807
    3TTP    C3241465   2.917   4.054   8.655 -0.2985  0.1362  0.5167
    3TTP    C3341466   2.790   4.142   8.680  0.0220  0.2846  0.2471
    3TTP    C3441467   2.720   4.179   8.542  0.5355  0.6341  0.0274
    3TTP    C3541468   2.577   4.234   8.555 -0.3450  0.1956  0.4194
    3TTP    C3641469   2.554   4.361   8.636  0.2081  0.4173 -1.1393
    3TTP    C3741470   2.630   4.488   8.583  0.1155  0.3503  0.2610
    3TTP    C3841471   2.616   4.622   8.652  0.1708 -0.0287  0.5081
    3TTP    C3941472   2.469   4.661   8.663 -0.1947  0.0752  0.2415
    3TTP    C4041473   2.438   4.791   8.732  0.7995 -0.7220 -0.1892
    3TTP    C4141474   2.298   4.842   8.695  0.2156  0.4383 -0.0533
    3TTP    C4241475   2.260   4.969   8.776  0.0096  0.2581 -0.3129
    4BIM     F141476   3.179   2.701  10.091 -0.0850 -0.0970  0.0633
    4BIM     F241477   2.983   2.594  10.247 -0.1153 -0.1020  0.0217
    4BIM     O141478   2.886   2.915   9.689 -0.0178  0.0596  0.0975
    4BIM     N541479   2.492   2.594  10.185 -0.1109  0.0024 -0.0138
    4BIM     N641480   2.302   2.782   9.840 -0.0523  0.1257  0.0213
    4BIM    C1941481   2.594   2.889   9.696 -0.0228  0.1103  0.0699
    4BIM    C2041482   2.676   2.839   9.791 -0.0386  0.0712  0.0629
    4BIM    C2141483   2.825   2.857   9.780 -0.0347  0.0470  0.0781
    4BIM    C2241484   2.883   2.791   9.899 -0.0550  0.0059  0.0653
    4BIM    C2341485   3.017   2.781   9.933 -0.0593 -0.0271  0.0724
    4BIM    C2441486   3.048   2.714  10.051 -0.0796 -0.0630  0.0573
    4BIM    C2541487   2.947   2.660  10.131 -0.0953 -0.0656  0.0359
    4BIM    C2641488   2.812   2.669  10.097 -0.0911 -0.0328  0.0287
    4BIM    C2741489   2.779   2.736   9.979 -0.0705  0.0040  0.0437
    4BIM    C2841490   2.648   2.764   9.915 -0.0610  0.0439  0.0414
    4BIM    C2941491   2.525   2.726   9.963 -0.0711  0.0538  0.0229
    4BIM    C3041492   2.507   2.653  10.085 -0.0930  0.0255  0.0028
    4BIM    C3141493   2.403   2.757   9.895 -0.0607  0.0933  0.0221
    5BIM     F141494   3.770   4.219   9.206 -0.3383  0.0982  0.3958
    5BIM     F241495   3.751   4.454   9.069  0.2461 -0.2625 -0.3228
    5BIM     O141496   3.324   3.964   9.033 -0.5815  0.3830  0.6025
    5BIM     N541497   3.406   4.610   8.751  0.9130 -0.5780 -1.2088
    5BIM     N641498   3.061   4.364   8.644  0.6052 -0.2829 -0.9029
    5BIM    C1941499   3.148   4.098   8.842 -0.1096  0.1396 -0.0109
    5BIM    C2041500   3.261   4.153   8.891 -0.0712  0.0819 -0.0348
    5BIM    C2141501   3.346   4.078   8.989 -0.3246  0.2154  0.2928
    5BIM    C2241502   3.460   4.166   9.021 -0.2074  0.1081  0.1724
    5BIM    C2341503   3.566   4.140   9.107 -0.3596  0.1721  0.3803
    5BIM    C2441504   3.662   4.239   9.122 -0.2013  0.0442  0.2063
    5BIM    C2541505   3.652   4.359   9.051  0.0996 -0.1414 -0.1637
    5BIM    C2641506   3.547   4.386   8.965  0.2530 -0.2062 -0.3726
    5BIM    C2741507   3.448   4.288   8.949  0.0966 -0.0789 -0.2017
    5BIM    C2841508   3.325   4.285   8.866  0.1922 -0.1025 -0.3438
    5BIM    C2941509   3.280   4.384   8.783  0.4715 -0.2642 -0.6945
    5BIM    C3041510   3.349   4.508   8.766  0.7132 -0.4362 -0.9763
    5BIM    C3141511   3.160   4.372   8.707  0.5434 -0.2735 -0.8070
    1BTD     S241512   3.012   0.809   2.721  0.0575  0.1819 -0.0120
    1BTD     N141513   2.884   0.719   2.632  0.2989  0.1204 -0.3004
    1BTD     N241514   2.946   0.971   2.680 -0.2087  0.1450  0.2587
    1BTD     N341515   2.582   1.139   2.435 -0.3152 -0.0412  0.2894
    1BTD     N441516   2.506   0.828   2.377  0.3102 -0.0716 -0.3995
    1BTD     C541517   2.687   0.779   2.500  0.2973  0.0205 -0.3438
    1BTD     C641518   2.804   0.810   2.579  0.1751  0.0777 -0.1860
    1BTD     C741519   2.838   0.951   2.606 -0.1091  0.0915  0.1270
    1BTD     C841520   2.755   1.055   2.551 -0.2568  0.0474  0.2664
    1BTD    C1541521   2.643   1.021   2.474 -0.1288 -0.0080  0.1032
    1BTD    C1641522   2.609   0.885   2.449  0.1449 -0.0213 -0.1982
    1BTD    C4341523   2.382   0.884   2.322 -0.4852  0.1609 -0.0897
    1BTD    C4441524   2.254   0.889   2.412 -0.0522  0.2629  0.6364
    1BTD    C4541525   2.150   0.987   2.355  0.5518 -0.4273  0.1322
    1BTD    C4641526   2.071   0.955   2.225  0.0970 -0.0790 -0.5176
    1BTD    C4741527   2.195   0.743   2.442  0.1649 -0.1397  0.0902
    1BTD    C4841528   2.071   0.721   2.533  0.1701  0.7224 -0.7831
    1BTD    C4941529   2.096   0.763   2.673  0.2321  0.0879  0.0755
    1BTD    C5041530   1.990   0.732   2.777 -0.0518 -0.1787 -0.1039
    1BTD    C7541531   2.512   1.174   2.313  0.4713  0.2198  0.6525
    1BTD    C7641532   2.603   1.215   2.197 -0.4275  0.7656 -0.0106
    1BTD    C7741533   2.527   1.271   2.074  0.1031 -0.1830  0.5448
    1BTD    C7841534   2.448   1.413   2.088 -0.8028  0.1368  0.3248
    1BTD    C7941535   2.706   1.103   2.171 -0.0233 -0.3013  0.1596
    1BTD    C8041536   2.797   1.138   2.049 -0.7112  0.2520 -0.1695
    1BTD    C8141537   2.905   1.035   2.017 -0.4032  0.5174 -0.4301
    1BTD    C8241538   2.999   1.090   1.915 -0.1362 -0.0775 -0.3907
    2TTP     S141539   2.661   0.476   2.465  0.1377 -0.1038  0.3161
    2TTP     S541540   2.324   0.545   2.208  0.1341 -0.1079  0.3197
    2TTP     C141541   2.360   0.367   2.209 -0.0582 -0.1479  0.5640
    2TTP     C241542   2.467   0.335   2.288 -0.0685 -0.1489  0.5773
    2TTP     C341543   2.523   0.450   2.351  0.0752 -0.1183  0.3949
    2TTP     C441544   2.625   0.654   2.465  0.3301 -0.0639  0.0717
    2TTP    C1741545   2.518   0.686   2.385  0.3403 -0.0627  0.0584
    2TTP    C1841546   2.462   0.571   2.322  0.1966 -0.0934  0.2407
    2TTP    C3241547   2.521   0.196   2.316 -0.2128  0.4041  0.1766
    2TTP    C3341548   2.491   0.127   2.444 -0.0476  0.0587 -0.5107
    2TTP    C3441549   2.550  -0.011   2.431 -0.2321  0.2161  0.0381
    2TTP    C3541550   2.532  -0.108   2.544  0.4156  0.5434 -0.1096
    2TTP    C3641551   2.589  -0.246   2.509  0.2762  0.0397 -0.0977
    2TTP    C3741552   2.580  -0.352   2.615 -1.2154 -0.0224  0.1220
    2TTP    C3841553   2.642  -0.488   2.574  0.3048  0.1155 -0.4926
    2TTP    C3941554   2.792  -0.513   2.537 -0.3291  0.9163 -0.2999
    2TTP    C4041555   2.890  -0.472   2.654 -0.4560  0.2084  0.1855
    2TTP    C4141556   3.039  -0.507   2.647  0.0896 -0.4218 -0.6590
    2TTP    C4241557   3.129  -0.478   2.522  0.1281 -0.3769 -0.4175
    3TTP     S141558   2.862   1.334   2.627  0.0250  0.1045  0.2292
    3TTP     S541559   2.521   1.506   2.431  0.0762 -0.0430  0.0103
    3TTP     C141560   2.621   1.640   2.501  0.0900  0.0137 -0.1172
    3TTP     C241561   2.732   1.595   2.566  0.0749  0.0626 -0.0571
    3TTP     C341562   2.742   1.452   2.562  0.0521  0.0570  0.0917
    3TTP     C441563   2.762   1.199   2.557  0.0113  0.0479  0.3567
    3TTP    C1741564   2.650   1.244   2.492  0.0263 -0.0011  0.2966
    3TTP    C1841565   2.640   1.387   2.496  0.0492  0.0045  0.1477
    3TTP    C3241566   2.842   1.677   2.624 -0.5191  0.6119 -0.2907
    3TTP    C3341567   2.957   1.697   2.524  0.2525  0.2091 -0.6130
    3TTP    C3441568   3.087   1.720   2.601 -0.0314 -0.4866 -0.3862
    3TTP    C3541569   3.206   1.711   2.502  0.0744  0.3111 -0.0432
    3TTP    C3641570   3.339   1.718   2.577 -0.2905  0.0682 -0.6792
    3TTP    C3741571   3.471   1.684   2.513  0.1629 -1.5245  0.7684
    3TTP    C3841572   3.483   1.545   2.442 -0.2485 -0.3667 -0.2718
    3TTP    C3941573   3.629   1.506   2.427  0.1943  0.0374  0.7752
    3TTP    C4041574   3.650   1.360   2.382  0.2361 -0.1440 -0.3871
    3TTP    C4141575   3.615   1.321   2.233 -0.0802 -0.1161 -0.4269
    3TTP    C4241576   3.691   1.400   2.129 -0.5428  0.7914 -0.5384
    4BIM     F141577   1.664   0.354   1.771  0.0461  0.0187 -0.2842
    4BIM     F241578   1.681   0.082   1.759 -0.2351 -0.0300  0.3453
    4BIM     O141579   2.107   0.473   2.057  0.1736  0.2251 -0.5666
    4BIM     N541580   2.023  -0.223   1.947 -0.5487  0.0472  1.0490
    4BIM     N641581   2.366  -0.075   2.173 -0.3924  0.2184  0.7015
    4BIM    C1941582   2.282   0.256   2.148 -0.0499  0.2520 -0.0656
    4BIM    C2041583   2.169   0.236   2.076 -0.0710  0.2020 -0.0191
    4BIM    C2141584   2.085   0.353   2.033  0.0492  0.1913 -0.2885
    4BIM    C2241585   1.971   0.297   1.958 -0.0099  0.1332 -0.1568
    4BIM    C2341586   1.866   0.366   1.898  0.0611  0.1044 -0.3164
    4BIM    C2441587   1.770   0.291   1.832 -0.0174  0.0496 -0.1414
    4BIM    C2541588   1.779   0.152   1.826 -0.1623  0.0246  0.1829
    4BIM    C2641589   1.884   0.082   1.886 -0.2338  0.0531  0.3436
    4BIM    C2741590   1.982   0.156   1.953 -0.1561  0.1086  0.1704
    4BIM    C2841591   2.104   0.113   2.026 -0.1994  0.1499  0.2680
    4BIM    C2941592   2.148  -0.016   2.042 -0.3330  0.1414  0.5672
    4BIM    C3041593   2.079  -0.129   1.990 -0.4511  0.0896  0.8310
    4BIM    C3141594   2.268  -0.048   2.114 -0.3648  0.1838  0.6394
    5BIM     F141595   1.949   2.050   2.265 -0.0606  0.0932  0.5640
    5BIM     F241596   2.107   2.261   2.201  0.0851 -0.2487 -0.2197
    5BIM     O141597   2.314   1.704   2.465 -0.1041  0.0628  0.5910
    5BIM     N541598   2.597   2.318   2.250  0.2637 -0.7618 -1.3275
    5BIM     N641599   2.850   2.006   2.420  0.2005 -0.7167 -1.1485
    5BIM    C1941600   2.596   1.783   2.474  0.0198 -0.2746 -0.1483
    5BIM    C2041601   2.498   1.862   2.427  0.0250 -0.2536 -0.1245
    5BIM    C2141602   2.355   1.814   2.425 -0.0411 -0.0760  0.2664
    5BIM    C2241603   2.275   1.923   2.367 -0.0164 -0.0997  0.1868
    5BIM    C2341604   2.138   1.926   2.346 -0.0582  0.0278  0.4577
    5BIM    C2441605   2.084   2.040   2.290 -0.0226 -0.0261  0.3125
    5BIM    C2541606   2.166   2.149   2.256  0.0526 -0.2023 -0.0914
    5BIM    C2641607   2.303   2.148   2.278  0.0946 -0.3302 -0.3633
    5BIM    C2741608   2.359   2.032   2.334  0.0595 -0.2782 -0.2219
    5BIM    C2841609   2.499   1.999   2.370  0.0879 -0.3797 -0.4293
    5BIM    C2941610   2.610   2.079   2.353  0.1590 -0.5568 -0.8277
    5BIM    C3041611   2.602   2.210   2.296  0.2163 -0.6689 -1.1010
    5BIM    C3141612   2.741   2.038   2.389  0.1814 -0.6437 -1.0018
    1BTD     S241613   6.762   6.899   2.258 -0.1450 -0.1020  0.1149
    1BTD     N141614   6.860   6.765   2.326  0.1968 -0.1494 -0.4576
    1BTD     N241615   6.630   6.793   2.199 -0.3442 -0.0820  0.5237
    1BTD     N341616   6.536   6.333   2.203 -0.1326 -0.1270  0.3232
    1BTD     N441617   6.820   6.298   2.359  0.5339 -0.2102 -0.8858
    1BTD     C541618   6.836   6.522   2.341  0.3648 -0.1801 -0.6666
    1BTD     C641619   6.792   6.653   2.303  0.1475 -0.1481 -0.3214
    1BTD     C741620   6.663   6.669   2.232 -0.1554 -0.1103  0.2277
    1BTD     C841621   6.584   6.552   2.203 -0.2258 -0.1066  0.4045
    1BTD    C1541622   6.631   6.425   2.243 -0.0059 -0.1387  0.0527
    1BTD    C1641623   6.755   6.410   2.311  0.2859 -0.1750 -0.4764
    1BTD    C4341624   6.828   6.179   2.276  0.9978  0.3453  0.3920
    1BTD    C4441625   6.838   6.038   2.336 -0.6437  0.0417 -0.0850
    1BTD    C4541626   6.743   6.007   2.448  0.2005 -0.1488  0.3697
    1BTD    C4641627   6.761   5.892   2.533 -0.0042 -0.1460  0.1857
    1BTD    C4741628   6.846   5.923   2.234  0.1403  0.5080  0.2368
    1BTD    C4841629   6.974   5.905   2.151 -0.4298  0.1905  0.2037
    1BTD    C4941630   7.107   5.901   2.227 -0.3249 -0.4846  0.4182
    1BTD    C5041631   7.236   5.871   2.150  0.1420  0.4042  0.0842
    1BTD    C7541632   6.506   6.215   2.289  0.1513 -0.0467 -0.4451
    1BTD    C7641633   6.446   6.092   2.225 -0.6561  0.0814 -0.2586
    1BTD    C7741634   6.531   6.035   2.111  0.1758  0.1936 -0.0522
    1BTD    C7841635   6.464   5.934   2.017  0.3803 -0.1966  0.2383
    1BTD    C7941636   6.387   5.987   2.313  0.4216 -0.2305 -0.5570
    1BTD    C8041637   6.270   6.016   2.413  0.2206 -0.2665 -0.1385
    1BTD    C8141638   6.306   6.070   2.558 -0.1404 -0.0196  0.2164
    1BTD    C8241639   6.390   5.970   2.637 -0.1709  0.4693 -0.2943
    2TTP     S141640   7.085   6.538   2.520 -0.0774 -0.0160  0.1474
    2TTP     S541641   7.033   6.122   2.616  0.4108 -0.1688 -0.2410
    2TTP     C141642   7.175   6.186   2.710  0.1727 -0.0204  0.0217
    2TTP     C241643   7.199   6.318   2.686  0.0080  0.0355  0.1571
    2TTP     C341644   7.107   6.374   2.592  0.0638 -0.0368  0.0583
    2TTP     C441645   6.943   6.474   2.426  0.1607 -0.1644 -0.1153
    2TTP    C1741646   6.918   6.342   2.450  0.3255 -0.2203 -0.2507
    2TTP    C1841647   7.011   6.286   2.544  0.2695 -0.1479 -0.1519
    2TTP    C3241648   7.320   6.399   2.739 -0.0294  0.2029  0.6962
    2TTP    C3341649   7.440   6.440   2.646  0.5741  0.0503  0.1007
    2TTP    C3441650   7.505   6.328   2.568  0.6328  0.4072 -0.5163
    2TTP    C3541651   7.640   6.352   2.502  0.1926  0.0602  0.2733
    2TTP    C3641652   7.709   6.221   2.461  0.1831 -0.3001 -0.2309
    2TTP    C3741653   7.840   6.202   2.541 -0.2304  0.2402  0.1522
    2TTP    C3841654   7.845   6.193   2.698  0.5273 -0.2652 -0.0709
    2TTP    C3941655   7.978   6.151   2.763  0.9105  0.3965  0.1283
    2TTP    C4041656   7.956   6.121   2.912 -0.2524  0.7580 -0.0587
    2TTP    C4141657   8.068   6.037   2.971 -0.2847 -0.0991  0.3654
    2TTP    C4241658   8.051   6.008   3.116  0.1828  0.3323 -0.2011
    3TTP     S141659   6.336   6.633   2.046  0.1078 -0.2507  0.2156
    3TTP     S541660   6.204   6.223   2.050  0.0178 -0.2228  0.1293
    3TTP     C141661   6.082   6.322   1.958  0.0163 -0.1687  0.1892
    3TTP     C241662   6.116   6.455   1.951  0.0441 -0.1740  0.2194
    3TTP     C341663   6.239   6.483   2.019  0.0675 -0.2211  0.1963
    3TTP     C441664   6.457   6.534   2.138  0.1094 -0.3048  0.1557
    3TTP    C1741665   6.424   6.402   2.145  0.0815 -0.2996  0.1255
    3TTP    C1841666   6.301   6.374   2.077  0.0582 -0.2524  0.1487
    3TTP    C3241667   6.039   6.562   1.872  0.0272 -0.5202 -0.0968
    3TTP    C3341668   6.095   6.627   1.753  0.1405  0.5462  0.5096
    3TTP    C3441669   6.012   6.744   1.701  0.1083 -0.0116 -0.0028
    3TTP    C3541670   6.009   6.869   1.789 -0.2772 -0.7398  0.3713
    3TTP    C3641671   5.948   6.997   1.718  0.0575  0.2273 -0.0602
    3TTP    C3741672   5.960   7.132   1.794 -0.1876  0.5325  0.6378
    3TTP    C3841673   5.918   7.247   1.699 -0.2142 -0.8435 -0.3515
    3TTP    C3941674   5.927   7.386   1.767 -0.0013  0.2267  0.1467
    3TTP    C4041675   6.052   7.429   1.831 -0.4508  0.1970  0.0708
    3TTP    C4141676   6.057   7.581   1.834 -0.1706  0.6388  0.2768
    3TTP    C4241677   6.187   7.633   1.902  0.3835 -0.0557 -0.6392
    4BIM     F141678   7.130   5.445   3.067 -0.0409  0.0166 -0.0691
    4BIM     F241679   7.373   5.492   3.180  0.0138 -0.0496 -0.1587
    4BIM     O141680   7.053   5.906   2.794  0.0063  0.0188 -0.0789
    4BIM     N541681   7.667   5.889   3.148  0.1264 -0.1431 -0.2944
    4BIM     N641682   7.558   6.240   2.912  0.1521 -0.1280 -0.2840
    4BIM    C1941683   7.257   6.115   2.805  0.0753 -0.0437 -0.1679
    4BIM    C2041684   7.267   5.997   2.869  0.0614 -0.0416 -0.1619
    4BIM    C2141685   7.158   5.895   2.859  0.0257 -0.0086 -0.1150
    4BIM    C2241686   7.201   5.780   2.940  0.0186 -0.0153 -0.1208
    4BIM    C2341687   7.132   5.660   2.961 -0.0113  0.0074 -0.0871
    4BIM    C2441688   7.192   5.565   3.042 -0.0122 -0.0046 -0.1007
    4BIM    C2541689   7.318   5.590   3.100  0.0163 -0.0387 -0.1469
    4BIM    C2641690   7.387   5.709   3.080  0.0459 -0.0616 -0.1809
    4BIM    C2741691   7.327   5.806   2.998  0.0473 -0.0497 -0.1676
    4BIM    C2841692   7.373   5.941   2.957  0.0747 -0.0674 -0.1947
    4BIM    C2941693   7.491   6.002   2.993  0.1066 -0.1009 -0.2413
    4BIM    C3041694   7.587   5.940   3.078  0.1172 -0.1240 -0.2704
    4BIM    C3141695   7.527   6.133   2.948  0.1315 -0.1156 -0.2646
    5BIM     F141696   5.608   5.686   2.162 -0.0801  0.1897  0.2086
    5BIM     F241697   5.483   5.710   1.922  0.3778 -0.2049 -0.0730
    5BIM     O141698   5.955   6.101   2.139 -0.3384  0.4158  0.3767
    5BIM     N541699   5.551   6.041   1.560  0.8521 -0.6111 -0.3579
    5BIM     N641700   5.847   6.360   1.590  0.5583 -0.3549 -0.1698
    5BIM    C1941701   5.959   6.271   1.902  0.0072  0.1192  0.1675
    5BIM    C2041702   5.877   6.166   1.917  0.0545  0.0777  0.1362
    5BIM    C2141703   5.881   6.083   2.042 -0.1327  0.2383  0.2495
    5BIM    C2241704   5.779   5.978   2.026 -0.0231  0.1429  0.1798
    5BIM    C2341705   5.746   5.877   2.116 -0.1274  0.2321  0.2419
    5BIM    C2441706   5.646   5.788   2.078  0.0118  0.1113  0.1542
    5BIM    C2541707   5.582   5.801   1.954  0.2477 -0.0919  0.0092
    5BIM    C2641708   5.614   5.901   1.864  0.3529 -0.1817 -0.0534
    5BIM    C2741709   5.715   5.992   1.900  0.2148 -0.0621  0.0336
    5BIM    C2841710   5.772   6.108   1.828  0.2718 -0.1101  0.0010
    5BIM    C2941711   5.736   6.153   1.704  0.4854 -0.2939 -0.1295
    5BIM    C3041712   5.634   6.091   1.625  0.6864 -0.4677 -0.2546
    5BIM    C3141713   5.797   6.267   1.642  0.5242 -0.3264 -0.1509
    1BTD     S241714   6.812   2.428   1.916 -0.2598 -0.1406 -0.1277
    1BTD     N141715   6.943   2.509   2.009 -0.2222 -0.1882 -0.1389
    1BTD     N241716   6.782   2.568   1.808 -0.2741 -0.1004 -0.0715
    1BTD     N341717   6.955   3.001   1.756 -0.2353 -0.1046  0.0230
    1BTD     N441718   7.154   2.929   2.004 -0.1713 -0.2127 -0.0599
    1BTD     C541719   7.051   2.729   2.003 -0.1963 -0.1997 -0.0966
    1BTD     C641720   6.956   2.631   1.958 -0.2223 -0.1725 -0.1020
    1BTD     C741721   6.866   2.664   1.845 -0.2514 -0.1234 -0.0643
    1BTD     C841722   6.875   2.794   1.784 -0.2531 -0.1040 -0.0232
    1BTD    C1541723   6.969   2.887   1.832 -0.2273 -0.1318 -0.0195
    1BTD    C1641724   7.056   2.855   1.940 -0.1993 -0.1791 -0.0557
    1BTD    C4341725   7.148   3.080   2.019 -0.2698  0.3178 -0.1862
    1BTD    C4441726   7.275   3.162   2.056  0.1659  0.2297 -0.5336
    1BTD    C4541727   7.385   3.179   1.949  1.0061  0.2960  0.0021
    1BTD    C4641728   7.442   3.057   1.873 -0.3201 -0.0082  0.5552
    1BTD    C4741729   7.222   3.297   2.124  0.0380  0.1788  0.1080
    1BTD    C4841730   7.311   3.393   2.202  0.3249  0.7891 -0.4774
    1BTD    C4941731   7.366   3.328   2.332 -0.1494 -0.0907  0.0469
    1BTD    C5041732   7.462   3.430   2.405  0.6219  0.0495 -0.1388
    1BTD    C7541733   7.070   3.090   1.713  0.5793  0.4133  0.2807
    1BTD    C7641734   7.145   3.058   1.578 -0.0983 -0.5739  0.3640
    1BTD    C7741735   7.242   3.178   1.531 -0.4321  0.3183 -0.4702
    1BTD    C7841736   7.179   3.318   1.521 -0.2651  0.3935  0.5238
    1BTD    C7941737   7.213   2.924   1.568  0.6012  0.6614 -1.0272
    1BTD    C8041738   7.248   2.872   1.435 -0.2601 -0.9631  0.4718
    1BTD    C8141739   7.345   2.765   1.428  0.4013  0.3074 -0.6619
    1BTD    C8241740   7.360   2.722   1.279 -0.1670  0.1604  0.0629
    2TTP     S141741   7.229   2.612   2.224  0.0577  0.1104  0.2522
    2TTP     S541742   7.444   2.984   2.251 -0.1503  0.2306  0.2571
    2TTP     C141743   7.512   2.868   2.374 -0.3342  0.3925  0.5123
    2TTP     C241744   7.450   2.747   2.373 -0.2809  0.3648  0.5258
    2TTP     C341745   7.346   2.740   2.275 -0.0926  0.2149  0.3352
    2TTP     C441746   7.162   2.728   2.101  0.2415 -0.0515 -0.0029
    2TTP    C1741747   7.224   2.849   2.102  0.1884 -0.0239 -0.0164
    2TTP    C1841748   7.328   2.855   2.200  0.0001  0.1260  0.1743
    2TTP    C3241749   7.477   2.626   2.463 -0.5170  0.0052  0.3952
    2TTP    C3341750   7.371   2.564   2.552 -0.1057  0.2960  0.1260
    2TTP    C3441751   7.416   2.428   2.625  0.9139 -0.3623 -0.1415
    2TTP    C3541752   7.493   2.323   2.548  0.3107 -0.1892  0.1401
    2TTP    C3641753   7.525   2.199   2.636 -0.5042 -0.8528  0.3680
    2TTP    C3741754   7.595   2.098   2.545  0.3674  0.0490  0.1180
    2TTP    C3841755   7.668   1.987   2.623 -0.1977  0.1375 -0.2929
    2TTP    C3941756   7.712   1.855   2.542 -0.0184 -0.2396 -0.7687
    2TTP    C4041757   7.793   1.875   2.414  0.5185 -0.2155  0.2736
    2TTP    C4141758   7.935   1.938   2.417  0.4128 -0.4895 -0.0980
    2TTP    C4241759   8.003   1.927   2.282 -0.6389 -0.0433 -0.1137
    3TTP     S141760   6.655   2.830   1.579 -0.1191  0.2898  0.0210
    3TTP     S541761   6.757   3.246   1.545  0.4789  0.1513  0.1132
    3TTP     C141762   6.608   3.215   1.446  0.5781  0.3366 -0.0974
    3TTP     C241763   6.567   3.085   1.451  0.3994  0.3902 -0.1383
    3TTP     C341764   6.653   3.005   1.532  0.1775  0.2871 -0.0048
    3TTP     C441765   6.804   2.861   1.677 -0.2183  0.1045  0.2317
    3TTP    C1741766   6.845   2.991   1.673 -0.0394  0.0509  0.2726
    3TTP    C1841767   6.759   3.071   1.591  0.1825  0.1541  0.1390
    3TTP    C3241768   6.436   3.024   1.394  0.3182  0.1998  0.6076
    3TTP    C3341769   6.446   2.938   1.263 -0.7628 -0.3410 -0.1369
    3TTP    C3441770   6.563   2.837   1.255  0.4485  0.1984  0.5580
    3TTP    C3541771   6.528   2.738   1.140  0.7655 -0.2278 -0.2169
    3TTP    C3641772   6.605   2.614   1.145 -0.0835 -0.6255  0.7301
    3TTP    C3741773   6.561   2.514   1.041  0.2992  1.1887 -0.0552
    3TTP    C3841774   6.647   2.390   1.063  0.4610 -0.1193  0.8941
    3TTP    C3941775   6.624   2.273   0.969  1.0185  0.5970  0.1406
    3TTP    C4041776   6.698   2.146   1.002 -0.5201  0.1179  0.2656
    3TTP    C4141777   6.683   2.078   1.137 -0.3028 -0.0484 -0.4640
    3TTP    C4241778   6.813   2.017   1.185 -0.4271  0.4985  0.0711
    4BIM     F141779   8.115   3.425   2.393 -0.4854  0.4414  0.1936
    4BIM     F241780   8.158   3.360   2.654  0.2229 -0.3070 -0.1034
    4BIM     O141781   7.722   3.076   2.263 -0.5031  0.4867  0.1244
    4BIM     N541782   7.940   3.017   2.936  1.2286 -1.3505 -0.5796
    4BIM     N641783   7.625   2.757   2.782  1.0722 -1.1643 -0.5738
    4BIM    C1941784   7.624   2.889   2.466  0.1676 -0.2122 -0.1839
    4BIM    C2041785   7.721   2.980   2.489  0.1442 -0.1944 -0.1549
    4BIM    C2141786   7.766   3.072   2.379 -0.2102  0.1756  0.0067
    4BIM    C2241787   7.872   3.157   2.437 -0.1400  0.0944 -0.0028
    4BIM    C2341788   7.944   3.258   2.374 -0.3862  0.3486  0.1174
    4BIM    C2441789   8.040   3.324   2.449 -0.2562  0.2056  0.0803
    4BIM    C2541790   8.062   3.291   2.583  0.1085 -0.1799 -0.0728
    4BIM    C2641791   7.991   3.190   2.647  0.3557 -0.4353 -0.1934
    4BIM    C2741792   7.893   3.121   2.573  0.2294 -0.2958 -0.1580
    4BIM    C2841793   7.801   3.011   2.610  0.4185 -0.4886 -0.2576
    4BIM    C2941794   7.792   2.950   2.732  0.7790 -0.8674 -0.4147
    4BIM    C3041795   7.874   2.987   2.844  1.0251 -1.1317 -0.5048
    4BIM    C3141796   7.700   2.844   2.759  0.9382 -1.0285 -0.5014
    5BIM     F141797   6.526   4.031   1.441  0.2698 -0.0432 -0.0390
    5BIM     F241798   6.366   4.007   1.222 -0.0859  0.0399  0.2095
    5BIM     O141799   6.636   3.511   1.544  0.1884 -0.0989 -0.2330
    5BIM     N541800   6.215   3.603   0.980 -0.6553  0.1194  0.4286
    5BIM     N641801   6.334   3.201   1.104 -0.6472  0.0591  0.2270
    5BIM    C1941802   6.523   3.304   1.371 -0.1805 -0.0394 -0.0644
    5BIM    C2041803   6.501   3.435   1.353 -0.1460 -0.0287 -0.0253
    5BIM    C2141804   6.563   3.536   1.446  0.0473 -0.0610 -0.1177
    5BIM    C2241805   6.520   3.669   1.400  0.0355 -0.0388 -0.0443
    5BIM    C2341806   6.551   3.793   1.454  0.1793 -0.0558 -0.0889
    5BIM    C2441807   6.498   3.905   1.392  0.1343 -0.0285 -0.0013
    5BIM    C2541808   6.416   3.893   1.279 -0.0490  0.0142  0.1266
    5BIM    C2641809   6.384   3.769   1.224 -0.1930  0.0313  0.1718
    5BIM    C2741810   6.437   3.654   1.286 -0.1503  0.0042  0.0846
    5BIM    C2841811   6.422   3.510   1.253 -0.2692  0.0122  0.1013
    5BIM    C2941812   6.349   3.457   1.149 -0.4575  0.0501  0.2129
    5BIM    C3041813   6.276   3.537   1.056 -0.5655  0.0881  0.3312
    5BIM    C3141814   6.341   3.317   1.125 -0.5606  0.0548  0.2201
    1BTD     S241815   5.158   4.793   4.518  0.2596  0.4413 -0.2511
    1BTD     N141816   4.995   4.726   4.550  0.3304  0.3449 -0.0960
    1BTD     N241817   5.097   4.927   4.413  0.0829  0.3972 -0.2056
    1BTD     N341818   4.679   5.076   4.260 -0.1494  0.1333  0.1673
    1BTD     N441819   4.553   4.828   4.429  0.1556  0.0687  0.3024
    1BTD     C541820   4.765   4.782   4.485  0.2354  0.2013  0.1103
    1BTD     C641821   4.908   4.802   4.485  0.2242  0.2878 -0.0221
    1BTD     C741822   4.965   4.914   4.408  0.0857  0.3170 -0.0836
    1BTD     C841823   4.878   5.002   4.335 -0.0348  0.2587 -0.0093
    1BTD    C1541824   4.739   4.978   4.338 -0.0187  0.1747  0.1201
    1BTD    C1641825   4.683   4.870   4.412  0.1148  0.1466  0.1792
    1BTD    C4341826   4.433   4.912   4.451  0.1686 -0.2995  0.2167
    1BTD    C4441827   4.286   4.867   4.414 -0.6907 -0.1502 -0.4229
    1BTD    C4541828   4.181   4.950   4.491  0.2488 -0.2066 -0.0630
    1BTD    C4641829   4.179   5.098   4.466  0.4486 -0.1870  0.1441
    1BTD    C4741830   4.271   4.847   4.261  0.9228 -0.4714 -0.6155
    1BTD    C4841831   4.150   4.758   4.216 -0.4171 -0.1068  0.2898
    1BTD    C4941832   4.156   4.749   4.058 -0.1839  0.5998 -0.1490
    1BTD    C5041833   4.054   4.661   3.982  0.6154  0.1605  0.1249
    1BTD    C7541834   4.568   5.042   4.171  0.7315  0.2531 -0.4206
    1BTD    C7641835   4.480   5.154   4.117  0.8408 -0.5414  0.7873
    1BTD    C7741836   4.406   5.232   4.232 -0.4743  0.1957  0.8045
    1BTD    C7841837   4.310   5.344   4.203  0.1920 -0.3073 -0.3945
    1BTD    C7941838   4.379   5.110   4.009  0.0048 -1.1885  0.2709
    1BTD    C8041839   4.423   5.047   3.876 -0.1000  0.0655  0.0764
    1BTD    C8141840   4.561   5.090   3.815  0.5982 -0.5035 -0.0714
    1BTD    C8241841   4.563   5.053   3.666 -0.2795  0.3177  0.0550
    2TTP     S141842   4.702   4.516   4.613  0.0145  0.1772  0.2021
    2TTP     S541843   4.303   4.541   4.455  0.1677 -0.6394 -0.3213
    2TTP     C141844   4.327   4.375   4.526  0.3206 -0.4963 -0.0350
    2TTP     C241845   4.451   4.358   4.579  0.2823 -0.2357  0.1434
    2TTP     C341846   4.532   4.475   4.565  0.1308 -0.1395  0.0606
    2TTP     C441847   4.678   4.682   4.543 -0.1383  0.0343 -0.0842
    2TTP    C1741848   4.553   4.700   4.489 -0.1001 -0.2265 -0.2627
    2TTP    C1841849   4.472   4.583   4.503  0.0514 -0.3225 -0.1798
    2TTP    C3241850   4.497   4.232   4.648  0.2443 -0.5491 -1.0149
    2TTP    C3341851   4.519   4.252   4.800  0.4209  0.6134 -0.2717
    2TTP    C3441852   4.592   4.132   4.870  0.6640  0.5537 -0.2072
    2TTP    C3541853   4.746   4.116   4.844 -0.5378 -0.5158  0.0386
    2TTP    C3641854   4.825   4.013   4.922 -0.0659  0.6368  0.5594
    2TTP    C3741855   4.979   4.022   4.911  0.5555  0.2126  0.8291
    2TTP    C3841856   5.047   3.918   4.999 -0.7810  0.9261  0.3208
    2TTP    C3941857   5.196   3.950   5.004 -0.5029 -0.1561 -0.3419
    2TTP    C4041858   5.269   3.908   5.133 -0.7871 -0.2801 -0.1879
    2TTP    C4141859   5.421   3.925   5.119 -0.7488 -0.0847  0.5337
    2TTP    C4241860   5.501   4.006   5.218  0.0505 -0.6919 -0.3251
    3TTP     S141861   5.042   5.223   4.216  0.0581  0.0212 -0.0723
    3TTP     S541862   4.676   5.416   4.099 -0.0527 -0.3610 -0.3593
    3TTP     C141863   4.815   5.529   4.065 -0.1461 -0.2072 -0.2296
    3TTP     C241864   4.936   5.476   4.100 -0.1174 -0.0802 -0.1334
    3TTP     C341865   4.924   5.345   4.154 -0.0205 -0.0997 -0.1587
    3TTP     C441866   4.904   5.110   4.250  0.1514 -0.1326 -0.2023
    3TTP    C1741867   4.783   5.163   4.216  0.1229 -0.2596 -0.2985
    3TTP    C1841868   4.795   5.295   4.162  0.0259 -0.2402 -0.2731
    3TTP    C3241869   5.077   5.539   4.104 -0.0904 -0.5645  0.4104
    3TTP    C3341870   5.161   5.496   3.987  0.3102  0.3918  0.5149
    3TTP    C3441871   5.307   5.533   3.985 -0.1722  0.0680  0.7610
    3TTP    C3541872   5.404   5.499   4.093 -0.2117 -0.8261  0.1780
    3TTP    C3641873   5.527   5.588   4.072 -0.2780 -0.1502  0.3741
    3TTP    C3741874   5.651   5.555   4.155  0.2391  0.1044  0.3139
    3TTP    C3841875   5.686   5.404   4.169  0.0401 -0.2222  0.2865
    3TTP    C3941876   5.817   5.382   4.232 -0.0557 -0.1666 -0.5839
    3TTP    C4041877   5.843   5.238   4.249 -0.2357  0.2943 -0.4307
    3TTP    C4141878   5.985   5.209   4.298 -0.0628 -0.1289 -0.2226
    3TTP    C4241879   6.005   5.065   4.351  0.0754 -0.6667 -0.1756
    4BIM     F141880   3.533   4.341   4.314  0.1361 -0.0771 -0.2334
    4BIM     F241881   3.515   4.101   4.442 -0.0054 -0.0185 -0.1432
    4BIM     O141882   4.054   4.462   4.399  0.1113 -0.1692  0.0547
    4BIM     N541883   3.859   3.842   4.685 -0.2267  0.0007  0.1917
    4BIM     N641884   4.270   3.985   4.725 -0.2174 -0.0831  0.3985
    4BIM    C1941885   4.221   4.275   4.550 -0.0327 -0.1457  0.2431
    4BIM    C2041886   4.091   4.254   4.524 -0.0210 -0.1249  0.1671
    4BIM    C2141887   4.012   4.355   4.445  0.0546 -0.1388  0.0725
    4BIM    C2241888   3.875   4.301   4.435  0.0479 -0.1096  0.0061
    4BIM    C2341889   3.765   4.359   4.372  0.1035 -0.1099 -0.0899
    4BIM    C2441890   3.645   4.290   4.375  0.0839 -0.0787 -0.1382
    4BIM    C2541891   3.636   4.166   4.441  0.0110 -0.0485 -0.0918
    4BIM    C2641892   3.745   4.108   4.505 -0.0447 -0.0480  0.0041
    4BIM    C2741893   3.867   4.177   4.502 -0.0259 -0.0793  0.0542
    4BIM    C2841894   4.000   4.143   4.559 -0.0712 -0.0875  0.1551
    4BIM    C2941895   4.032   4.030   4.631 -0.1454 -0.0646  0.2240
    4BIM    C3041896   3.937   3.927   4.660 -0.1898 -0.0289  0.2060
    4BIM    C3141897   4.163   4.006   4.682 -0.1848 -0.0749  0.3196
    5BIM     F141898   4.183   6.038   3.942 -0.0260 -0.2401 -0.1144
    5BIM     F241899   4.355   6.214   3.827 -0.0271  0.0588  0.3346
    5BIM     O141900   4.519   5.635   4.074  0.0775 -0.3132 -0.5999
    5BIM     N541901   4.844   6.180   3.755  0.0452  0.4364  0.6341
    5BIM     N641902   5.072   5.829   3.881  0.1261  0.3191  0.1644
    5BIM    C1941903   4.804   5.660   4.010  0.1133 -0.0535 -0.3434
    5BIM    C2041904   4.712   5.754   3.982  0.0873 -0.0468 -0.2387
    5BIM    C2141905   4.568   5.734   4.017  0.0701 -0.1854 -0.3825
    5BIM    C2241906   4.496   5.855   3.973  0.0433 -0.1385 -0.2149
    5BIM    C2341907   4.361   5.883   3.984  0.0204 -0.2279 -0.2654
    5BIM    C2441908   4.316   6.004   3.934 -0.0029 -0.1584 -0.0770
    5BIM    C2541909   4.405   6.095   3.875 -0.0034 -0.0044  0.1542
    5BIM    C2641910   4.541   6.068   3.863  0.0192  0.0854  0.2059
    5BIM    C2741911   4.588   5.946   3.913  0.0429  0.0170  0.0174
    5BIM    C2841912   4.724   5.887   3.916  0.0701  0.0796  0.0119
    5BIM    C2941913   4.839   5.945   3.868  0.0778  0.2265  0.2028
    5BIM    C3041914   4.841   6.074   3.806  0.0597  0.3415  0.4393
    5BIM    C3141915   4.967   5.881   3.875  0.1044  0.2767  0.1805
    1BTD     S241916   7.270   4.216   8.559 -0.2510  0.0409 -0.0464
    1BTD     N141917   7.363   4.130   8.687  0.1917 -0.0612 -0.4272
    1BTD     N241918   7.155   4.081   8.530 -0.4520  0.1255  0.3510
    1BTD     N341919   7.088   3.650   8.704 -0.0625  0.1127  0.4725
    1BTD     N441920   7.343   3.711   8.897  0.7310 -0.1174 -0.4869
    1BTD     C541921   7.349   3.911   8.794  0.4636 -0.0878 -0.4468
    1BTD     C641922   7.306   4.011   8.701  0.1681 -0.0290 -0.2482
    1BTD     C741923   7.190   3.984   8.613 -0.1922  0.0756  0.1876
    1BTD     C841924   7.123   3.856   8.623 -0.2390  0.1161  0.4027
    1BTD    C1541925   7.169   3.761   8.716  0.0580  0.0556  0.1962
    1BTD    C1641926   7.281   3.788   8.800  0.4054 -0.0451 -0.2241
    1BTD    C4341927   7.274   3.629   8.993 -0.0343  0.2439  0.1177
    1BTD    C4441928   7.345   3.511   9.058 -0.1316 -0.9685 -0.2920
    1BTD    C4541929   7.293   3.475   9.201  0.5005 -0.2276  0.3405
    1BTD    C4641930   7.145   3.419   9.208  0.1708  0.0194 -0.0062
    1BTD    C4741931   7.382   3.397   8.968 -0.1941  0.2433  0.5166
    1BTD    C4841932   7.492   3.308   9.025 -0.1070 -0.9915 -0.5336
    1BTD    C4941933   7.541   3.201   8.944  0.2213  0.8261  0.2272
    1BTD    C5041934   7.673   3.149   8.997 -0.3389  0.3499  0.1678
    1BTD    C7541935   7.123   3.504   8.739 -0.3059 -0.6346 -0.0545
    1BTD    C7641936   7.008   3.416   8.788 -0.2877 -0.1285 -0.0483
    1BTD    C7741937   6.929   3.481   8.903  0.3199  0.7082 -0.3566
    1BTD    C7841938   6.796   3.414   8.930  0.4504  0.4328 -0.5943
    1BTD    C7941939   7.038   3.261   8.794  0.5015  0.1826 -0.9546
    1BTD    C8041940   7.086   3.190   8.666 -0.0448  0.4320  0.3954
    1BTD    C8141941   7.128   3.039   8.671  0.2379 -0.5199  0.4331
    1BTD    C8241942   7.021   2.948   8.727  0.1479 -0.1099 -0.7532
    2TTP     S141943   7.604   4.002   8.922  0.3088  0.0336 -0.1143
    2TTP     S541944   7.632   3.620   9.117 -0.0217  0.1096  0.0827
    2TTP     C141945   7.785   3.712   9.149  0.0281  0.0225  0.0972
    2TTP     C241946   7.786   3.836   9.090  0.1329 -0.0063  0.0372
    2TTP     C341947   7.665   3.862   9.018  0.1781  0.0396 -0.0224
    2TTP     C441948   7.450   3.910   8.891  0.2590  0.1206 -0.1287
    2TTP    C1741949   7.450   3.786   8.949  0.1541  0.1492 -0.0685
    2TTP    C1841950   7.571   3.760   9.021  0.1091  0.1035 -0.0091
    2TTP    C3241951   7.902   3.933   9.079 -0.1740 -0.2902  0.2191
    2TTP    C3341952   7.902   4.052   9.179 -0.1847  0.0841  0.3969
    2TTP    C3441953   8.004   4.151   9.140 -0.5917 -0.1033 -0.1453
    2TTP    C3541954   8.010   4.273   9.231 -0.1398 -0.1689  0.3625
    2TTP    C3641955   8.143   4.349   9.229  0.2030 -0.0472  0.3087
    2TTP    C3741956   8.273   4.272   9.257  1.2691 -0.9418 -0.3703
    2TTP    C3841957   8.388   4.359   9.214 -0.0950  0.2473 -0.4258
    2TTP    C3941958   8.523   4.296   9.245 -0.3325 -0.8391  1.2045
    2TTP    C4041959   8.638   4.393   9.214  0.5767 -0.4761 -0.5689
    2TTP    C4141960   8.770   4.330   9.246 -0.4299 -0.2727  0.3015
    2TTP    C4241961   8.882   4.435   9.212 -0.8817 -0.2276  0.1999
    3TTP     S141962   6.893   3.854   8.427 -0.1446 -0.0938 -0.2586
    3TTP     S541963   6.828   3.441   8.525  0.0414 -0.0576  0.0191
    3TTP     C141964   6.717   3.486   8.388 -0.0798 -0.1612  0.0832
    3TTP     C241965   6.730   3.616   8.350 -0.1442 -0.1785  0.0012
    3TTP     C341966   6.829   3.685   8.427 -0.1005 -0.1105 -0.1149
    3TTP     C441967   7.004   3.809   8.563 -0.0236  0.0098 -0.3226
    3TTP    C1741968   6.991   3.679   8.602  0.0409  0.0271 -0.2406
    3TTP    C1841969   6.892   3.610   8.524 -0.0027 -0.0408 -0.1245
    3TTP    C3241970   6.660   3.687   8.235 -0.0686  0.2208  0.1627
    3TTP    C3341971   6.610   3.829   8.240  0.4020 -0.6081  0.6265
    3TTP    C3441972   6.505   3.858   8.128 -0.5424 -0.6786  0.0680
    3TTP    C3541973   6.453   4.003   8.132 -0.5480  0.6791  0.6598
    3TTP    C3641974   6.339   4.037   8.030 -0.1707  0.8661 -0.0761
    3TTP    C3741975   6.219   3.948   8.020  0.4850  0.6322 -0.0231
    3TTP    C3841976   6.094   4.009   7.959  0.3857 -0.4457  0.3957
    3TTP    C3941977   5.973   3.913   7.947 -0.0402  0.2606  0.2437
    3TTP    C4041978   5.844   3.975   7.913  0.3202  0.0673 -0.2949
    3TTP    C4141979   5.718   3.897   7.874  0.3320 -0.3337  0.3466
    3TTP    C4241980   5.588   3.983   7.848 -0.2540 -0.9055 -0.0257
    4BIM     F141981   8.040   2.972   9.366 -0.4675  0.1629  0.2148
    4BIM     F241982   8.148   3.084   9.590 -0.1338  0.1546  0.0582
    4BIM     O141983   7.855   3.412   9.111 -0.3147  0.2322  0.2234
    4BIM     N541984   8.172   3.558   9.729  0.4551  0.1918 -0.1605
    4BIM     N641985   8.005   3.879   9.485  0.5076  0.2477 -0.1223
    4BIM    C1941986   7.892   3.675   9.234  0.0588  0.2488  0.0765
    4BIM    C2041987   7.935   3.560   9.289  0.0072  0.2316  0.0811
    4BIM    C2141988   7.912   3.429   9.220 -0.1872  0.2241  0.1583
    4BIM    C2241989   7.970   3.325   9.307 -0.1961  0.2053  0.1416
    4BIM    C2341990   7.973   3.188   9.285 -0.3480  0.1929  0.1950
    4BIM    C2441991   8.034   3.109   9.382 -0.3233  0.1759  0.1652
    4BIM    C2541992   8.089   3.167   9.497 -0.1508  0.1715  0.0848
    4BIM    C2641993   8.087   3.304   9.519  0.0014  0.1840  0.0312
    4BIM    C2741994   8.026   3.385   9.423 -0.0215  0.2013  0.0601
    4BIM    C2841995   8.006   3.532   9.416  0.1104  0.2172  0.0193
    4BIM    C2941996   8.047   3.624   9.510  0.2933  0.2185 -0.0601
    4BIM    C3041997   8.115   3.587   9.630  0.3819  0.2037 -0.1147
    4BIM    C3141998   8.023   3.764   9.496  0.4101  0.2344 -0.0939
    5BIM     F141999   6.441   2.722   8.529  0.1290  0.0303 -0.2911
    5BIM     F242000   6.300   2.737   8.296 -0.1186  0.1521 -0.1352
    5BIM     O142001   6.672   3.212   8.540  0.2283 -0.0154 -0.3355
    5BIM     N542002   6.263   3.106   7.969 -0.4038  0.2944  0.0576
    5BIM     N642003   6.472   3.486   8.024 -0.2764  0.2341 -0.0088
    5BIM    C1942004   6.620   3.399   8.321  0.0269  0.0846 -0.2022
    5BIM    C2042005   6.567   3.276   8.327  0.0117  0.0914 -0.1972
    5BIM    C2142006   6.599   3.185   8.443  0.1197  0.0378 -0.2682
    5BIM    C2242007   6.526   3.059   8.419  0.0710  0.0609 -0.2422
    5BIM    C2342008   6.524   2.945   8.498  0.1363  0.0281 -0.2873
    5BIM    C2442009   6.447   2.838   8.455  0.0702  0.0599 -0.2498
    5BIM    C2542010   6.375   2.846   8.335 -0.0573  0.1226 -0.1696
    5BIM    C2642011   6.376   2.959   8.255 -0.1231  0.1556 -0.1240
    5BIM    C2742012   6.453   3.069   8.297 -0.0577  0.1242 -0.1609
    5BIM    C2842013   6.476   3.202   8.236 -0.0993  0.1454 -0.1302
    5BIM    C2942014   6.423   3.248   8.118 -0.2179  0.2040 -0.0539
    5BIM    C3042015   6.335   3.170   8.037 -0.3196  0.2535  0.0072
    5BIM    C3142016   6.450   3.379   8.067 -0.2494  0.2202 -0.0296
    1BTD     S242017   8.619   8.890   6.284 -0.0360 -0.3147 -0.1101
    1BTD     N142018   8.467   8.796   6.262  0.0105 -0.2980 -0.5136
    1BTD     N242019   8.554   9.040   6.209 -0.0463 -0.0839  0.3554
    1BTD     N342020   8.148   9.176   6.017  0.0162  0.4182  0.5758
    1BTD     N442021   8.041   8.875   6.081  0.0858  0.1538 -0.4945
    1BTD     C542022   8.246   8.841   6.167  0.0491 -0.0591 -0.4905
    1BTD     C642023   8.380   8.877   6.203  0.0155 -0.1297 -0.2917
    1BTD     C742024   8.429   9.014   6.173 -0.0165 -0.0095  0.1945
    1BTD     C842025   8.340   9.107   6.109 -0.0129  0.1750  0.4575
    1BTD    C1542026   8.210   9.068   6.076  0.0206  0.2382  0.2484
    1BTD    C1642027   8.163   8.936   6.104  0.0510  0.1231 -0.2201
    1BTD    C4342028   7.922   8.921   6.009 -0.2898 -0.7346 -0.3256
    1BTD    C4442029   7.780   8.870   6.025 -0.7704  0.1988 -0.1416
    1BTD    C4542030   7.713   8.927   6.153  0.0797  0.3400  0.1574
    1BTD    C4642031   7.752   8.866   6.293 -0.1972 -0.2463  0.2055
    1BTD    C4742032   7.688   8.892   5.908  0.2563 -0.1566 -0.5533
    1BTD    C4842033   7.730   8.826   5.777  0.5785  0.5026 -0.2791
    1BTD    C4942034   7.628   8.848   5.663  0.1959  0.3259  0.3329
    1BTD    C5042035   7.472   8.824   5.679 -0.1483 -0.0294  0.2124
    1BTD    C7542036   8.010   9.219   6.044 -0.1180  0.2900 -0.0345
    1BTD    C7642037   7.921   9.311   5.960 -0.3378 -0.3301  0.2351
    1BTD    C7742038   7.891   9.244   5.828 -0.4279 -0.1979  0.5627
    1BTD    C7842039   7.852   9.329   5.708  0.4794 -0.5623 -0.3740
    1BTD    C7942040   7.804   9.379   6.034  0.3015 -0.3472 -0.0628
    1BTD    C8042041   7.695   9.283   6.066  0.3816  0.2744 -0.5941
    1BTD    C8142042   7.616   9.340   6.177 -0.3922 -0.5840  0.7444
    1BTD    C8242043   7.501   9.247   6.209 -0.3825 -0.1787  0.2524
    2TTP     S142044   8.219   8.548   6.216 -0.1863  0.2327 -0.0448
    2TTP     S542045   7.833   8.562   6.027 -0.2886  0.2699  0.1671
    2TTP     C142046   7.873   8.388   6.063 -0.2775  0.2643  0.1271
    2TTP     C242047   7.995   8.374   6.123 -0.2452  0.2525  0.0595
    2TTP     C342048   8.060   8.499   6.144 -0.2282  0.2472  0.0365
    2TTP     C442049   8.178   8.721   6.181 -0.1976  0.2382 -0.0049
    2TTP    C1742050   8.056   8.736   6.120 -0.2300  0.2503  0.0628
    2TTP    C1842051   7.991   8.611   6.100 -0.2469  0.2553  0.0857
    2TTP    C3242052   8.054   8.240   6.167  0.2725  0.2207  0.0082
    2TTP    C3342053   8.199   8.231   6.211  0.9438 -0.2623  0.3882
    2TTP    C3442054   8.233   8.115   6.301  0.2518 -0.6905 -0.3515
    2TTP    C3542055   8.381   8.113   6.330  0.4497  0.1174 -0.4358
    2TTP    C3642056   8.444   7.991   6.405  0.9950 -0.4795  0.1227
    2TTP    C3742057   8.588   8.002   6.433 -0.1664 -0.2804  0.4842
    2TTP    C3842058   8.626   8.107   6.540 -0.3625  0.1290 -0.3442
    2TTP    C3942059   8.779   8.107   6.551  0.3917  0.3838  0.1269
    2TTP    C4042060   8.850   8.226   6.623 -0.7594 -0.0595 -0.7338
    2TTP    C4142061   9.009   8.224   6.630 -0.2103  0.3372  0.5638
    2TTP    C4242062   9.082   8.190   6.506  0.0926 -0.4792  0.0416
    3TTP     S142063   8.475   9.375   6.065 -0.1629 -0.0527  0.0072
    3TTP     S542064   8.125   9.531   5.871  0.0067 -0.0343 -0.2837
    3TTP     C142065   8.251   9.661   5.876 -0.0611  0.0222  0.0006
    3TTP     C242066   8.367   9.621   5.936 -0.1175  0.0198  0.1073
    3TTP     C342067   8.360   9.485   5.981 -0.1092 -0.0269 -0.0316
    3TTP     C442068   8.348   9.244   6.061 -0.0949 -0.1094 -0.2773
    3TTP    C1742069   8.233   9.285   6.000 -0.0389 -0.1070 -0.3836
    3TTP    C1842070   8.240   9.420   5.956 -0.0470 -0.0606 -0.2445
    3TTP    C3242071   8.496   9.697   5.969  0.4241 -0.1136  0.2393
    3TTP    C3342072   8.527   9.704   6.112 -0.1346  0.2025  0.1687
    3TTP    C3442073   8.648   9.795   6.142  0.0290 -0.3645  0.1254
    3TTP    C3542074   8.790   9.738   6.131 -0.0856  0.4214 -0.9983
    3TTP    C3642075   8.826   9.628   6.237 -0.0462  0.4597  0.1086
    3TTP    C3742076   8.977   9.636   6.250  0.6676  0.3381  0.4079
    3TTP    C3842077   9.033   9.536   6.347  0.0644 -0.2344 -0.0306
    3TTP    C3942078   9.186   9.551   6.352  0.1542  0.4336  0.4006
    3TTP    C4042079   9.256   9.437   6.420 -0.4931  0.1384 -0.2294
    3TTP    C4142080   9.404   9.463   6.430 -0.6885  0.5766 -0.2650
    3TTP    C4242081   9.465   9.368   6.530 -0.1548 -0.2611  0.2364
    4BIM     F142082   7.233   8.243   5.552  0.0936 -0.1826 -0.1156
    4BIM     F242083   7.200   8.003   5.675  0.0218 -0.1452 -0.0614
    4BIM     O142084   7.668   8.433   5.813  0.1136 -0.2272 -0.1166
    4BIM     N542085   7.461   7.793   6.040 -0.0669 -0.1228  0.0157
    4BIM     N642086   7.807   7.990   6.219 -0.0371 -0.1651  0.0039
    4BIM    C1942087   7.790   8.271   6.025  0.0522 -0.2070 -0.0651
    4BIM    C2042088   7.682   8.233   5.954  0.0499 -0.1972 -0.0671
    4BIM    C2142089   7.625   8.321   5.847  0.0826 -0.2086 -0.0942
    4BIM    C2242090   7.509   8.250   5.790  0.0709 -0.1938 -0.0889
    4BIM    C2342091   7.424   8.292   5.688  0.0917 -0.1972 -0.1079
    4BIM    C2442092   7.321   8.207   5.652  0.0745 -0.1803 -0.0980
    4BIM    C2542093   7.304   8.084   5.716  0.0375 -0.1613 -0.0701
    4BIM    C2642094   7.388   8.041   5.817  0.0166 -0.1578 -0.0511
    4BIM    C2742095   7.493   8.125   5.856  0.0335 -0.1745 -0.0607
    4BIM    C2842096   7.598   8.110   5.959  0.0192 -0.1757 -0.0463
    4BIM    C2942097   7.616   8.002   6.043 -0.0161 -0.1600 -0.0186
    4BIM    C3042098   7.530   7.888   6.041 -0.0439 -0.1397  0.0002
    4BIM    C3142099   7.721   7.996   6.139 -0.0273 -0.1630 -0.0062
    5BIM     F142100   7.654  10.090   5.516  0.0447  0.2529  0.2913
    5BIM     F242101   7.841  10.269   5.431  0.1875 -0.0820 -0.1086
    5BIM     O142102   7.962   9.745   5.796 -0.1171  0.2163  0.4240
    5BIM     N542103   8.330  10.280   5.510  0.2775 -0.5898 -0.5888
    5BIM     N642104   8.533   9.974   5.746  0.1225 -0.5510 -0.4045
    5BIM    C1942105   8.250   9.793   5.815 -0.0379 -0.1168  0.0893
    5BIM    C2042106   8.166   9.873   5.748 -0.0026 -0.0945  0.0713
    5BIM    C2142107   8.019   9.841   5.743 -0.0474  0.0808  0.2506
    5BIM    C2242108   7.956   9.948   5.662  0.0079  0.0592  0.1791
    5BIM    C2342109   7.821   9.962   5.629 -0.0066  0.1857  0.2906
    5BIM    C2442110   7.786  10.071   5.552  0.0550  0.1345  0.1899
    5BIM    C2542111   7.882  10.163   5.508  0.1285 -0.0382 -0.0161
    5BIM    C2642112   8.017  10.150   5.540  0.1433 -0.1651 -0.1284
    5BIM    C2742113   8.055  10.040   5.619  0.0820 -0.1156 -0.0288
    5BIM    C2842114   8.187   9.997   5.670  0.0782 -0.2170 -0.1032
    5BIM    C2942115   8.307  10.061   5.649  0.1383 -0.3911 -0.2971
    5BIM    C3042116   8.319  10.181   5.573  0.2148 -0.4997 -0.4568
    5BIM    C3142117   8.431  10.013   5.703  0.1292 -0.4780 -0.3551
    1BTD     S242118   7.795   9.492   9.273  0.2572  0.2890  0.0965
    1BTD     N142119   7.966   9.535   9.309  0.2234  0.2513  0.3068
    1BTD     N242120   7.797   9.342   9.374  0.1922  0.1247 -0.1452
    1BTD     N342121   8.108   9.116   9.642 -0.0010 -0.2780 -0.2580
    1BTD     N442122   8.317   9.354   9.562  0.0374 -0.1223  0.2985
    1BTD     C542123   8.147   9.437   9.442  0.1259  0.0544  0.2956
    1BTD     C642124   8.013   9.441   9.389  0.1683  0.1247  0.1917
    1BTD     C742125   7.918   9.333   9.426  0.1509  0.0539 -0.0613
    1BTD     C842126   7.962   9.227   9.513  0.0917 -0.0834 -0.1974
    1BTD    C1542127   8.094   9.228   9.562  0.0517 -0.1486 -0.0884
    1BTD    C1642128   8.185   9.332   9.527  0.0683 -0.0802  0.1555
    1BTD    C4342129   8.410   9.241   9.570  0.0022  0.0626 -0.9811
    1BTD    C4442130   8.554   9.251   9.630 -0.2726 -0.7744 -0.1747
    1BTD    C4542131   8.652   9.136   9.605  0.1900 -0.8663 -0.4366
    1BTD    C4642132   8.674   9.102   9.462  0.8813 -0.0164  0.1347
    1BTD    C4742133   8.546   9.291   9.780 -0.4068  0.3321  0.5567
    1BTD    C4842134   8.668   9.341   9.854 -0.1106  0.0399 -0.2450
    1BTD    C4942135   8.639   9.389  10.000 -0.3191 -0.3286 -1.0561
    1BTD    C5042136   8.763   9.427  10.086  0.3191 -0.3049  0.6671
    1BTD    C7542137   8.205   9.112   9.753  0.6392  0.0790 -0.1390
    1BTD    C7642138   8.250   8.973   9.803 -0.4657 -0.1914 -0.4102
    1BTD    C7742139   8.317   8.973   9.944 -0.0592 -0.1186 -0.0859
    1BTD    C7842140   8.256   9.055  10.058 -0.3528  0.1805 -0.4807
    1BTD    C7942141   8.335   8.903   9.703 -0.2231  0.2467 -0.7294
    1BTD    C8042142   8.342   8.752   9.726  0.1857  0.8555  0.2105
    1BTD    C8142143   8.416   8.687   9.605 -0.0967  0.8563 -0.0429
    1BTD    C8242144   8.415   8.530   9.618  0.2287 -0.6122 -0.5391
    2TTP     S142145   8.285   9.691   9.369 -0.2168 -0.0799 -0.0438
    2TTP     S542146   8.621   9.574   9.611 -0.1988 -0.1347 -0.0951
    2TTP     C142147   8.651   9.742   9.548 -0.2735 -0.0597  0.0659
    2TTP     C242148   8.549   9.788   9.469 -0.2837 -0.0384  0.0913
    2TTP     C342149   8.443   9.692   9.456 -0.2327 -0.0805 -0.0160
    2TTP     C442150   8.255   9.523   9.432 -0.1423 -0.1549 -0.2048
    2TTP    C1742151   8.357   9.477   9.511 -0.1326 -0.1760 -0.2302
    2TTP    C1842152   8.462   9.573   9.524 -0.1831 -0.1341 -0.1235
    2TTP    C3242153   8.545   9.914   9.388  0.5963 -0.2901 -0.1352
    2TTP    C3342154   8.572   9.910   9.243 -0.2125 -0.5468 -0.3082
    2TTP    C3442155   8.586  10.046   9.171  0.3089 -0.0717 -0.2522
    2TTP    C3542156   8.482  10.152   9.170  0.2146 -0.4006  1.0963
    2TTP    C3642157   8.514  10.265   9.066 -0.2817 -0.2936  0.1475
    2TTP    C3742158   8.394  10.347   9.037 -0.4196 -0.7831  0.1119
    2TTP    C3842159   8.418  10.426   8.907 -0.3114  0.3190 -0.3435
    2TTP    C3942160   8.286  10.470   8.843  0.7933  0.5146  0.1464
    2TTP    C4042161   8.294  10.562   8.716  0.7803  0.4182  0.4647
    2TTP    C4142162   8.156  10.595   8.649  0.6355 -0.0540 -0.6466
    2TTP    C4242163   8.035  10.635   8.736 -0.2815 -0.4273  0.8504
    3TTP     S142164   7.751   9.011   9.522  0.1916 -0.2443 -0.1421
    3TTP     S542165   8.017   8.763   9.751  0.1171 -0.1581  0.0379
    3TTP     C142166   7.868   8.667   9.711  0.2313 -0.2484 -0.1734
    3TTP     C242167   7.777   8.738   9.638  0.2607 -0.2801 -0.2415
    3TTP     C342168   7.822   8.871   9.611  0.1945 -0.2346 -0.1290
    3TTP     C442169   7.900   9.108   9.562  0.0774 -0.1543  0.0691
    3TTP    C1742170   7.991   9.037   9.635  0.0476 -0.1225  0.1374
    3TTP    C1842171   7.946   8.904   9.662  0.1141 -0.1681  0.0250
    3TTP    C3242172   7.651   8.685   9.561 -0.1676 -0.2295 -0.2303
    3TTP    C3342173   7.529   8.776   9.552 -0.1197  0.1958 -0.2948
    3TTP    C3442174   7.406   8.703   9.502  0.1672 -0.2910 -0.1490
    3TTP    C3542175   7.298   8.807   9.469 -0.8284 -0.1858  0.3340
    3TTP    C3642176   7.170   8.750   9.413 -0.1485  0.5024  0.5005
    3TTP    C3742177   7.076   8.850   9.354  0.0010  0.2107  0.8253
    3TTP    C3842178   6.938   8.796   9.331 -0.1548 -0.1078 -0.0807
    3TTP    C3942179   6.848   8.910   9.276  0.6865  0.1224 -0.5235
    3TTP    C4042180   6.716   8.835   9.236 -0.4013 -0.5776 -0.0278
    3TTP    C4142181   6.594   8.919   9.203 -0.3002  0.5727 -0.6496
    3TTP    C4242182   6.468   8.847   9.147 -0.2032 -0.5193  0.0141
    4BIM     F142183   9.215   9.719  10.139 -0.0629  0.0676 -0.1429
    4BIM     F242184   9.339   9.932  10.023  0.1094 -0.0715 -0.2157
    4BIM     O142185   8.797   9.648   9.803 -0.1528  0.3280 -0.0858
    4BIM     N542186   9.218  10.188   9.617  0.2930 -0.0859 -0.2798
    4BIM     N642187   8.866  10.090   9.378  0.1879  0.1456 -0.2205
    4BIM    C1942188   8.766   9.827   9.573 -0.0201  0.2876 -0.1351
    4BIM    C2042189   8.866   9.836   9.662 -0.0043  0.2275 -0.1466
    4BIM    C2142190   8.875   9.741   9.778 -0.0758  0.2533 -0.1196
    4BIM    C2242191   8.996   9.779   9.854 -0.0362  0.1728 -0.1412
    4BIM    C2342192   9.045   9.719   9.970 -0.0772  0.1640 -0.1282
    4BIM    C2442193   9.161   9.773  10.024 -0.0266  0.0810 -0.1539
    4BIM    C2542194   9.224   9.882   9.964  0.0623  0.0094 -0.1914
    4BIM    C2642195   9.175   9.942   9.849  0.1032  0.0177 -0.2046
    4BIM    C2742196   9.058   9.889   9.792  0.0529  0.1012 -0.1790
    4BIM    C2842197   8.981   9.929   9.672  0.0761  0.1320 -0.1838
    4BIM    C2942198   9.011  10.032   9.586  0.1574  0.0816 -0.2165
    4BIM    C3042199   9.125  10.117   9.603  0.2315 -0.0104 -0.2512
    4BIM    C3142200   8.931  10.063   9.472  0.1733  0.1171 -0.2186
    5BIM     F142201   8.255   8.069  10.123 -0.0889 -0.0434  0.1149
    5BIM     F242202   8.026   7.922  10.110  0.0362 -0.2091 -0.2519
    5BIM     O142203   8.104   8.517   9.858 -0.1502  0.0601  0.3253
    5BIM     N542204   7.589   8.031   9.903  0.1723 -0.3736 -0.6293
    5BIM     N642205   7.518   8.410   9.699  0.0991 -0.2592 -0.3909
    5BIM    C1942206   7.832   8.536   9.752 -0.0524 -0.0615  0.0496
    5BIM    C2042207   7.879   8.429   9.819 -0.0418 -0.0808  0.0110
    5BIM    C2142208   8.020   8.426   9.871 -0.0944 -0.0153  0.1602
    5BIM    C2242209   8.038   8.297   9.938 -0.0670 -0.0575  0.0716
    5BIM    C2342210   8.152   8.249  10.001 -0.0975 -0.0219  0.1543
    5BIM    C2442211   8.145   8.122  10.058 -0.0616 -0.0741  0.0421
    5BIM    C2542212   8.027   8.047  10.052  0.0027 -0.1600 -0.1468
    5BIM    C2642213   7.913   8.094   9.989  0.0336 -0.1955 -0.2303
    5BIM    C2742214   7.918   8.222   9.930 -0.0020 -0.1431 -0.1189
    5BIM    C2842215   7.815   8.300   9.857  0.0161 -0.1612 -0.1637
    5BIM    C2942216   7.686   8.261   9.830  0.0749 -0.2379 -0.3344
    5BIM    C3042217   7.633   8.135   9.870  0.1283 -0.3121 -0.4959
    5BIM    C3142218   7.595   8.343   9.758  0.0879 -0.2494 -0.3645
    1BTD     S242219   2.308   9.464   1.753  0.0535  0.0030  0.2014
    1BTD     N142220   2.200   9.596   1.694  0.1522 -0.0360 -0.0653
    1BTD     N242221   2.431   9.576   1.821 -0.0780  0.0472  0.3693
    1BTD     N342222   2.489  10.041   1.852 -0.1679  0.0675  0.2301
    1BTD     N442223   2.205  10.065   1.696  0.1158 -0.0348 -0.3054
    1BTD     C542224   2.206   9.840   1.697  0.1298 -0.0341 -0.1842
    1BTD     C642225   2.259   9.710   1.726  0.0855 -0.0150 -0.0178
    1BTD     C742226   2.388   9.699   1.797 -0.0433  0.0319  0.2255
    1BTD     C842227   2.458   9.819   1.836 -0.1215  0.0570  0.2902
    1BTD    C1542228   2.402   9.944   1.805 -0.0742  0.0365  0.1214
    1BTD    C1642229   2.278   9.955   1.736  0.0500 -0.0082 -0.1129
    1BTD    C4342230   2.173  10.180   1.783  0.2471 -0.0568  0.1584
    1BTD    C4442231   2.118  10.316   1.735  0.2927  0.0339 -0.0712
    1BTD    C4542232   2.219  10.396   1.649 -0.1672  0.6915 -0.2061
    1BTD    C4642233   2.197  10.541   1.604  0.4852 -0.1157  0.5540
    1BTD    C4742234   2.058  10.401   1.848  0.2967  0.7701 -0.4589
    1BTD    C4842235   1.940  10.334   1.919 -0.2130  0.4260  0.3588
    1BTD    C4942236   1.818  10.280   1.841  0.2462 -0.5079  0.5664
    1BTD    C5042237   1.744  10.357   1.736  0.7064 -1.1056  0.2745
    1BTD    C7542238   2.494  10.185   1.814  0.4239  0.9627 -0.4781
    1BTD    C7642239   2.614  10.271   1.835  0.1004 -0.7015 -0.1214
    1BTD    C7742240   2.588  10.425   1.838 -0.1063 -0.0233  0.2202
    1BTD    C7842241   2.479  10.479   1.937 -0.8732 -0.4341  0.1742
    1BTD    C7942242   2.709  10.236   1.719  0.2937  0.1722  0.2595
    1BTD    C8042243   2.846  10.289   1.719 -0.1509  0.3188 -0.4891
    1BTD    C8142244   2.932  10.272   1.596 -0.4479  0.5835 -0.3484
    1BTD    C8242245   3.078  10.309   1.633  0.4900  0.4544  0.1484
    2TTP     S142246   1.950   9.813   1.536 -0.3403 -0.0450 -0.0491
    2TTP     S542247   1.963  10.237   1.465  0.0781 -0.0800 -0.1846
    2TTP     C142248   1.830  10.166   1.364  0.1493 -0.0121 -0.3270
    2TTP     C242249   1.818  10.031   1.380  0.0243  0.0027 -0.2936
    2TTP     C342250   1.913   9.979   1.473 -0.1323 -0.0390 -0.1543
    2TTP     C442251   2.083   9.885   1.637 -0.4115 -0.1129  0.0933
    2TTP    C1742252   2.095  10.020   1.621 -0.2866 -0.1277  0.0598
    2TTP    C1842253   1.999  10.072   1.529 -0.1300 -0.0859 -0.0795
    2TTP    C3242254   1.700   9.947   1.333  0.1438  0.2810  0.3758
    2TTP    C3342255   1.599   9.904   1.446 -0.1628 -0.1689 -0.0785
    2TTP    C3442256   1.508   9.793   1.397  0.4391  0.5281 -0.1748
    2TTP    C3542257   1.376   9.791   1.473 -0.0544 -0.3788 -0.2989
    2TTP    C3642258   1.267   9.887   1.430 -0.0052  0.1643  0.1486
    2TTP    C3742259   1.202   9.869   1.292 -0.0349  0.0736  0.5016
    2TTP    C3842260   1.072   9.947   1.274 -0.3039  0.3279  0.0269
    2TTP    C3942261   0.993   9.929   1.145 -0.4565 -0.5776 -0.8155
    2TTP    C4042262   0.870  10.012   1.122 -0.0173  0.0932 -0.6614
    2TTP    C4142263   0.805  10.001   0.988 -0.0160  0.5770  0.0175
    2TTP    C4242264   0.678  10.084   0.963  0.5649 -0.0133 -0.2270
    3TTP     S142265   2.693   9.741   2.008 -0.0173  0.0256 -0.2384
    3TTP     S542266   2.772  10.156   2.087  0.0292 -0.0197 -0.0459
    3TTP     C142267   2.892  10.056   2.180  0.1264 -0.0715 -0.2270
    3TTP     C242268   2.875   9.922   2.161  0.1178 -0.0605 -0.2971
    3TTP     C342269   2.766   9.893   2.072  0.0341 -0.0109 -0.2103
    3TTP     C442270   2.573   9.842   1.915 -0.1145  0.0774 -0.0571
    3TTP    C1742271   2.590   9.976   1.934 -0.1058  0.0664  0.0130
    3TTP    C1842272   2.699  10.004   2.023 -0.0222  0.0168 -0.0739
    3TTP    C3242273   2.962   9.808   2.217  0.0456 -0.1005 -0.0255
    3TTP    C3342274   2.902   9.739   2.345 -0.1919 -0.0421  0.2044
    3TTP    C3442275   2.957   9.600   2.376 -0.1397  0.2674  0.0420
    3TTP    C3542276   2.901   9.502   2.266  0.0158  0.1701  0.3302
    3TTP    C3642277   2.924   9.348   2.291  0.4899 -0.2298  0.2230
    3TTP    C3742278   2.940   9.266   2.164 -0.1147  0.7282  0.1062
    3TTP    C3842279   2.815   9.225   2.086 -0.1213  0.2662  0.0886
    3TTP    C3942280   2.710   9.140   2.152  0.7819  0.5226  0.1416
    3TTP    C4042281   2.587   9.127   2.058  0.1331 -0.2691 -0.0189
    3TTP    C4142282   2.466   9.084   2.141 -0.5386  0.0569 -0.5851
    3TTP    C4242283   2.344   9.069   2.060 -0.5094  0.1221  0.6877
    4BIM     F142284   1.963  10.848   0.922  0.0352  0.1265  0.3823
    4BIM     F242285   1.707  10.831   0.831  0.0918  0.0975  0.2278
    4BIM     O142286   1.989  10.407   1.236 -0.0755  0.0795  0.3257
    4BIM     N542287   1.358  10.493   0.924  0.0943  0.0224 -0.0346
    4BIM     N642288   1.430  10.152   1.188 -0.0037 -0.0085 -0.0477
    4BIM    C1942289   1.754  10.235   1.261 -0.0608  0.0351  0.1580
    4BIM    C2042290   1.757  10.346   1.185 -0.0352  0.0481  0.1783
    4BIM    C2142291   1.882  10.430   1.178 -0.0448  0.0707  0.2659
    4BIM    C2242292   1.852  10.543   1.088 -0.0108  0.0802  0.2663
    4BIM    C2342293   1.936  10.646   1.050 -0.0062  0.1009  0.3334
    4BIM    C2442294   1.885  10.742   0.964  0.0286  0.1063  0.3187
    4BIM    C2542295   1.753  10.733   0.917  0.0578  0.0913  0.2390
    4BIM    C2642296   1.668  10.630   0.954  0.0533  0.0707  0.1718
    4BIM    C2742297   1.718  10.532   1.041  0.0183  0.0649  0.1855
    4BIM    C2842298   1.655  10.411   1.099  0.0044  0.0446  0.1282
    4BIM    C2942299   1.526  10.368   1.078  0.0246  0.0260  0.0448
    4BIM    C3042300   1.434  10.437   0.993  0.0629  0.0241  0.0014
    4BIM    C3142301   1.474  10.249   1.138  0.0089  0.0071 -0.0056
    5BIM     F142302   3.128  10.794   2.460 -0.2748 -0.0156 -0.2109
    5BIM     F242303   3.370  10.687   2.524 -0.3333  0.0339  0.1010
    5BIM     O142304   2.872  10.361   2.261  0.0031 -0.1133 -0.3566
    5BIM     N542305   3.535  10.223   2.472 -0.2192  0.0355  0.4457
    5BIM     N642306   3.286   9.906   2.303  0.0097 -0.0508  0.2690
    5BIM    C1942307   3.012  10.104   2.250  0.0460 -0.1007 -0.1103
    5BIM    C2042308   3.067  10.217   2.298 -0.0217 -0.0781 -0.0858
    5BIM    C2142309   2.989  10.346   2.300 -0.0395 -0.0864 -0.2184
    5BIM    C2242310   3.077  10.448   2.358 -0.1171 -0.0565 -0.1517
    5BIM    C2342311   3.049  10.583   2.380 -0.1583 -0.0522 -0.2294
    5BIM    C2442312   3.149  10.660   2.436 -0.2309 -0.0216 -0.1415
    5BIM    C2542313   3.274  10.605   2.468 -0.2610  0.0039  0.0193
    5BIM    C2642314   3.303  10.471   2.446 -0.2201 -0.0001  0.0976
    5BIM    C2742315   3.203  10.390   2.390 -0.1465 -0.0310  0.0106
    5BIM    C2842316   3.201  10.246   2.355 -0.0891 -0.0433  0.0573
    5BIM    C2942317   3.304  10.157   2.371 -0.0969 -0.0257  0.2052
    5BIM    C3042318   3.431  10.193   2.426 -0.1641  0.0079  0.3369
    5BIM    C3142319   3.294  10.019   2.334 -0.0381 -0.0396  0.2394
    1BTD     S242320   0.793   4.504   3.372  0.0867 -0.0063  0.3064
    1BTD     N142321   0.911   4.636   3.338 -0.0137 -0.0558 -0.2628
    1BTD     N242322   0.652   4.614   3.387  0.1458  0.0232  0.6611
    1BTD     N342323   0.575   5.076   3.358  0.0849 -0.0058  0.3560
    1BTD     N442324   0.894   5.104   3.298 -0.1116 -0.1035 -0.7825
    1BTD     C542325   0.898   4.880   3.318 -0.0625 -0.0795 -0.5204
    1BTD     C642326   0.842   4.749   3.340  0.0012 -0.0482 -0.1643
    1BTD     C742327   0.697   4.737   3.367  0.0905 -0.0038  0.3529
    1BTD     C842328   0.616   4.856   3.371  0.1116  0.0069  0.4880
    1BTD    C1542329   0.675   4.981   3.349  0.0472 -0.0248  0.1269
    1BTD    C1642330   0.815   4.993   3.322 -0.0389 -0.0674 -0.3713
    1BTD    C4342331   0.884   5.241   3.345 -0.0979 -0.3513  0.4255
    1BTD    C4442332   0.957   5.297   3.464 -0.3492  0.0123  0.1843
    1BTD    C4542333   0.947   5.216   3.595 -0.1232  0.6464  0.5543
    1BTD    C4642334   0.822   5.228   3.679  0.4551  0.4743  0.0236
    1BTD    C4742335   0.945   5.449   3.462 -0.1934  0.3718 -0.2656
    1BTD    C4842336   1.038   5.527   3.546 -0.5367 -0.6971 -0.2072
    1BTD    C4942337   0.983   5.673   3.532 -0.5869 -0.3699 -0.2844
    1BTD    C5042338   1.051   5.760   3.636 -0.1786  0.5565 -0.2936
    1BTD    C7542339   0.568   5.216   3.303 -0.2822 -0.3538  0.3744
    1BTD    C7642340   0.520   5.239   3.159  0.2031  0.8754 -0.4923
    1BTD    C7742341   0.595   5.163   3.053 -0.5054 -0.2171  0.8015
    1BTD    C7842342   0.535   5.151   2.906 -0.1203  0.0712 -0.3597
    1BTD    C7942343   0.488   5.389   3.137 -0.0016  0.9389  0.3999
    1BTD    C8042344   0.610   5.478   3.143  0.2508 -0.4266  0.2999
    1BTD    C8142345   0.579   5.618   3.097  0.2160  0.0246  0.2917
    1BTD    C8242346   0.694   5.712   3.108 -0.2599  0.1574  0.3687
    2TTP     S142347   1.157   4.848   3.191  0.2551 -0.0751 -0.1258
    2TTP     S542348   1.153   5.261   3.072  0.2558 -0.1137 -0.2602
    2TTP     C142349   1.275   5.172   2.970  0.3355 -0.1245 -0.1555
    2TTP     C242350   1.283   5.039   3.001  0.3400 -0.1131 -0.1078
    2TTP     C342351   1.194   5.003   3.106  0.2806 -0.0957 -0.1522
    2TTP     C442352   1.035   4.936   3.293  0.1754 -0.0644 -0.2306
    2TTP    C1742353   1.026   5.069   3.262  0.1709 -0.0758 -0.2782
    2TTP    C1842354   1.116   5.105   3.157  0.2303 -0.0933 -0.2338
    2TTP    C3242355   1.368   4.924   2.945  0.4196 -0.0514  0.2304
    2TTP    C3342356   1.299   4.842   2.836 -0.2284 -0.7574  0.2406
    2TTP    C3442357   1.402   4.769   2.748  0.4908 -0.2563 -0.1666
    2TTP    C3542358   1.475   4.653   2.814 -0.0204 -0.4707  0.0329
    2TTP    C3642359   1.574   4.592   2.716  0.1419  0.1993  0.3311
    2TTP    C3742360   1.674   4.505   2.782  0.6174  0.3342 -0.1481
    2TTP    C3842361   1.792   4.467   2.697 -0.0688  0.2723 -0.0205
    2TTP    C3942362   1.897   4.579   2.661  0.1259  0.6159 -0.4335
    2TTP    C4042363   1.985   4.525   2.552 -0.3616  0.2535  0.5010
    2TTP    C4142364   2.108   4.618   2.519  0.3496  0.0486 -0.0401
    2TTP    C4242365   2.084   4.755   2.462 -0.0536 -0.4819  0.5763
    3TTP     S142366   0.318   4.785   3.406 -0.1291  0.0130  0.2175
    3TTP     S542367   0.223   5.204   3.404  0.1504  0.0755 -0.4372
    3TTP     C142368   0.069   5.110   3.424  0.1197  0.2166  0.0090
    3TTP     C242369   0.089   4.975   3.426  0.0316  0.2058  0.2373
    3TTP     C342370   0.227   4.941   3.412 -0.0149  0.0854  0.0683
    3TTP     C442371   0.473   4.880   3.386 -0.0985 -0.1280 -0.2287
    3TTP    C1742372   0.452   5.015   3.384 -0.0103 -0.1170 -0.4571
    3TTP    C1842373   0.314   5.048   3.399  0.0361  0.0032 -0.2881
    3TTP    C3242374  -0.015   4.864   3.461  0.0759 -0.7126 -0.1636
    3TTP    C3342375  -0.052   4.769   3.353  0.5465  0.2100 -0.0042
    3TTP    C3442376  -0.179   4.693   3.398 -0.4294 -0.1725  0.3886
    3TTP    C3542377  -0.211   4.563   3.315 -0.1334 -0.1613 -0.3807
    3TTP    C3642378  -0.113   4.448   3.336  0.5835  0.4710 -0.2187
    3TTP    C3742379  -0.159   4.320   3.276 -0.2429 -0.2855  0.0677
    3TTP    C3842380  -0.064   4.216   3.329 -0.4544 -0.0973 -0.1547
    3TTP    C3942381  -0.085   4.070   3.285  0.4889 -0.4759 -0.6141
    3TTP    C4042382  -0.228   4.007   3.298 -0.1192 -0.2842  0.2445
    3TTP    C4142383  -0.247   3.859   3.255  0.5048 -0.5520  0.5452
    3TTP    C4242384  -0.213   3.825   3.106 -0.2582 -0.3094  0.0734
    4BIM     F142385   1.670   5.875   2.838  0.4044 -0.3175  0.3495
    4BIM     F242386   1.714   5.795   2.582  0.1186 -0.0557  0.2172
    4BIM     O142387   1.410   5.444   3.038  0.3193 -0.3822  0.1003
    4BIM     N542388   1.591   5.372   2.355 -0.3529  0.2749 -0.1507
    4BIM     N642389   1.380   5.051   2.563 -0.3618  0.1717 -0.3188
    4BIM    C1942390   1.360   5.214   2.864  0.0160 -0.1550 -0.1147
    4BIM    C2042391   1.424   5.326   2.824  0.0486 -0.1489 -0.0468
    4BIM    C2142392   1.446   5.440   2.919  0.2073 -0.2699  0.0624
    4BIM    C2242393   1.517   5.544   2.843  0.2030 -0.2289  0.1149
    4BIM    C2342394   1.559   5.669   2.889  0.3228 -0.3071  0.2170
    4BIM    C2442395   1.625   5.751   2.799  0.2912 -0.2460  0.2494
    4BIM    C2542396   1.648   5.709   2.667  0.1438 -0.1110  0.1811
    4BIM    C2642397   1.606   5.585   2.620  0.0237 -0.0325  0.0790
    4BIM    C2742398   1.539   5.501   2.710  0.0535 -0.0926  0.0449
    4BIM    C2842399   1.482   5.365   2.693 -0.0471 -0.0379 -0.0573
    4BIM    C2942400   1.484   5.289   2.578 -0.1999  0.0908 -0.1446
    4BIM    C3042401   1.543   5.335   2.456 -0.2835  0.1916 -0.1476
    4BIM    C3142402   1.427   5.159   2.570 -0.2881  0.1343 -0.2400
    5BIM     F142403  -0.238   5.858   3.553  0.2146 -0.0337  0.2712
    5BIM     F242404  -0.471   5.774   3.440  0.2332  0.1097  0.1259
    5BIM     O142405   0.053   5.402   3.536  0.0858 -0.1088  0.0799
    5BIM     N542406  -0.599   5.329   3.266  0.1681  0.2625 -0.2193
    5BIM     N642407  -0.325   4.989   3.275  0.0639  0.1748 -0.3394
    5BIM    C1942408  -0.066   5.160   3.422  0.0578  0.0014 -0.1268
    5BIM    C2042409  -0.131   5.278   3.431  0.0896  0.0148 -0.0730
    5BIM    C2142410  -0.063   5.398   3.491  0.1023 -0.0449  0.0329
    5BIM    C2242411  -0.160   5.508   3.485  0.1373 -0.0120  0.0691
    5BIM    C2342412  -0.142   5.639   3.528  0.1595 -0.0460  0.1630
    5BIM    C2442413  -0.249   5.727   3.512  0.1914 -0.0038  0.1800
    5BIM    C2542414  -0.369   5.683   3.454  0.2013  0.0703  0.1050
    5BIM    C2642415  -0.387   5.553   3.410  0.1788  0.1043  0.0112
    5BIM    C2742416  -0.280   5.463   3.426  0.1466  0.0625 -0.0075
    5BIM    C2842417  -0.267   5.319   3.390  0.1178  0.0819 -0.0978
    5BIM    C2942418  -0.363   5.241   3.331  0.1168  0.1493 -0.1872
    5BIM    C3042419  -0.493   5.289   3.296  0.1450  0.2112 -0.2045
    5BIM    C3142420  -0.341   5.103   3.301  0.0875  0.1628 -0.2704
   9.52666   9.52666   9.52666
