Y6 molecules after resize
42420
    1BTD     S2    1   7.088   4.882   5.915  0.3743 -0.2499 -0.3349
    1BTD     N1    2   7.159   5.030   5.840  0.1793  0.0708  0.1081
    1BTD     N2    3   7.244   4.826   5.985  0.4822 -0.3480 -0.6495
    1BTD     N3    4   7.688   4.978   5.993  0.3504  0.0314 -0.4905
    1BTD     N4    5   7.583   5.230   5.815 -0.0230  0.5472  0.4430
    1BTD     C5    6   7.381   5.131   5.829  0.0782  0.3133  0.2718
    1BTD     C6    7   7.288   5.030   5.870  0.2034  0.0874  0.0042
    1BTD     C7    8   7.336   4.915   5.951  0.3731 -0.1470 -0.4201
    1BTD     C8    9   7.475   4.908   5.987  0.4090 -0.1438 -0.5553
    1BTD    C15   10   7.563   5.010   5.945  0.2824  0.0819 -0.2825
    1BTD    C16   11   7.516   5.120   5.867  0.1189  0.3076  0.1260
    1BTD    C43   12   7.707   5.304   5.842  0.3936  0.0808 -0.7583
    1BTD    C44   13   7.685   5.398   5.953  0.7298  0.1002 -0.0529
    1BTD    C45   14   7.746   5.539   5.924  0.5549 -0.5463  0.5636
    1BTD    C46   15   7.651   5.635   5.872  0.1499  0.1409  0.9328
    1BTD    C47   16   7.566   5.365   6.060 -0.9742 -0.6899  0.5447
    1BTD    C48   17   7.619   5.426   6.203  0.1174  0.2005 -0.4458
    1BTD    C49   18   7.727   5.368   6.294  0.8074 -1.8429 -0.7906
    1BTD    C50   19   7.855   5.338   6.231 -0.1836 -0.9433  0.3812
    1BTD    C75   20   7.816   5.020   5.943  0.1311  0.6656 -0.5943
    1BTD    C76   21   7.841   4.921   5.816 -0.4644 -0.4302  0.0439
    1BTD    C77   22   7.831   4.768   5.811 -0.9420  0.8066  0.8618
    1BTD    C78   23   7.920   4.667   5.878  0.2093  0.0586 -0.1907
    1BTD    C79   24   7.977   4.985   5.763  0.6885  1.5672  0.0018
    1BTD    C80   25   8.118   4.955   5.824 -0.8551  0.8048  0.4381
    1BTD    C81   26   8.166   5.026   5.935  1.3630 -0.0430  0.4414
    1BTD    C82   27   8.208   5.170   5.938 -0.1193  0.8097 -0.1343
    2TTP     S1   28   7.243   5.318   5.636 -0.1554 -0.0564 -0.0981
    2TTP     S5   29   7.620   5.508   5.551  0.1556 -0.5150  0.2418
    2TTP     C1   30   7.491   5.585   5.448  0.3369 -0.3366  0.1476
    2TTP     C2   31   7.367   5.531   5.468  0.2518 -0.1847  0.0371
    2TTP     C3   32   7.370   5.427   5.565  0.0399 -0.2035  0.0228
    2TTP     C4   33   7.372   5.240   5.739 -0.3366 -0.2346 -0.0038
    2TTP    C17   34   7.496   5.295   5.719 -0.2514 -0.3867  0.1066
    2TTP    C18   35   7.493   5.399   5.621 -0.0397 -0.3679  0.1210
    2TTP    C32   36   7.227   5.584   5.383 -1.2000 -1.2995 -1.0121
    2TTP    C33   37   7.095   5.569   5.466  1.1212  0.1344 -0.9184
    2TTP    C34   38   7.049   5.720   5.483  0.4301 -0.2730 -0.9275
    2TTP    C35   39   6.921   5.729   5.582 -0.4579 -0.9734  0.4548
    2TTP    C36   40   6.786   5.740   5.507 -0.2649  0.7525 -0.6002
    2TTP    C37   41   6.665   5.759   5.609  0.3894 -0.6917  0.8055
    2TTP    C38   42   6.647   5.671   5.723  0.0615  0.5479  1.1187
    2TTP    C39   43   6.541   5.694   5.829 -0.0587 -0.7636 -0.1964
    2TTP    C40   44   6.559   5.606   5.945 -0.4012  0.8734 -0.6270
    2TTP    C41   45   6.442   5.521   6.006 -1.2966 -0.3033 -0.5248
    2TTP    C42   46   6.375   5.432   5.913 -0.0517 -0.7427  0.2928
    3TTP     S1   47   7.516   4.687   6.193  0.1918 -0.1434 -0.1550
    3TTP     S5   48   7.904   4.853   6.276 -0.2915  0.6981  0.4450
    3TTP     C1   49   7.873   4.716   6.392  0.0197  0.3206  0.0875
    3TTP     C2   50   7.752   4.657   6.373  0.1872  0.0384 -0.1189
    3TTP     C3   51   7.678   4.717   6.267  0.0761  0.1103 -0.0021
    3TTP     C4   52   7.546   4.823   6.077 -0.1194  0.2341  0.2025
    3TTP    C17   53   7.668   4.883   6.096 -0.2869  0.5161  0.4088
    3TTP    C18   54   7.741   4.823   6.203 -0.1756  0.4444  0.2921
    3TTP    C32   55   7.679   4.538   6.447  0.3002 -0.0452  0.0432
    3TTP    C33   56   7.531   4.521   6.472  0.2217 -0.8979 -0.9522
    3TTP    C34   57   7.504   4.388   6.538 -0.3864  0.1235 -0.1213
    3TTP    C35   58   7.478   4.344   6.680  1.2623  0.4774  0.4686
    3TTP    C36   59   7.430   4.453   6.781  0.2867 -0.2379 -0.4965
    3TTP    C37   60   7.271   4.449   6.792  0.1125 -1.3448  0.3036
    3TTP    C38   61   7.180   4.577   6.837 -0.3797  0.0732  0.2048
    3TTP    C39   62   7.227   4.719   6.854 -0.2792 -0.4085 -0.2836
    3TTP    C40   63   7.310   4.783   6.765 -0.3410 -0.8523  0.5735
    3TTP    C41   64   7.365   4.930   6.774 -0.5044 -0.3884  0.8945
    3TTP    C42   65   7.465   4.961   6.877  0.8917 -0.9428 -0.7464
    4FIC     F1   66   8.007   6.231   5.395 -0.2723  0.5974  0.4250
    4FIC     F2   67   7.874   6.313   5.172  0.5596 -0.0488 -0.3192
    4FIC     O1   68   7.734   5.780   5.518 -0.5027  0.7584  0.5065
    4FIC     N5   69   7.489   6.108   4.938  1.5905 -0.8625 -1.3310
    4FIC     N6   70   7.302   5.739   5.079  1.2425 -0.6064 -1.1171
    4FIC    C19   71   7.510   5.698   5.348  0.2097  0.1984 -0.1754
    4FIC    C20   72   7.584   5.808   5.326  0.2352  0.1831 -0.1668
    4FIC    C21   73   7.698   5.844   5.418 -0.1451  0.4816  0.1949
    4FIC    C22   74   7.756   5.969   5.365 -0.0080  0.3800  0.1047
    4FIC    C23   75   7.864   6.040   5.417 -0.2506  0.5723  0.3494
    4FIC    C24   76   7.901   6.156   5.350 -0.0511  0.4216  0.1990
    4FIC    C25   77   7.833   6.197   5.235  0.3772  0.0886 -0.1846
    4FIC    C26   78   7.725   6.126   5.183  0.6210 -0.1048 -0.4303
    4FIC    C27   79   7.686   6.009   5.249  0.4249  0.0437 -0.2832
    4FIC    C28   80   7.577   5.912   5.221  0.5914 -0.0906 -0.4653
    4FIC    C29   81   7.488   5.918   5.116  0.9979 -0.4078 -0.8391
    4FIC    C30   82   7.489   6.022   5.019  1.3223 -0.6566 -1.1082
    4FIC    C31   83   7.386   5.819   5.097  1.1302 -0.5153 -0.9899
    5FIC     F1   84   8.645   4.889   6.614 -0.5074  1.1379  0.2265
    5FIC     F2   85   8.590   4.784   6.859  0.2894 -0.4834 -0.2618
    5FIC     O1   86   8.177   4.800   6.357 -0.6366  0.9371  0.5304
    5FIC     N5   87   8.178   4.569   7.028  1.3428 -2.9573 -0.7473
    5FIC     N6   88   7.823   4.521   6.778  1.0815 -2.7876 -0.4116
    5FIC    C19   89   7.958   4.668   6.500  0.0789 -0.6829  0.1718
    5FIC    C20   90   8.078   4.694   6.555  0.0803 -0.5692  0.1143
    5FIC    C21   91   8.186   4.763   6.475 -0.2997  0.2831  0.3090
    5FIC    C22   92   8.302   4.776   6.565 -0.1926  0.1849  0.1848
    5FIC    C23   93   8.426   4.833   6.536 -0.4451  0.8023  0.2897
    5FIC    C24   94   8.521   4.835   6.637 -0.2748  0.5593  0.1350
    5FIC    C25   95   8.492   4.780   6.763  0.1356 -0.2764 -0.1166
    5FIC    C26   96   8.369   4.723   6.793  0.3896 -0.8955 -0.2224
    5FIC    C27   97   8.272   4.721   6.692  0.2229 -0.6617 -0.0687
    5FIC    C28   98   8.133   4.669   6.691  0.4065 -1.1582 -0.1220
    5FIC    C29   99   8.068   4.608   6.796  0.8032 -2.0027 -0.3474
    5FIC    C30  100   8.129   4.587   6.923  1.0984 -2.5246 -0.5665
    5FIC    C31  101   7.934   4.560   6.785  0.9540 -2.4295 -0.3815
    1BTD     S2  102   3.988   6.889   8.715 -0.3479 -0.0171 -0.3075
    1BTD     N1  103   3.830   6.934   8.642 -0.3121 -0.0358 -0.3963
    1BTD     N2  104   4.072   7.039   8.661 -0.3569  0.0308 -0.1898
    1BTD     N3  105   3.958   7.424   8.418 -0.3107  0.0950 -0.1097
    1BTD     N4  106   3.660   7.294   8.394 -0.2556  0.0129 -0.3645
    1BTD     C5  107   3.745   7.124   8.513 -0.2833 -0.0093 -0.3767
    1BTD     C6  108   3.847   7.052   8.583 -0.3089 -0.0067 -0.3366
    1BTD     C7  109   3.983   7.110   8.594 -0.3340  0.0304 -0.2208
    1BTD     C8  110   4.009   7.238   8.534 -0.3321  0.0632 -0.1509
    1BTD    C15  111   3.906   7.305   8.465 -0.3066  0.0593 -0.1936
    1BTD    C16  112   3.775   7.248   8.455 -0.2824  0.0234 -0.3049
    1BTD    C43  113   3.633   7.445   8.423 -1.3096  0.0994 -0.9143
    1BTD    C44  114   3.524   7.542   8.368 -0.2498 -0.8167 -0.8153
    1BTD    C45  115   3.476   7.645   8.475 -0.1559  0.8865 -0.2109
    1BTD    C46  116   3.526   7.779   8.487  1.0684 -0.9478  0.6893
    1BTD    C47  117   3.575   7.593   8.233 -0.5355 -1.4991 -0.6432
    1BTD    C48  118   3.456   7.626   8.154 -1.2395 -0.9933 -0.6321
    1BTD    C49  119   3.491   7.693   8.019 -0.2369 -0.4818 -0.5607
    1BTD    C50  120   3.399   7.815   7.973  0.0185 -0.1496 -0.1669
    1BTD    C75  121   3.923   7.488   8.296  0.6127  1.2264  1.0394
    1BTD    C76  122   3.991   7.471   8.164  0.2244  0.5516  1.0803
    1BTD    C77  123   3.997   7.315   8.110  0.6692  0.1276  0.4734
    1BTD    C78  124   4.138   7.275   8.072 -0.4356  1.0082  0.3469
    1BTD    C79  125   4.096   7.580   8.121 -0.7752 -0.0399  2.4050
    1BTD    C80  126   4.070   7.660   7.987  0.2600  1.7350  1.0030
    1BTD    C81  127   3.945   7.744   7.985 -0.5098 -1.0386 -0.0532
    1BTD    C82  128   3.960   7.860   8.085  0.3661  0.5579 -0.0019
    2TTP     S1  129   3.515   6.941   8.467 -0.2905 -0.7278 -0.0121
    2TTP     S5  130   3.339   7.228   8.200  0.4737 -0.2494 -0.0062
    2TTP     C1  131   3.247   7.072   8.186  0.2291 -0.0879 -0.2137
    2TTP     C2  132   3.296   6.974   8.268 -0.0213 -0.2261 -0.2277
    2TTP     C3  133   3.408   7.019   8.344 -0.0290 -0.4646 -0.0751
    2TTP     C4  134   3.607   7.097   8.481 -0.0460 -0.8894  0.1953
    2TTP    C17  135   3.559   7.195   8.400  0.2044 -0.7512  0.2094
    2TTP    C18  136   3.447   7.150   8.323  0.2122 -0.5127  0.0567
    2TTP    C32  137   3.258   6.820   8.273  0.3227  0.1239  0.7249
    2TTP    C33  138   3.241   6.745   8.404 -0.3157  0.4194  0.2983
    2TTP    C34  139   3.251   6.592   8.399 -0.9717  0.3812  0.1948
    2TTP    C35  140   3.389   6.532   8.356  0.4631  0.0635 -0.7006
    2TTP    C36  141   3.483   6.447   8.460 -0.1728 -0.9348  0.3608
    2TTP    C37  142   3.440   6.355   8.580  0.7409  0.3641  0.0815
    2TTP    C38  143   3.568   6.276   8.643  2.0254  0.5146  0.3517
    2TTP    C39  144   3.512   6.228   8.768 -0.5872  0.6209 -1.2691
    2TTP    C40  145   3.624   6.243   8.876  0.2938 -0.1200 -1.0464
    2TTP    C41  146   3.620   6.211   9.027 -0.7620 -0.6563  0.4289
    2TTP    C42  147   3.744   6.275   9.108  0.6993 -0.3358  0.5638
    3TTP     S1  148   4.304   7.349   8.583 -0.2302 -0.1950 -0.1091
    3TTP     S5  149   4.168   7.717   8.407 -0.5291 -0.3121 -0.1242
    3TTP     C1  150   4.338   7.741   8.466 -0.4656 -0.2406 -0.3333
    3TTP     C2  151   4.390   7.629   8.524 -0.3697 -0.2002 -0.3414
    3TTP     C3  152   4.297   7.520   8.523 -0.3426 -0.2242 -0.1822
    3TTP     C4  153   4.133   7.326   8.523 -0.2937 -0.2664  0.1001
    3TTP    C17  154   4.081   7.438   8.466 -0.3896 -0.3066  0.1078
    3TTP    C18  155   4.174   7.547   8.466 -0.4165 -0.2828 -0.0513
    3TTP    C32  156   4.533   7.586   8.559  0.2686  0.2571 -0.8798
    3TTP    C33  157   4.531   7.609   8.709  0.3477  0.3573 -0.4605
    3TTP    C34  158   4.639   7.529   8.775 -0.3770  0.5092  0.2910
    3TTP    C35  159   4.680   7.582   8.919  1.3922  0.5261 -0.8810
    3TTP    C36  160   4.813   7.529   8.956 -1.4569 -0.6071  0.3486
    3TTP    C37  161   4.939   7.587   8.891  0.8891 -0.5821  2.1768
    3TTP    C38  162   5.060   7.499   8.928  0.7527  0.1712 -1.5714
    3TTP    C39  163   5.109   7.481   9.074 -0.0159  1.3858 -1.2046
    3TTP    C40  164   5.147   7.608   9.155  0.7124  1.6719  0.7722
    3TTP    C41  165   5.245   7.721   9.116  0.6974 -0.2110  0.7879
    3TTP    C42  166   5.374   7.665   9.062  0.1828 -1.3879  0.0433
    4FIC     F1  167   2.694   7.561   7.836 -0.2093  0.2673  0.3898
    4FIC     F2  168   2.599   7.347   7.698  0.4904  0.3231 -0.1895
    4FIC     O1  169   3.082   7.329   8.134 -0.4812  0.4661  0.9007
    4FIC     N5  170   2.739   6.872   7.713  1.3026  0.5443 -0.6583
    4FIC     N6  171   3.061   6.734   7.974  0.9491  0.6884 -0.1420
    4FIC    C19  172   3.129   7.041   8.109  0.0907  0.5897  0.5289
    4FIC    C20  173   3.035   7.108   8.039  0.1318  0.5376  0.4230
    4FIC    C21  174   3.017   7.256   8.058 -0.1750  0.4756  0.6280
    4FIC    C22  175   2.907   7.296   7.968 -0.0396  0.4292  0.4417
    4FIC    C23  176   2.855   7.424   7.950 -0.2262  0.3654  0.5326
    4FIC    C24  177   2.751   7.438   7.859 -0.0411  0.3308  0.3154
    4FIC    C25  178   2.702   7.327   7.788  0.3194  0.3594  0.0172
    4FIC    C26  179   2.755   7.199   7.805  0.5073  0.4232 -0.0751
    4FIC    C27  180   2.859   7.183   7.897  0.3244  0.4590  0.1416
    4FIC    C28  181   2.936   7.063   7.938  0.4439  0.5267  0.1181
    4FIC    C29  182   2.918   6.935   7.891  0.7799  0.5708 -0.1372
    4FIC    C30  183   2.820   6.901   7.793  1.0661  0.5561 -0.4226
    4FIC    C31  184   2.997   6.825   7.937  0.8710  0.6353 -0.1385
    5FIC     F1  185   4.270   8.501   8.174 -0.5420  0.1259  0.5398
    5FIC     F2  186   4.521   8.554   8.266 -0.0575  0.0682 -0.7105
    5FIC     O1  187   4.207   7.988   8.337 -0.0566  0.3080  1.3101
    5FIC     N5  188   4.836   8.264   8.514  0.9853  0.1156 -1.9591
    5FIC     N6  189   4.736   7.853   8.623  1.2670  0.2697 -1.1051
    5FIC    C19  190   4.424   7.857   8.483  0.5787  0.3181  0.3893
    5FIC    C20  191   4.430   7.984   8.438  0.4377  0.2743  0.2444
    5FIC    C21  192   4.314   8.044   8.364  0.1105  0.2725  0.7439
    5FIC    C22  193   4.354   8.182   8.330  0.0293  0.2196  0.4282
    5FIC    C23  194   4.279   8.278   8.262 -0.2500  0.1993  0.6981
    5FIC    C24  195   4.338   8.402   8.241 -0.2724  0.1484  0.3037
    5FIC    C25  196   4.467   8.429   8.289 -0.0225  0.1188 -0.3402
    5FIC    C26  197   4.542   8.334   8.358  0.2568  0.1385 -0.6130
    5FIC    C27  198   4.484   8.208   8.379  0.2841  0.1903 -0.2213
    5FIC    C28  199   4.536   8.087   8.447  0.5449  0.2227 -0.3598
    5FIC    C29  200   4.660   8.073   8.507  0.8310  0.2079 -0.9375
    5FIC    C30  201   4.756   8.178   8.511  0.9149  0.1571 -1.4970
    5FIC    C31  202   4.701   7.952   8.571  1.0692  0.2420 -1.0262
    1BTD     S2  203   9.045   4.902   8.230 -0.0442  0.2687  0.0661
    1BTD     N1  204   9.084   4.740   8.298 -0.3829 -0.0153 -0.3989
    1BTD     N2  205   8.905   4.930   8.340  0.3657  0.5026  0.5331
    1BTD     N3  206   8.693   4.696   8.687  0.5894  0.4661  0.6461
    1BTD     N4  207   8.913   4.462   8.636 -0.3335 -0.1719 -0.5019
    1BTD     C5  208   8.992   4.598   8.475 -0.3459 -0.0892 -0.4387
    1BTD     C6  209   8.996   4.717   8.395 -0.1836  0.0743 -0.1924
    1BTD     C7  210   8.896   4.823   8.418  0.2356  0.3638  0.3293
    1BTD     C8  211   8.797   4.805   8.521  0.4714  0.4758  0.5779
    1BTD    C15  212   8.797   4.687   8.597  0.2998  0.3081  0.3224
    1BTD    C16  213   8.894   4.585   8.575 -0.1043  0.0289 -0.1803
    1BTD    C43  214   8.919   4.446   8.787 -0.0101 -0.7095 -0.3614
    1BTD    C44  215   8.895   4.312   8.865  1.1888  0.2709  0.6602
    1BTD    C45  216   8.777   4.238   8.791  0.0358 -0.1167 -0.8775
    1BTD    C46  217   8.694   4.148   8.855  0.4744  0.7479  0.1444
    1BTD    C47  218   8.918   4.321   9.022  1.9230  0.9204  0.1350
    1BTD    C48  219   9.048   4.386   9.065  0.3448 -0.0654  0.3156
    1BTD    C49  220   9.053   4.488   9.183 -0.7289  0.4424  0.5233
    1BTD    C50  221   9.107   4.426   9.315 -0.0074  0.0299 -0.8966
    1BTD    C75  222   8.634   4.586   8.762  0.7718 -1.3710 -0.3847
    1BTD    C76  223   8.590   4.612   8.898 -0.0633  0.1026  1.6803
    1BTD    C77  224   8.478   4.512   8.939  0.1459  1.1925 -0.2716
    1BTD    C78  225   8.424   4.495   9.087  0.4972 -0.3449 -0.4939
    1BTD    C79  226   8.681   4.693   8.998 -1.3467  0.1283  1.3176
    1BTD    C80  227   8.657   4.736   9.136  0.6420 -1.1329 -0.6353
    1BTD    C81  228   8.567   4.862   9.133 -0.1305 -0.3478  0.3806
    1BTD    C82  229   8.519   4.915   9.268  0.6083 -0.8008  0.5297
    2TTP     S1  230   9.186   4.411   8.372  0.6464  0.0655  0.0118
    2TTP     S5  231   8.994   4.101   8.599 -0.3781  0.5956 -0.1194
    2TTP     C1  232   9.102   4.023   8.475 -0.5967  0.2897 -0.1224
    2TTP     C2  233   9.168   4.115   8.398 -0.2935  0.1082 -0.0818
    2TTP     C3  234   9.135   4.249   8.433  0.1230  0.2040 -0.0474
    2TTP     C4  235   9.077   4.489   8.495  0.8655  0.3712  0.0145
    2TTP    C17  236   9.012   4.398   8.573  0.5621  0.5530 -0.0260
    2TTP    C18  237   9.045   4.263   8.537  0.1454  0.4572 -0.0606
    2TTP    C32  238   9.287   4.094   8.297  0.9353 -0.7600 -1.0695
    2TTP    C33  239   9.241   4.140   8.161 -0.7554  0.7759 -0.2951
    2TTP    C34  240   9.345   4.227   8.088  1.3761 -0.3478 -0.7870
    2TTP    C35  241   9.310   4.246   7.942 -0.4481  0.1386 -0.3257
    2TTP    C36  242   9.430   4.296   7.883 -2.0296  0.2589  1.5435
    2TTP    C37  243   9.417   4.372   7.748  0.3613  0.7201 -0.1329
    2TTP    C38  244   9.538   4.399   7.654  0.9311 -1.9389 -0.6607
    2TTP    C39  245   9.503   4.461   7.514 -0.4373 -0.4933 -0.3450
    2TTP    C40  246   9.462   4.358   7.415  0.8141 -0.3073 -0.3838
    2TTP    C41  247   9.462   4.432   7.271 -0.2286  1.2716 -0.2727
    2TTP    C42  248   9.396   4.343   7.172 -0.2439  0.6295  0.1090
    3TTP     S1  249   8.613   5.037   8.504 -0.4015 -0.4324 -0.4915
    3TTP     S5  250   8.361   4.860   8.804  0.0002 -0.4891 -0.1864
    3TTP     C1  251   8.284   5.014   8.747 -0.2310 -0.6393 -0.2783
    3TTP     C2  252   8.357   5.078   8.651 -0.3686 -0.6305 -0.3779
    3TTP     C3  253   8.477   5.007   8.619 -0.2966 -0.5051 -0.3853
    3TTP     C4  254   8.691   4.883   8.562 -0.1705 -0.2822 -0.4001
    3TTP    C17  255   8.618   4.819   8.658 -0.0327 -0.2911 -0.3004
    3TTP    C18  256   8.498   4.890   8.689 -0.1047 -0.4165 -0.2930
    3TTP    C32  257   8.336   5.211   8.581  0.6671  0.6040 -0.2565
    3TTP    C33  258   8.444   5.308   8.526  0.3161  0.1744  0.3316
    3TTP    C34  259   8.413   5.375   8.387  0.9351  0.1814  0.0681
    3TTP    C35  260   8.521   5.453   8.312  0.4230 -1.4858  0.3715
    3TTP    C36  261   8.558   5.570   8.405 -1.4560 -0.3336 -0.0819
    3TTP    C37  262   8.703   5.618   8.391  0.1679  0.6183  1.4402
    3TTP    C38  263   8.689   5.720   8.276 -1.2007 -0.2481  0.5539
    3TTP    C39  264   8.806   5.774   8.204  0.5740 -0.5794 -0.1079
    3TTP    C40  265   8.784   5.924   8.179  0.5158  0.3729 -0.2471
    3TTP    C41  266   8.690   5.949   8.058 -0.4089  0.5328 -0.6347
    3TTP    C42  267   8.718   5.906   7.911 -1.6871 -0.1561 -0.3984
    4FIC     F1  268   9.119   3.435   9.046 -0.2537 -0.3065 -0.4985
    4FIC     F2  269   9.148   3.251   8.847 -0.8016 -0.2460 -0.6363
    4FIC     O1  270   9.109   3.894   8.759  1.0419 -0.0581 -0.1595
    4FIC     N5  271   9.182   3.314   8.357 -0.6661  0.0181 -0.5927
    4FIC     N6  272   9.168   3.710   8.174  0.4568  0.2000 -0.3002
    4FIC    C19  273   9.132   3.882   8.468  0.9788  0.0880 -0.1708
    4FIC    C20  274   9.134   3.774   8.548  0.6742  0.0231 -0.2506
    4FIC    C21  275   9.121   3.788   8.697  0.7300 -0.0497 -0.2389
    4FIC    C22  276   9.127   3.652   8.753  0.3426 -0.1087 -0.3397
    4FIC    C23  277   9.119   3.614   8.886  0.2477 -0.1853 -0.3667
    4FIC    C24  278   9.126   3.479   8.915 -0.1394 -0.2302 -0.4666
    4FIC    C25  279   9.141   3.384   8.813 -0.4214 -0.1989 -0.5375
    4FIC    C26  280   9.149   3.421   8.679 -0.3290 -0.1225 -0.5114
    4FIC    C27  281   9.142   3.558   8.648  0.0620 -0.0762 -0.4103
    4FIC    C28  282   9.147   3.629   8.518  0.2544  0.0061 -0.3583
    4FIC    C29  283   9.160   3.571   8.394  0.0772  0.0567 -0.4015
    4FIC    C30  284   9.172   3.430   8.374 -0.3309  0.0352 -0.5066
    4FIC    C31  285   9.164   3.648   8.273  0.2868  0.1352 -0.3455
    5FIC     F1  286   7.806   4.867   9.395  0.0017  0.0956  0.3252
    5FIC     F2  287   7.808   5.135   9.442 -0.8801  0.1925 -0.1364
    5FIC     O1  288   8.077   4.841   8.927  0.7281  0.0993  0.7434
    5FIC     N5  289   8.006   5.502   9.175 -1.6296  0.3345 -0.5021
    5FIC     N6  290   8.218   5.428   8.800 -0.8841  0.3178 -0.0820
    5FIC    C19  291   8.177   5.088   8.806  0.1440  0.1933  0.4512
    5FIC    C20  292   8.108   5.084   8.922 -0.0043  0.1885  0.3641
    5FIC    C21  293   8.060   4.953   8.978  0.3166  0.1389  0.5252
    5FIC    C22  294   7.990   4.985   9.103  0.0464  0.1469  0.3741
    5FIC    C23  295   7.929   4.896   9.191  0.1961  0.1119  0.4439
    5FIC    C24  296   7.868   4.949   9.304 -0.1231  0.1283  0.2682
    5FIC    C25  297   7.870   5.087   9.328 -0.5772  0.1782  0.0305
    5FIC    C26  298   7.931   5.177   9.241 -0.7288  0.2134 -0.0408
    5FIC    C27  299   7.993   5.125   9.126 -0.4107  0.1974  0.1347
    5FIC    C28  300   8.065   5.191   9.015 -0.4599  0.2249  0.1194
    5FIC    C29  301   8.088   5.326   9.002 -0.8528  0.2749 -0.0834
    5FIC    C30  302   8.043   5.422   9.097 -1.2782  0.3074 -0.3130
    5FIC    C31  303   8.159   5.381   8.891 -0.8676  0.2983 -0.0815
    1BTD     S2  304   6.151   2.285   4.773  0.3217  0.3446 -0.1804
    1BTD     N1  305   6.307   2.305   4.860  0.4878 -0.0468 -0.3806
    1BTD     N2  306   6.170   2.434   4.674  0.2775  0.6242  0.2288
    1BTD     N3  307   6.491   2.775   4.632  0.4873  0.4869  0.7011
    1BTD     N4  308   6.659   2.616   4.861  0.7466 -0.3399 -0.0496
    1BTD     C5  309   6.489   2.469   4.858  0.6198 -0.1899 -0.1990
    1BTD     C6  310   6.362   2.416   4.814  0.5012  0.0461 -0.1444
    1BTD     C7  311   6.286   2.489   4.710  0.3833  0.4218  0.1967
    1BTD     C8  312   6.340   2.610   4.655  0.3902  0.5425  0.4665
    1BTD    C15  313   6.464   2.658   4.701  0.5086  0.3020  0.4014
    1BTD    C16  314   6.538   2.588   4.801  0.6218 -0.0600  0.0726
    1BTD    C43  315   6.763   2.681   4.787 -0.4733 -0.6566  0.9316
    1BTD    C44  316   6.874   2.758   4.851  0.7351 -0.5665  1.0525
    1BTD    C45  317   6.836   2.837   4.973  1.2306 -0.7321  1.4295
    1BTD    C46  318   6.945   2.917   5.040 -1.0842  0.7101 -1.5689
    1BTD    C47  319   7.008   2.788   4.766 -0.3579  0.4709 -0.1766
    1BTD    C48  320   7.159   2.811   4.819  0.4345 -0.2190 -0.4880
    1BTD    C49  321   7.217   2.680   4.828 -0.0983 -0.0107  1.0603
    1BTD    C50  322   7.320   2.631   4.911  0.2310  1.3307 -1.6406
    1BTD    C75  323   6.567   2.895   4.690  0.0668 -0.1918 -0.6058
    1BTD    C76  324   6.478   2.954   4.813  0.0336 -0.6361  2.3434
    1BTD    C77  325   6.333   2.997   4.792 -0.6582 -0.8746  0.9302
    1BTD    C78  326   6.310   3.147   4.821  0.6671 -0.1435 -1.0627
    1BTD    C79  327   6.533   2.930   4.947 -1.2939 -1.2443 -0.9907
    1BTD    C80  328   6.474   3.019   5.070 -1.1561 -0.2019  0.2869
    1BTD    C81  329   6.508   2.980   5.220 -0.4687 -0.5610  0.5242
    1BTD    C82  330   6.590   3.066   5.315  0.3821 -0.3980 -0.8275
    2TTP     S1  331   6.590   2.292   5.076  0.6769 -0.1313 -0.2484
    2TTP     S5  332   6.930   2.552   5.115  0.2421  0.3123  0.6114
    2TTP     C1  333   6.941   2.424   5.244  0.4998 -0.1484  0.1363
    2TTP     C2  334   6.836   2.336   5.239  0.6490 -0.3125 -0.1571
    2TTP     C3  335   6.744   2.367   5.134  0.5655 -0.0803 -0.0175
    2TTP     C4  336   6.580   2.420   4.947  0.4193  0.3295  0.2269
    2TTP    C17  337   6.684   2.509   4.952  0.2699  0.4937  0.5204
    2TTP    C18  338   6.776   2.478   5.057  0.3535  0.2614  0.3805
    2TTP    C32  339   6.814   2.215   5.338 -0.3656  0.0759  0.6179
    2TTP    C33  340   6.673   2.159   5.386 -0.8920  1.6935 -0.5383
    2TTP    C34  341   6.623   2.218   5.525 -0.1546  0.5594 -1.1530
    2TTP    C35  342   6.601   2.376   5.539  1.3261 -0.8132 -0.6334
    2TTP    C36  343   6.517   2.407   5.669  0.9075  0.2318  0.7131
    2TTP    C37  344   6.478   2.556   5.644 -0.6754  0.4081 -0.0835
    2TTP    C38  345   6.341   2.605   5.633  1.0607  0.3605 -0.2995
    2TTP    C39  346   6.270   2.557   5.501  0.7727  0.2133 -0.0580
    2TTP    C40  347   6.137   2.476   5.541 -1.0242  0.1254  0.0776
    2TTP    C41  348   6.130   2.328   5.581 -0.3408  0.1321 -0.2213
    2TTP    C42  349   6.150   2.234   5.467 -0.7940 -0.9196 -1.3993
    3TTP     S1  350   6.179   2.701   4.411 -0.6072  0.6711  0.1796
    3TTP     S5  351   6.484   2.986   4.306  0.1526 -0.1180  0.2227
    3TTP     C1  352   6.357   2.987   4.176  0.0162  0.4295  0.3538
    3TTP     C2  353   6.256   2.899   4.201 -0.2265  0.7054  0.3482
    3TTP     C3  354   6.274   2.828   4.323 -0.3135  0.4944  0.2403
    3TTP     C4  355   6.306   2.700   4.541 -0.4709  0.1236  0.0485
    3TTP    C17  356   6.408   2.788   4.516 -0.2281 -0.1523  0.0541
    3TTP    C18  357   6.389   2.859   4.394 -0.1411  0.0587  0.1621
    3TTP    C32  358   6.137   2.866   4.105 -0.8371 -0.2886  0.5531
    3TTP    C33  359   6.020   2.957   4.126 -0.8248  0.3626  0.4071
    3TTP    C34  360   5.894   2.914   4.064  0.3023 -0.9404 -0.3209
    3TTP    C35  361   5.866   2.892   3.918  0.4681  1.3813  1.2188
    3TTP    C36  362   5.863   3.022   3.842 -0.7756 -0.2015  0.3617
    3TTP    C37  363   5.837   3.009   3.697 -0.1139  0.4944 -0.5258
    3TTP    C38  364   5.834   3.136   3.625 -0.3095 -0.4465  1.3180
    3TTP    C39  365   5.869   3.133   3.479  0.3894 -0.0547  0.6819
    3TTP    C40  366   5.806   3.262   3.426  0.6549 -1.0411  1.3026
    3TTP    C41  367   5.810   3.313   3.266 -0.3793 -1.5552 -0.2456
    3TTP    C42  368   5.761   3.453   3.253  0.0673 -0.2434  0.5726
    4FIC     F1  369   7.405   2.999   5.573  0.2218 -0.0691  0.0787
    4FIC     F2  370   7.560   2.806   5.686 -0.0305 -0.2661  0.0895
    4FIC     O1  371   7.034   2.697   5.320  0.0612  0.3943 -0.2409
    4FIC     N5  372   7.518   2.313   5.669 -0.5080 -0.2189 -0.1225
    4FIC     N6  373   7.197   2.116   5.448 -0.5828  0.1830 -0.3743
    4FIC    C19  374   7.050   2.406   5.338 -0.2371  0.3708 -0.3441
    4FIC    C20  375   7.138   2.489   5.397 -0.1868  0.2619 -0.2640
    4FIC    C21  376   7.123   2.638   5.383 -0.0321  0.2823 -0.2151
    4FIC    C22  377   7.233   2.698   5.460 -0.0137  0.1437 -0.1311
    4FIC    C23  378   7.261   2.834   5.476  0.1112  0.1101 -0.0639
    4FIC    C24  379   7.372   2.867   5.553  0.1025 -0.0286  0.0097
    4FIC    C25  380   7.452   2.767   5.611 -0.0278 -0.1298  0.0151
    4FIC    C26  381   7.424   2.632   5.595 -0.1528 -0.0972 -0.0517
    4FIC    C27  382   7.313   2.596   5.518 -0.1460  0.0429 -0.1266
    4FIC    C28  383   7.257   2.464   5.482 -0.2576  0.1114 -0.2080
    4FIC    C29  384   7.307   2.341   5.519 -0.3994  0.0476 -0.2278
    4FIC    C30  385   7.423   2.326   5.601 -0.4586 -0.0988 -0.1698
    4FIC    C31  386   7.246   2.218   5.480 -0.4994  0.1224 -0.3084
    5FIC     F1  387   6.612   3.739   3.976  0.5044 -0.2056 -0.0629
    5FIC     F2  388   6.518   3.696   3.725 -0.8669  0.5157  0.3085
    5FIC     O1  389   6.485   3.269   4.215  1.2485 -0.6545 -0.5407
    5FIC     N5  390   6.292   3.300   3.533 -2.3080  1.2327  0.5016
    5FIC     N6  391   6.211   2.942   3.770 -1.4498  0.7366  0.0535
    5FIC    C19  392   6.350   3.062   4.059  0.2028 -0.1248 -0.3556
    5FIC    C20  393   6.385   3.182   4.009  0.0691 -0.0401 -0.2500
    5FIC    C21  394   6.455   3.283   4.095  0.6343 -0.3276 -0.3558
    5FIC    C22  395   6.479   3.401   4.010  0.3139 -0.1441 -0.1973
    5FIC    C23  396   6.541   3.521   4.046  0.6326 -0.2990 -0.2222
    5FIC    C24  397   6.552   3.618   3.948  0.2226 -0.0704 -0.0494
    5FIC    C25  398   6.504   3.596   3.818 -0.4837  0.3010  0.1419
    5FIC    C26  399   6.442   3.477   3.782 -0.8050  0.4573  0.1677
    5FIC    C27  400   6.429   3.377   3.880 -0.3984  0.2304 -0.0056
    5FIC    C28  401   6.370   3.241   3.874 -0.5770  0.3091 -0.0302
    5FIC    C29  402   6.312   3.182   3.764 -1.2184  0.6421  0.1214
    5FIC    C30  403   6.301   3.247   3.637 -1.8152  0.9657  0.3299
    5FIC    C31  404   6.257   3.050   3.768 -1.3421  0.6921  0.0832
    1BTD     S2  405   6.546   0.606   3.731  0.1198 -0.0921  0.0945
    1BTD     N1  406   6.545   0.754   3.628  0.3734  0.2277  0.5403
    1BTD     N2  407   6.699   0.541   3.660 -0.2530 -0.3946 -0.4466
    1BTD     N3  408   7.005   0.675   3.331 -0.5544 -0.4336 -0.7442
    1BTD     N4  409   6.816   0.936   3.290  0.2171  0.3333  0.4718
    1BTD     C5  410   6.688   0.846   3.452  0.2825  0.2736  0.4898
    1BTD     C6  411   6.652   0.747   3.550  0.1773  0.0992  0.2764
    1BTD     C7  412   6.738   0.628   3.568 -0.1732 -0.2492 -0.2759
    1BTD     C8  413   6.856   0.614   3.488 -0.4009 -0.4057 -0.5873
    1BTD    C15  414   6.888   0.713   3.393 -0.2868 -0.2253 -0.3620
    1BTD    C16  415   6.805   0.828   3.375  0.0508  0.1104  0.1703
    1BTD    C43  416   6.912   1.049   3.299  0.3241  0.0164  0.0926
    1BTD    C44  417   6.919   1.094   3.446  0.5052 -0.5941 -1.1693
    1BTD    C45  418   6.998   1.006   3.560 -1.7153  2.0328  0.0321
    1BTD    C46  419   7.001   1.037   3.703  0.1516 -1.6825 -0.0758
    1BTD    C47  420   6.958   1.252   3.446  0.4500  0.4467 -0.3989
    1BTD    C48  421   6.840   1.345   3.456  0.6119 -1.8878 -0.0992
    1BTD    C49  422   6.697   1.340   3.411 -0.8247  0.5444  0.8106
    1BTD    C50  423   6.662   1.373   3.268  0.3996  0.0735 -0.2742
    1BTD    C75  424   7.057   0.693   3.191 -0.1391  0.8242  0.2792
    1BTD    C76  425   7.206   0.729   3.170 -0.6501 -0.9883  0.7020
    1BTD    C77  426   7.230   0.855   3.267  0.9144  0.8356 -1.1687
    1BTD    C78  427   7.370   0.908   3.301  1.4515 -0.4541  0.0787
    1BTD    C79  428   7.266   0.739   3.033  1.2752 -1.9729 -0.1332
    1BTD    C80  429   7.152   0.823   2.930 -0.7544 -0.2219  0.8295
    1BTD    C81  430   7.223   0.933   2.840  0.2297  0.2632  0.0637
    1BTD    C82  431   7.127   0.980   2.741 -0.1788 -0.8022  0.3671
    2TTP     S1  432   6.440   1.023   3.390  0.0858  0.0378 -0.1765
    2TTP     S5  433   6.626   1.099   3.009  0.1246  0.2561 -0.1146
    2TTP     C1  434   6.453   1.155   3.001  0.1561  0.3613 -0.0652
    2TTP     C2  435   6.385   1.135   3.119  0.1462  0.3000 -0.0814
    2TTP     C3  436   6.468   1.075   3.218  0.1129  0.1679 -0.1335
    2TTP     C4  437   6.613   0.967   3.397  0.0540 -0.0675 -0.2259
    2TTP    C17  438   6.681   0.987   3.280  0.0642 -0.0062 -0.2098
    2TTP    C18  439   6.598   1.048   3.180  0.0972  0.1259 -0.1577
    2TTP    C32  440   6.239   1.145   3.176  1.0768 -0.8228 -0.7105
    2TTP    C33  441   6.159   1.273   3.148 -0.6490  0.7302  0.1821
    2TTP    C34  442   6.041   1.257   3.053 -0.4595 -0.0998 -0.3509
    2TTP    C35  443   5.968   1.388   3.018 -0.2510  0.3999 -0.1772
    2TTP    C36  444   6.047   1.482   2.924 -0.2450  0.8445  0.4446
    2TTP    C37  445   6.080   1.620   2.967  0.0940 -2.1680 -0.9472
    2TTP    C38  446   5.980   1.726   2.991  0.9913  0.0313  0.1482
    2TTP    C39  447   6.032   1.870   2.974  0.5533  0.5636  0.1122
    2TTP    C40  448   5.912   1.966   2.981  0.4424 -0.4744 -0.7143
    2TTP    C41  449   5.933   2.112   2.951  0.2206  0.4271 -0.3850
    2TTP    C42  450   5.983   2.129   2.816  0.0156 -0.1325 -0.4543
    3TTP     S1  451   7.022   0.389   3.585  0.0935 -0.3363 -0.1991
    3TTP     S5  452   7.330   0.485   3.301  0.4125 -0.5091  0.0870
    3TTP     C1  453   7.384   0.341   3.399  0.1931 -0.6089  0.0631
    3TTP     C2  454   7.292   0.303   3.492  0.0818 -0.5615 -0.0266
    3TTP     C3  455   7.176   0.386   3.490  0.1655 -0.4445 -0.0798
    3TTP     C4  456   6.968   0.533   3.487  0.3129 -0.2365 -0.1752
    3TTP    C17  457   7.060   0.571   3.393  0.4242 -0.2840 -0.0855
    3TTP    C18  458   7.176   0.488   3.396  0.3403 -0.4009 -0.0324
    3TTP    C32  459   7.311   0.190   3.592 -0.4690 -0.4654 -0.5487
    3TTP    C33  460   7.221   0.070   3.565 -0.4817  0.2089 -1.5390
    3TTP    C34  461   7.270  -0.032   3.675  0.2379 -0.5393 -0.6469
    3TTP    C35  462   7.164  -0.141   3.675 -0.7952  0.8164 -0.7754
    3TTP    C36  463   7.155  -0.235   3.792 -0.4744 -1.8694  0.0596
    3TTP    C37  464   7.188  -0.167   3.945 -0.7075  0.3803  1.4060
    3TTP    C38  465   7.149  -0.277   4.053  1.0815 -1.0104  0.4823
    3TTP    C39  466   7.185  -0.289   4.192 -0.7542  0.6368 -0.6984
    3TTP    C40  467   7.208  -0.165   4.288 -0.3020  0.6911  1.5389
    3TTP    C41  468   7.101  -0.063   4.287 -1.0042 -1.7184  0.2550
    3TTP    C42  469   7.160   0.087   4.254  0.3288  0.2933 -0.2984
    4FIC     F1  470   6.796   1.701   2.503 -0.4197  0.4499  0.5751
    4FIC     F2  471   6.570   1.693   2.351  0.0461 -0.4070 -0.0895
    4FIC     O1  472   6.663   1.361   2.903 -0.6796  0.7173  0.7170
    4FIC     N5  473   6.151   1.439   2.419  0.5307 -1.4483 -0.9441
    4FIC     N6  474   6.093   1.175   2.762  0.2337 -1.0665 -0.6995
    4FIC    C19  475   6.400   1.233   2.901 -0.3268 -0.0063  0.1322
    4FIC    C20  476   6.443   1.319   2.806 -0.2797 -0.0401  0.1225
    4FIC    C21  477   6.579   1.381   2.814 -0.4705  0.3467  0.4338
    4FIC    C22  478   6.593   1.468   2.696 -0.3598  0.1978  0.3354
    4FIC    C23  479   6.702   1.547   2.661 -0.4665  0.4410  0.5386
    4FIC    C24  480   6.692   1.621   2.544 -0.3258  0.2289  0.3889
    4FIC    C25  481   6.575   1.617   2.466 -0.0857 -0.2126  0.0463
    4FIC    C26  482   6.466   1.539   2.501  0.0219 -0.4571 -0.1579
    4FIC    C27  483   6.474   1.462   2.619 -0.1179 -0.2482 -0.0109
    4FIC    C28  484   6.377   1.370   2.683 -0.0590 -0.4119 -0.1552
    4FIC    C29  485   6.251   1.339   2.637  0.1584 -0.8285 -0.4836
    4FIC    C30  486   6.197   1.394   2.517  0.3624 -1.1678 -0.7357
    4FIC    C31  487   6.165   1.249   2.706  0.1986 -0.9570 -0.6004
    5FIC     F1  488   7.582   0.107   2.640 -0.3217  0.1823  0.0141
    5FIC     F2  489   7.786  -0.042   2.741  0.0216  0.4263 -0.3155
    5FIC     O1  490   7.371   0.315   3.093  0.0299 -0.2389  0.3721
    5FIC     N5  491   7.930  -0.107   3.210  0.7659  0.4773 -0.5343
    5FIC     N6  492   7.725   0.085   3.544  0.9714  0.0988 -0.1882
    5FIC    C19  493   7.492   0.246   3.351  0.4828 -0.1553  0.1842
    5FIC    C20  494   7.537   0.200   3.233  0.3810 -0.0589  0.1070
    5FIC    C21  495   7.470   0.239   3.105  0.1477 -0.1103  0.2124
    5FIC    C22  496   7.543   0.172   2.996  0.0883  0.0217  0.0889
    5FIC    C23  497   7.518   0.178   2.860 -0.1112  0.0292  0.1256
    5FIC    C24  498   7.601   0.105   2.776 -0.1291  0.1669 -0.0130
    5FIC    C25  499   7.706   0.029   2.828  0.0483  0.2925 -0.1827
    5FIC    C26  500   7.732   0.022   2.965  0.2477  0.2859 -0.2204
    5FIC    C27  501   7.649   0.095   3.051  0.2689  0.1474 -0.0817
    5FIC    C28  502   7.649   0.109   3.199  0.4557  0.1028 -0.0772
    5FIC    C29  503   7.737   0.050   3.286  0.6591  0.1941 -0.2172
    5FIC    C30  504   7.843  -0.036   3.244  0.7172  0.3493 -0.3911
    5FIC    C31  505   7.730   0.070   3.428  0.8298  0.1412 -0.2005
    1BTD     S2  506   2.884   7.534   4.216 -0.5381 -0.1652  0.4704
    1BTD     N1  507   3.056   7.586   4.219 -0.4851 -0.3375  0.4699
    1BTD     N2  508   2.830   7.665   4.106 -0.3771 -0.2002  0.3493
    1BTD     N3  509   3.031   8.028   3.887  0.0468 -0.5834  0.1016
    1BTD     N4  510   3.309   7.931   4.026 -0.0862 -0.7524  0.2501
    1BTD     C5  511   3.185   7.767   4.116 -0.2752 -0.5521  0.3535
    1BTD     C6  512   3.064   7.693   4.142 -0.3567 -0.4088  0.3839
    1BTD     C7  513   2.937   7.738   4.079 -0.2963 -0.3320  0.3164
    1BTD     C8  514   2.938   7.854   3.993 -0.1575 -0.4022  0.2218
    1BTD    C15  515   3.059   7.923   3.971 -0.0814 -0.5428  0.1950
    1BTD    C16  516   3.181   7.880   4.032 -0.1397 -0.6167  0.2601
    1BTD    C43  517   3.384   8.022   3.920  0.1928 -0.5522 -0.4637
    1BTD    C44  518   3.436   7.935   3.799  2.3871 -0.1242  1.6165
    1BTD    C45  519   3.358   7.815   3.740  2.1460 -0.7895  1.1785
    1BTD    C46  520   3.243   7.841   3.642 -0.3423 -0.6015 -1.2812
    1BTD    C47  521   3.518   8.009   3.692 -0.5379  0.8833  0.7623
    1BTD    C48  522   3.474   8.099   3.591 -0.3838  1.2197 -0.1802
    1BTD    C49  523   3.569   8.222   3.608 -1.5189  0.0781 -0.1267
    1BTD    C50  524   3.618   8.309   3.485  0.7884 -0.3544 -0.6010
    1BTD    C75  525   3.082   8.161   3.898 -1.6069 -0.3043  1.1696
    1BTD    C76  526   3.096   8.231   4.042  0.7105 -0.4068  0.1079
    1BTD    C77  527   2.966   8.238   4.125  0.4779  0.7964 -0.7832
    1BTD    C78  528   2.839   8.318   4.074  0.0567  0.7055  0.9586
    1BTD    C79  529   3.193   8.347   4.057  0.1810  0.2386  0.0657
    1BTD    C80  530   3.177   8.468   3.960  0.8759 -0.3833 -0.2780
    1BTD    C81  531   3.254   8.575   4.033  0.1061 -0.0223  0.8333
    1BTD    C82  532   3.283   8.704   3.948  1.0884  0.1705 -0.0088
    2TTP     S1  533   3.429   7.660   4.283  0.4713  0.0828  0.0479
    2TTP     S5  534   3.637   8.023   4.184 -0.1543  0.4740  0.1513
    2TTP     C1  535   3.729   7.938   4.316 -0.0588  0.6434  0.1951
    2TTP     C2  536   3.670   7.821   4.354  0.1399  0.5325  0.1658
    2TTP     C3  537   3.550   7.794   4.281  0.2241  0.3099  0.1076
    2TTP     C4  538   3.337   7.746   4.151  0.3760 -0.0867  0.0039
    2TTP    C17  539   3.396   7.863   4.112  0.1772  0.0241  0.0334
    2TTP    C18  540   3.516   7.889   4.186  0.0930  0.2469  0.0916
    2TTP    C32  541   3.712   7.719   4.452 -0.3947  0.1387 -0.8143
    2TTP    C33  542   3.775   7.576   4.408 -1.2692  0.1926  1.0568
    2TTP    C34  543   3.879   7.566   4.300 -0.9126  0.3953 -0.4181
    2TTP    C35  544   4.019   7.581   4.366  0.0874  0.8858  0.2691
    2TTP    C36  545   4.135   7.642   4.290  0.3355  0.0544 -0.1346
    2TTP    C37  546   4.263   7.652   4.377 -0.8818 -0.4354 -0.0898
    2TTP    C38  547   4.267   7.786   4.447  0.5476 -1.2339 -0.7418
    2TTP    C39  548   4.390   7.813   4.528  0.9405  0.5015 -0.5778
    2TTP    C40  549   4.501   7.903   4.479 -0.8081 -1.0335 -1.2973
    2TTP    C41  550   4.596   7.884   4.365 -0.7368 -2.3896 -0.4209
    2TTP    C42  551   4.700   7.784   4.403  0.1019  0.1352  0.0296
    3TTP     S1  552   2.670   7.892   3.835  0.3506  0.0387 -0.2733
    3TTP     S5  553   2.865   8.184   3.587  0.2233  0.3519 -0.0066
    3TTP     C1  554   2.701   8.149   3.517  0.3686  0.0996 -0.2226
    3TTP     C2  555   2.631   8.057   3.589  0.4165 -0.0122 -0.3178
    3TTP     C3  556   2.705   8.011   3.703  0.3402  0.0978 -0.2234
    3TTP     C4  557   2.834   7.928   3.905  0.2053  0.2912 -0.0573
    3TTP    C17  558   2.904   8.020   3.833  0.1575  0.4027  0.0379
    3TTP    C18  559   2.831   8.066   3.719  0.2338  0.2930 -0.0564
    3TTP    C32  560   2.506   7.979   3.557  0.7749 -1.2229 -0.2471
    3TTP    C33  561   2.383   8.050   3.619 -0.9766 -0.5347  0.3995
    3TTP    C34  562   2.267   7.979   3.686 -0.3525 -0.9529 -1.1948
    3TTP    C35  563   2.171   8.068   3.769 -0.1578 -0.0463 -0.3125
    3TTP    C36  564   2.054   8.013   3.854 -0.8907 -1.3651  1.0294
    3TTP    C37  565   1.948   7.939   3.774  0.6879 -0.1960  0.8055
    3TTP    C38  566   1.968   7.811   3.699 -1.9551  0.5830  0.4752
    3TTP    C39  567   1.881   7.780   3.578 -0.1254 -0.3101  0.0601
    3TTP    C40  568   1.918   7.650   3.519  0.5789  0.7892  1.2772
    3TTP    C41  569   2.050   7.639   3.441 -0.6005  0.4887  0.3061
    3TTP    C42  570   2.090   7.490   3.410  0.3232  0.7490 -0.5774
    4FIC     F1  571   4.275   8.536   4.200  0.0349 -0.0036  0.2859
    4FIC     F2  572   4.380   8.484   4.446 -0.0207 -0.0751  0.2948
    4FIC     O1  573   3.886   8.160   4.174 -0.0286  0.0725  0.1324
    4FIC     N5  574   4.253   8.143   4.781 -0.1460 -0.1242  0.1984
    4FIC     N6  575   3.928   7.859   4.711 -0.1844 -0.0502  0.0768
    4FIC    C19  576   3.848   7.977   4.400 -0.1042  0.0311  0.0865
    4FIC    C20  577   3.942   8.074   4.397 -0.0861  0.0148  0.1247
    4FIC    C21  578   3.955   8.164   4.277 -0.0471  0.0381  0.1463
    4FIC    C22  579   4.066   8.257   4.307 -0.0360  0.0117  0.1869
    4FIC    C23  580   4.115   8.358   4.226 -0.0020  0.0200  0.2179
    4FIC    C24  581   4.221   8.433   4.275  0.0023 -0.0101  0.2539
    4FIC    C25  582   4.275   8.407   4.402 -0.0264 -0.0466  0.2584
    4FIC    C26  583   4.226   8.305   4.483 -0.0603 -0.0553  0.2277
    4FIC    C27  584   4.119   8.228   4.435 -0.0652 -0.0253  0.1911
    4FIC    C28  585   4.045   8.115   4.495 -0.0973 -0.0250  0.1529
    4FIC    C29  586   4.067   8.059   4.619 -0.1307 -0.0556  0.1453
    4FIC    C30  587   4.169   8.105   4.707 -0.1390 -0.0932  0.1746
    4FIC    C31  588   3.991   7.949   4.669 -0.1600 -0.0523  0.1076
    5FIC     F1  589   3.052   8.445   2.825 -0.0566 -0.2747 -0.0027
    5FIC     F2  590   2.806   8.523   2.740 -0.0189  0.1023  0.2320
    5FIC     O1  591   2.929   8.208   3.295 -0.0098 -0.3872 -0.0470
    5FIC     N5  592   2.363   8.466   2.955  0.0688  0.5643  0.5378
    5FIC     N6  593   2.317   8.265   3.340  0.0976  0.4005  0.4559
    5FIC    C19  594   2.650   8.198   3.382  0.0428 -0.0672  0.1614
    5FIC    C20  595   2.691   8.255   3.267  0.0296 -0.0536  0.1634
    5FIC    C21  596   2.836   8.256   3.229  0.0026 -0.2246  0.0526
    5FIC    C22  597   2.845   8.324   3.099 -0.0061 -0.1605  0.0858
    5FIC    C23  598   2.960   8.350   3.024 -0.0299 -0.2685  0.0128
    5FIC    C24  599   2.943   8.417   2.904 -0.0336 -0.1762  0.0643
    5FIC    C25  600   2.816   8.457   2.861 -0.0141  0.0177  0.1854
    5FIC    C26  601   2.702   8.432   2.935  0.0096  0.1268  0.2587
    5FIC    C27  602   2.716   8.364   3.057  0.0138  0.0358  0.2081
    5FIC    C28  603   2.616   8.323   3.158  0.0365  0.1094  0.2607
    5FIC    C29  604   2.480   8.344   3.153  0.0595  0.2930  0.3770
    5FIC    C30  605   2.416   8.411   3.044  0.0646  0.4416  0.4650
    5FIC    C31  606   2.391   8.301   3.256  0.0805  0.3510  0.4198
    1BTD     S2  607   1.134   6.963   3.650  0.6905 -0.2918 -0.2177
    1BTD     N1  608   0.968   6.944   3.716  0.5408  0.1781 -0.4502
    1BTD     N2  609   1.152   6.790   3.604  0.4187 -0.4221  0.1625
    1BTD     N3  610   0.887   6.404   3.630 -0.4057  0.1608  0.5177
    1BTD     N4  611   0.661   6.593   3.768 -0.2552  0.9005 -0.2374
    1BTD     C5  612   0.810   6.759   3.741  0.1235  0.5462 -0.3300
    1BTD     C6  613   0.936   6.817   3.701  0.3080  0.2118 -0.2431
    1BTD     C7  614   1.038   6.730   3.638  0.2396 -0.1242  0.0998
    1BTD     C8  615   1.010   6.591   3.619 -0.0099 -0.1088  0.3389
    1BTD    C15  616   0.886   6.538   3.660 -0.1844  0.2244  0.2427
    1BTD    C16  617   0.787   6.622   3.721 -0.1185  0.5484 -0.0877
    1BTD    C43  618   0.589   6.469   3.777 -0.1554  0.3553  0.6590
    1BTD    C44  619   0.603   6.408   3.923  0.4962 -0.8623 -0.3914
    1BTD    C45  620   0.487   6.310   3.966  0.2785  0.0754 -1.3917
    1BTD    C46  621   0.503   6.158   3.962  0.3750 -0.4095 -0.6573
    1BTD    C47  622   0.743   6.384   4.001 -0.1898  0.0803  0.8484
    1BTD    C48  623   0.787   6.459   4.125  0.2628  0.4049  0.0493
    1BTD    C49  624   0.732   6.435   4.268 -0.0964 -0.3488  0.7777
    1BTD    C50  625   0.731   6.553   4.364  1.5630 -1.4422 -0.3725
    1BTD    C75  626   0.768   6.346   3.557  0.4911 -0.9412  0.3810
    1BTD    C76  627   0.739   6.341   3.398 -0.6432 -0.1045 -0.7321
    1BTD    C77  628   0.839   6.312   3.298  1.0637  1.0063 -0.2535
    1BTD    C78  629   0.827   6.372   3.166 -1.7327 -0.3225  0.8314
    1BTD    C79  630   0.593   6.295   3.376  1.3460 -0.0930 -0.4437
    1BTD    C80  631   0.551   6.160   3.415 -0.4750  1.2381 -0.1695
    1BTD    C81  632   0.431   6.124   3.509 -1.2212 -0.3729  0.3023
    1BTD    C82  633   0.406   5.998   3.592 -1.5691 -0.4477 -0.8778
    2TTP     S1  634   0.625   6.971   3.858 -0.1969  0.0126 -0.1109
    2TTP     S5  635   0.346   6.658   3.952 -0.5360  0.3388 -0.0296
    2TTP     C1  636   0.284   6.814   4.023 -0.2732  0.3880  0.0910
    2TTP     C2  637   0.367   6.920   3.998 -0.1529  0.2904  0.0730
    2TTP     C3  638   0.482   6.882   3.922 -0.2641  0.1729 -0.0367
    2TTP     C4  639   0.687   6.815   3.786 -0.4597 -0.0366 -0.2314
    2TTP    C17  640   0.604   6.710   3.811 -0.5799  0.0613 -0.2134
    2TTP    C18  641   0.489   6.748   3.887 -0.4688  0.1785 -0.1038
    2TTP    C32  642   0.367   7.059   4.063  0.1503 -0.4473  0.7627
    2TTP    C33  643   0.380   7.189   3.987 -0.3106 -0.0007 -0.2312
    2TTP    C34  644   0.256   7.213   3.904  0.0221 -0.1866  0.0465
    2TTP    C35  645   0.242   7.370   3.856  0.6583  1.2238 -0.1123
    2TTP    C36  646   0.108   7.386   3.786  2.1858  0.1356  0.0194
    2TTP    C37  647   0.026   7.524   3.774  0.4646 -0.7400  0.1378
    2TTP    C38  648  -0.045   7.615   3.880  0.9855  0.1426  0.0763
    2TTP    C39  649  -0.156   7.718   3.829  1.4227 -1.1120 -0.3277
    2TTP    C40  650  -0.304   7.656   3.816  0.5351 -0.5436  0.5712
    2TTP    C41  651  -0.378   7.655   3.668 -0.9045 -1.1618 -0.5252
    2TTP    C42  652  -0.442   7.798   3.667  0.0247 -0.0572  0.0704
    3TTP     S1  653   1.249   6.439   3.505  0.1696  0.4098  0.3929
    3TTP     S5  654   1.031   6.072   3.552 -0.1599  0.4990 -0.4018
    3TTP     C1  655   1.197   6.033   3.490  0.0082  0.4417  0.0743
    3TTP     C2  656   1.274   6.144   3.471  0.1199  0.4108  0.3477
    3TTP     C3  657   1.205   6.264   3.506  0.0767  0.4313  0.1911
    3TTP     C4  658   1.083   6.478   3.567  0.0015  0.4672 -0.0831
    3TTP    C17  659   1.006   6.367   3.585 -0.1102  0.4980 -0.3566
    3TTP    C18  660   1.075   6.247   3.551 -0.0670  0.4777 -0.2000
    3TTP    C32  661   1.416   6.165   3.412 -0.6333  0.7332 -0.5545
    3TTP    C33  662   1.411   6.210   3.264  0.0797 -0.8366 -0.2625
    3TTP    C34  663   1.360   6.339   3.199  0.1233  0.4444  0.7820
    3TTP    C35  664   1.367   6.335   3.053 -0.4319  0.4970 -0.0099
    3TTP    C36  665   1.512   6.330   2.983  0.5105  1.7405 -0.9257
    3TTP    C37  666   1.532   6.336   2.846 -0.1464 -0.4263  1.4029
    3TTP    C38  667   1.682   6.342   2.796 -1.3476  2.7354  0.6833
    3TTP    C39  668   1.744   6.202   2.827  1.0397 -1.1074  1.6878
    3TTP    C40  669   1.858   6.217   2.938  0.7266  0.9623 -0.1868
    3TTP    C41  670   1.899   6.097   3.019  0.2532 -1.0173 -0.6878
    3TTP    C42  671   1.785   6.038   3.094  0.2899 -1.2728 -0.8645
    4FIC     F1  672  -0.002   6.441   4.698  0.0722  0.2227  0.0759
    4FIC     F2  673  -0.156   6.661   4.746  0.2890  0.3749  0.0730
    4FIC     O1  674   0.239   6.584   4.234 -0.0981 -0.1929 -0.1421
    4FIC     N5  675  -0.204   7.078   4.485  0.4790  0.2975 -0.0869
    4FIC     N6  676   0.015   7.146   4.114  0.3022 -0.0579 -0.2567
    4FIC    C19  677   0.178   6.845   4.116  0.0484 -0.1952 -0.2225
    4FIC    C20  678   0.123   6.800   4.231  0.0828 -0.0964 -0.1675
    4FIC    C21  679   0.159   6.665   4.285  0.0025 -0.1023 -0.1289
    4FIC    C22  680   0.083   6.648   4.410  0.0668  0.0196 -0.0726
    4FIC    C23  681   0.083   6.539   4.496  0.0282  0.0583 -0.0230
    4FIC    C24  682   0.002   6.546   4.608  0.1048  0.1784  0.0253
    4FIC    C25  683  -0.077   6.659   4.633  0.2166  0.2566  0.0236
    4FIC    C26  684  -0.078   6.769   4.548  0.2553  0.2185 -0.0256
    4FIC    C27  685   0.004   6.763   4.433  0.1791  0.0972 -0.0751
    4FIC    C28  686   0.025   6.861   4.324  0.1934  0.0290 -0.1334
    4FIC    C29  687  -0.034   6.985   4.312  0.2906  0.0740 -0.1521
    4FIC    C30  688  -0.127   7.036   4.407  0.3939  0.1967 -0.1162
    4FIC    C31  689  -0.007   7.073   4.203  0.2964  0.0011 -0.2096
    5FIC     F1  690   0.823   5.329   3.259 -0.3849 -0.3104  0.7113
    5FIC     F2  691   1.067   5.208   3.249 -0.1286  0.2848 -1.3018
    5FIC     O1  692   0.965   5.834   3.395 -0.7126 -0.4617  1.6265
    5FIC     N5  693   1.518   5.393   3.333  0.0062  1.0324 -3.5437
    5FIC     N6  694   1.579   5.812   3.442 -0.3015  0.7942 -2.4228
    5FIC    C19  695   1.248   5.897   3.435 -0.5842  0.0529  0.0283
    5FIC    C20  696   1.203   5.775   3.401 -0.5118  0.0678 -0.1233
    5FIC    C21  697   1.056   5.750   3.382 -0.5852 -0.2066  0.7365
    5FIC    C22  698   1.041   5.608   3.346 -0.4763 -0.1122  0.3123
    5FIC    C23  699   0.924   5.539   3.319 -0.4939 -0.2886  0.8196
    5FIC    C24  700   0.935   5.404   3.287 -0.3750 -0.1490  0.2573
    5FIC    C25  701   1.061   5.342   3.282 -0.2431  0.1576 -0.7797
    5FIC    C26  702   1.179   5.411   3.309 -0.2248  0.3350 -1.2907
    5FIC    C27  703   1.169   5.547   3.341 -0.3439  0.1976 -0.7343
    5FIC    C28  704   1.273   5.647   3.375 -0.3605  0.3204 -1.0431
    5FIC    C29  705   1.409   5.625   3.381 -0.2556  0.6125 -1.9991
    5FIC    C30  706   1.468   5.498   3.355 -0.1120  0.8422 -2.8450
    5FIC    C31  707   1.502   5.728   3.414 -0.2815  0.7106 -2.2266
    1BTD     S2  708   6.728   9.452   2.379  0.1490  0.0200  0.0283
    1BTD     N1  709   6.855   9.524   2.275  0.0091 -0.1070 -0.2336
    1BTD     N2  710   6.603   9.574   2.336  0.1725  0.1297  0.2640
    1BTD     N3  711   6.579   9.953   2.060 -0.0315  0.1233  0.2719
    1BTD     N4  712   6.890   9.891   1.985 -0.2331 -0.1688 -0.3414
    1BTD     C5  713   6.870   9.716   2.125 -0.1148 -0.1359 -0.2825
    1BTD     C6  714   6.801   9.630   2.217 -0.0117 -0.0637 -0.1367
    1BTD     C7  715   6.660   9.658   2.251  0.0799  0.0691  0.1417
    1BTD     C8  716   6.594   9.771   2.191  0.0635  0.1228  0.2607
    1BTD    C15  717   6.665   9.853   2.101 -0.0389  0.0483  0.1104
    1BTD    C16  718   6.802   9.826   2.069 -0.1270 -0.0791 -0.1579
    1BTD    C43  719   6.875   9.988   1.875 -0.9992  0.5296 -0.5007
    1BTD    C44  720   6.835   9.931   1.735  0.5496 -0.3664  0.5525
    1BTD    C45  721   6.697   9.849   1.732  1.0863  0.2118  1.8064
    1BTD    C46  722   6.663   9.724   1.654 -0.4827  0.7686  0.7135
    1BTD    C47  723   6.875   9.999   1.603 -0.3310 -0.1967 -0.7017
    1BTD    C48  724   6.819  10.146   1.575 -0.5388 -0.1872 -0.7981
    1BTD    C49  725   6.928  10.233   1.515 -0.5703  0.2773  0.1962
    1BTD    C50  726   6.968  10.201   1.373  1.4891 -1.4130  0.8830
    1BTD    C75  727   6.604  10.082   2.006  0.9112 -0.9877 -0.4628
    1BTD    C76  728   6.654  10.195   2.089 -0.6426  0.8051 -0.2723
    1BTD    C77  729   6.730  10.292   1.995  0.5334  0.4611 -0.4258
    1BTD    C78  730   6.831  10.417   2.039  0.5675  0.0546 -0.2905
    1BTD    C79  731   6.550  10.277   2.179  0.1481 -0.1300 -0.9571
    1BTD    C80  732   6.444  10.374   2.104  0.0033  1.2760 -0.4432
    1BTD    C81  733   6.402  10.461   2.221  0.9890 -0.4083  0.3378
    1BTD    C82  734   6.316  10.583   2.174 -1.3924 -0.6972 -0.8706
    2TTP     S1  735   7.180   9.647   2.091  0.2995 -0.0905 -0.2199
    2TTP     S5  736   7.213   9.994   1.839  0.0911  0.1068  0.0235
    2TTP     C1  737   7.374   9.910   1.843  0.2518  0.4206  0.2788
    2TTP     C2  738   7.373   9.798   1.921  0.3257  0.3784  0.2188
    2TTP     C3  739   7.246   9.774   1.981  0.2578  0.0963 -0.0311
    2TTP     C4  740   7.019   9.732   2.088  0.1390 -0.4044 -0.4752
    2TTP    C17  741   7.020   9.844   2.009  0.0650 -0.3621 -0.4152
    2TTP    C18  742   7.147   9.867   1.950  0.1326 -0.0803 -0.1653
    2TTP    C32  743   7.480   9.694   1.932  0.7421 -0.2237 -0.7646
    2TTP    C33  744   7.563   9.690   2.057  1.0184  0.3720 -0.6058
    2TTP    C34  745   7.511   9.753   2.179  0.7416  0.0238 -0.7740
    2TTP    C35  746   7.587   9.871   2.226 -0.2041 -0.5695 -0.1072
    2TTP    C36  747   7.509   9.980   2.295 -0.7032 -0.5271 -0.5157
    2TTP    C37  748   7.540   9.999   2.439 -0.2977 -0.5595  0.7351
    2TTP    C38  749   7.495  10.133   2.508 -0.5239 -0.0651  0.8110
    2TTP    C39  750   7.349  10.175   2.518  0.2955 -0.6064 -0.0246
    2TTP    C40  751   7.257  10.107   2.633  1.4808 -0.0462  1.5021
    2TTP    C41  752   7.288  10.077   2.772 -1.1255  0.1147 -0.5786
    2TTP    C42  753   7.353  10.185   2.856  0.2873 -0.5643  0.2037
    3TTP     S1  754   6.317   9.834   2.319 -0.1267  0.0318  0.2025
    3TTP     S5  755   6.262  10.127   2.009 -0.4455 -0.3018 -0.0569
    3TTP     C1  756   6.116  10.129   2.118 -0.5401 -0.5076 -0.1793
    3TTP     C2  757   6.124  10.039   2.220 -0.4473 -0.4170 -0.1064
    3TTP     C3  758   6.246   9.965   2.216 -0.2979 -0.1814  0.0488
    3TTP     C4  759   6.463   9.832   2.210 -0.0322  0.2379  0.3249
    3TTP    C17  760   6.455   9.923   2.108 -0.1249  0.1470  0.2520
    3TTP    C18  761   6.333   9.997   2.112 -0.2742 -0.0882  0.0969
    3TTP    C32  762   6.029  10.013   2.343 -0.9515  0.1521 -1.1866
    3TTP    C33  763   6.052  10.108   2.466 -0.1052 -0.3595 -0.9603
    3TTP    C34  764   6.005  10.073   2.603  0.5657 -1.3689  0.5687
    3TTP    C35  765   5.904  10.167   2.680  0.5284  1.1435 -0.7769
    3TTP    C36  766   5.751  10.158   2.660  0.2488 -0.9765  1.6716
    3TTP    C37  767   5.689  10.027   2.723 -0.0704 -0.7858  0.9580
    3TTP    C38  768   5.655  10.024   2.869 -0.0595 -1.4224 -0.8532
    3TTP    C39  769   5.588   9.918   2.956 -0.0440  0.5089  1.0056
    3TTP    C40  770   5.641   9.900   3.097 -0.9047 -0.5481  0.7232
    3TTP    C41  771   5.536   9.835   3.188 -0.4085  0.9287  1.0345
    3TTP    C42  772   5.543   9.855   3.333  0.6432 -0.2269 -1.1655
    4FIC     F1  773   7.549  10.476   1.269  0.3433  0.2565  0.6678
    4FIC     F2  774   7.811  10.460   1.343  0.4898 -0.3397  0.0405
    4FIC     O1  775   7.327  10.108   1.598  0.4134  0.2167  0.6709
    4FIC     N5  776   8.028  10.175   1.683  0.7508 -1.2252 -0.8591
    4FIC     N6  777   7.802   9.890   1.926  0.7758 -1.1361 -0.7302
    4FIC    C19  778   7.498   9.962   1.785  0.5784 -0.3671  0.0727
    4FIC    C20  779   7.544  10.055   1.700  0.5550 -0.3335  0.0964
    4FIC    C21  780   7.450  10.126   1.606  0.4691 -0.0260  0.4124
    4FIC    C22  781   7.532  10.220   1.528  0.4644 -0.0713  0.3535
    4FIC    C23  782   7.489  10.308   1.429  0.3972  0.1485  0.5743
    4FIC    C24  783   7.585  10.387   1.368  0.4076  0.0513  0.4622
    4FIC    C25  784   7.719  10.379   1.406  0.4830 -0.2557  0.1390
    4FIC    C26  785   7.763  10.292   1.505  0.5505 -0.4761 -0.0827
    4FIC    C27  786   7.667  10.210   1.568  0.5413 -0.3824  0.0263
    4FIC    C28  787   7.680  10.108   1.675  0.5997 -0.5560 -0.1445
    4FIC    C29  788   7.796  10.071   1.739  0.6803 -0.8636 -0.4648
    4FIC    C30  789   7.923  10.128   1.708  0.7187 -1.0614 -0.6804
    4FIC    C31  790   7.799   9.972   1.841  0.7324 -1.0118 -0.6090
    5FIC     F1  791   5.815  10.607   1.524  0.0160  0.2773  0.2366
    5FIC     F2  792   5.653  10.725   1.708 -0.3791 -0.2277  0.2189
    5FIC     O1  793   6.069  10.241   1.832  0.1864  0.1988  0.0042
    5FIC     N5  794   5.601  10.635   2.192 -0.8256 -1.0099  0.0279
    5FIC     N6  795   5.832  10.325   2.395 -0.6129 -0.9692 -0.1501
    5FIC    C19  796   6.004  10.224   2.117 -0.1304 -0.3116 -0.0951
    5FIC    C20  797   5.947  10.312   2.033 -0.1580 -0.2720 -0.0361
    5FIC    C21  798   5.985  10.314   1.887  0.0124 -0.0041  0.0125
    5FIC    C22  799   5.904  10.420   1.824 -0.0685 -0.0303  0.0712
    5FIC    C23  800   5.905  10.460   1.691  0.0331  0.1657  0.1291
    5FIC    C24  801   5.820  10.563   1.655 -0.0753  0.0933  0.1780
    5FIC    C25  802   5.736  10.624   1.749 -0.2787 -0.1669  0.1687
    5FIC    C26  803   5.735  10.585   1.883 -0.3809 -0.3633  0.1111
    5FIC    C27  804   5.821  10.481   1.921 -0.2739 -0.2944  0.0611
    5FIC    C28  805   5.844  10.416   2.053 -0.3370 -0.4530 -0.0052
    5FIC    C29  806   5.781  10.448   2.171 -0.5252 -0.7172 -0.0327
    5FIC    C30  807   5.682  10.551   2.182 -0.6896 -0.8771  0.0007
    5FIC    C31  808   5.809  10.380   2.294 -0.5723 -0.8543 -0.0970
    1BTD     S2  809   3.272   5.008   9.942 -0.0026 -0.3584  0.0839
    1BTD     N1  810   3.202   5.173   9.952  0.1461 -0.3147  0.4075
    1BTD     N2  811   3.112   4.925   9.942 -0.0805 -0.2118 -0.1752
    1BTD     N3  812   2.661   5.053   9.961  0.0288  0.1662 -0.1192
    1BTD     N4  813   2.771   5.360   9.974  0.3082  0.0395  0.5991
    1BTD     C5  814   2.976   5.267   9.964  0.2273 -0.1281  0.4988
    1BTD     C6  815   3.070   5.158   9.955  0.1308 -0.1990  0.3107
    1BTD     C7  816   3.020   5.019   9.950  0.0038 -0.1414 -0.0153
    1BTD     C8  817   2.878   4.995   9.952 -0.0201 -0.0160 -0.1371
    1BTD    C15  818   2.789   5.105   9.960  0.0774  0.0497  0.0557
    1BTD    C16  819   2.838   5.239   9.966  0.1996 -0.0056  0.3697
    1BTD    C43  820   2.652   5.380   9.890  0.9628 -0.6884  0.0354
    1BTD    C44  821   2.533   5.461   9.937 -2.0892 -1.3282  1.1415
    1BTD    C45  822   2.503   5.466  10.087  1.0030 -0.6881  0.3265
    1BTD    C46  823   2.380   5.549  10.162  0.4326 -0.9665  0.9388
    1BTD    C47  824   2.438   5.460   9.828 -0.5320  0.7642  0.1609
    1BTD    C48  825   2.418   5.577   9.743  0.2326  0.6974  0.1699
    1BTD    C49  826   2.331   5.562   9.623  1.1236  1.0236  0.4561
    1BTD    C50  827   2.272   5.695   9.604 -0.9335 -1.5956  0.9521
    1BTD    C75  828   2.531   5.099  10.027 -1.6215 -1.9552 -0.3243
    1BTD    C76  829   2.498   5.131  10.169  0.8703  0.9251  0.2219
    1BTD    C77  830   2.553   5.045  10.288 -1.0206 -0.2716 -0.2750
    1BTD    C78  831   2.699   5.037  10.290  1.4087  2.1386 -1.3105
    1BTD    C79  832   2.338   5.145  10.179 -0.7905  1.0630 -0.7755
    1BTD    C80  833   2.279   5.163  10.318  0.1426 -0.1999  1.2730
    1BTD    C81  834   2.138   5.117  10.330 -0.9652 -0.0811 -0.0214
    1BTD    C82  835   2.109   4.999  10.425 -0.5628  0.5450 -0.7652
    2TTP     S1  836   3.121   5.536  10.003 -0.0993  0.1848  0.0220
    2TTP     S5  837   2.745   5.701  10.132 -0.1206 -0.2519  0.5262
    2TTP     C1  838   2.877   5.822  10.166 -0.2323 -0.0437  0.2261
    2TTP     C2  839   3.001   5.778  10.128 -0.2322  0.1035  0.0525
    2TTP     C3  840   2.996   5.647  10.071 -0.1441  0.0569  0.1507
    2TTP     C4  841   2.989   5.415   9.969  0.0124 -0.0234  0.3223
    2TTP    C17  842   2.866   5.459  10.007  0.0123 -0.1706  0.4957
    2TTP    C18  843   2.870   5.590  10.064 -0.0759 -0.1242  0.3979
    2TTP    C32  844   3.133   5.845  10.182  0.0672 -1.2766  0.3314
    2TTP    C33  845   3.226   5.734  10.218  0.3725 -0.1537 -1.2303
    2TTP    C34  846   3.370   5.754  10.155  1.3682  0.6780 -0.4117
    2TTP    C35  847   3.432   5.890  10.187  0.6689  0.9109 -1.1356
    2TTP    C36  848   3.566   5.927  10.123  1.0070  0.7698 -1.0713
    2TTP    C37  849   3.586   6.072  10.120 -1.2014 -1.7872  0.0666
    2TTP    C38  850   3.716   6.118  10.042  0.2725 -0.0520 -1.3988
    2TTP    C39  851   3.853   6.065  10.071  2.1032 -0.2122  0.3322
    2TTP    C40  852   3.912   6.136  10.208  1.3482 -0.6375  1.0981
    2TTP    C41  853   4.055   6.099  10.226  0.4084 -0.4564 -0.1477
    2TTP    C42  854   4.098   6.022  10.343  0.7830 -0.2465  0.2454
    3TTP     S1  855   2.833   4.705   9.870 -0.1084 -0.3959  0.3505
    3TTP     S5  856   2.409   4.775   9.888 -0.1217 -0.3510 -0.1109
    3TTP     C1  857   2.438   4.607   9.824 -0.0726 -0.4036  0.0498
    3TTP     C2  858   2.570   4.576   9.815 -0.0657 -0.4206  0.2019
    3TTP     C3  859   2.654   4.683   9.858 -0.0988 -0.3927  0.1967
    3TTP     C4  860   2.805   4.874   9.933 -0.1574 -0.3432  0.1898
    3TTP    C17  861   2.672   4.905   9.942 -0.1644 -0.3265  0.0379
    3TTP    C18  862   2.588   4.798   9.900 -0.1312 -0.3544  0.0424
    3TTP    C32  863   2.612   4.437   9.754  0.4938 -0.8845 -0.4855
    3TTP    C33  864   2.742   4.370   9.786 -1.3446 -0.8095 -0.2173
    3TTP    C34  865   2.730   4.217   9.777  0.3159  0.6439  0.1476
    3TTP    C35  866   2.735   4.147   9.637  0.3641  0.5337  0.3609
    3TTP    C36  867   2.619   4.049   9.624  1.0006  1.0029 -0.1816
    3TTP    C37  868   2.629   3.979   9.488 -1.6778 -0.4055  0.1955
    3TTP    C38  869   2.597   4.038   9.357 -0.7638 -0.1959 -0.0270
    3TTP    C39  870   2.650   4.003   9.222  0.7459 -0.1494  1.1879
    3TTP    C40  871   2.699   3.865   9.199 -0.1250  0.1625  0.0767
    3TTP    C41  872   2.750   3.833   9.063  0.2296  1.9730  0.8783
    3TTP    C42  873   2.632   3.804   8.960  0.6456  0.5705 -0.8836
    4FIC     F1  874   2.238   6.291  10.403 -0.0182 -0.2332  1.1017
    4FIC     F2  875   2.397   6.510  10.378 -0.5237 -0.0312 -0.6218
    4FIC     O1  876   2.586   5.896  10.276  0.1569 -0.1692  1.3800
    4FIC     N5  877   2.875   6.544  10.252 -1.1258  0.3047 -2.9006
    4FIC     N6  878   3.114   6.191  10.158 -0.8872  0.3142 -2.3355
    4FIC    C19  879   2.862   5.965  10.207 -0.2640  0.0467 -0.1675
    4FIC    C20  880   2.768   6.056  10.240 -0.2882  0.0228 -0.1702
    4FIC    C21  881   2.628   6.013  10.274 -0.0629 -0.0901  0.6516
    4FIC    C22  882   2.553   6.136  10.305 -0.1553 -0.0882  0.4199
    4FIC    C23  883   2.419   6.146  10.342 -0.0156 -0.1736  0.9665
    4FIC    C24  884   2.369   6.273  10.366 -0.1445 -0.1522  0.5980
    4FIC    C25  885   2.452   6.386  10.353 -0.4051 -0.0482 -0.2897
    4FIC    C26  886   2.585   6.376  10.316 -0.5456  0.0376 -0.8392
    4FIC    C27  887   2.637   6.248  10.292 -0.4183  0.0174 -0.4778
    4FIC    C28  888   2.773   6.204  10.251 -0.5104  0.0896 -0.8759
    4FIC    C29  889   2.882   6.284  10.228 -0.7548  0.1980 -1.7343
    4FIC    C30  890   2.878   6.427  10.241 -0.9580  0.2562 -2.3723
    4FIC    C31  891   3.009   6.232  10.190 -0.8262  0.2614 -2.0602
    5FIC     F1  892   1.649   4.672   9.632  0.0202  0.0895  0.6602
    5FIC     F2  893   1.630   4.402   9.651  0.2090 -0.0253 -0.6120
    5FIC     O1  894   2.175   4.746   9.737 -0.0829 -0.0057  1.2536
    5FIC     N5  895   1.978   4.065   9.753  0.4070 -0.2575 -2.0185
    5FIC     N6  896   2.393   4.177   9.831  0.2884 -0.3086 -1.2982
    5FIC    C19  897   2.344   4.514   9.792  0.0609 -0.1490  0.2490
    5FIC    C20  898   2.212   4.506   9.765  0.0795 -0.1206  0.1495
    5FIC    C21  899   2.132   4.630   9.738  0.0018 -0.0466  0.6905
    5FIC    C22  900   1.993   4.585   9.712  0.0460 -0.0324  0.4182
    5FIC    C23  901   1.883   4.665   9.682  0.0023  0.0290  0.7353
    5FIC    C24  902   1.762   4.600   9.662  0.0588  0.0300  0.3768
    5FIC    C25  903   1.752   4.461   9.672  0.1561 -0.0289 -0.2789
    5FIC    C26  904   1.862   4.381   9.702  0.2003 -0.0905 -0.5984
    5FIC    C27  905   1.986   4.444   9.723  0.1441 -0.0926 -0.2432
    5FIC    C28  906   2.120   4.390   9.755  0.1686 -0.1490 -0.4344
    5FIC    C29  907   2.152   4.257   9.773  0.2568 -0.2151 -1.0376
    5FIC    C30  908   2.056   4.152   9.762  0.3391 -0.2381 -1.5748
    5FIC    C31  909   2.284   4.214   9.805  0.2737 -0.2662 -1.1775
    1BTD     S2  910  10.382   4.215   8.887  0.2076  0.1881 -0.1219
    1BTD     N1  911  10.436   4.224   8.716  0.3638  0.4055 -0.0613
    1BTD     N2  912  10.238   4.319   8.863  0.1097  0.0433 -0.1676
    1BTD     N3  913  10.041   4.549   8.505  0.1934  0.1409 -0.1516
    1BTD     N4  914  10.285   4.433   8.323  0.5066  0.5873 -0.0203
    1BTD     C5  915  10.354   4.335   8.513  0.4346  0.4951 -0.0415
    1BTD     C6  916  10.348   4.301   8.653  0.3366  0.3612 -0.0772
    1BTD     C7  917  10.237   4.354   8.735  0.1945  0.1583 -0.1373
    1BTD     C8  918  10.138   4.438   8.674  0.1571  0.0997 -0.1578
    1BTD    C15  919  10.148   4.468   8.537  0.2566  0.2355 -0.1209
    1BTD    C16  920  10.255   4.417   8.457  0.3937  0.4309 -0.0634
    1BTD    C43  921  10.242   4.519   8.220  0.9111 -1.6706 -0.0155
    1BTD    C44  922  10.336   4.628   8.186  0.0468 -0.2021 -0.8357
    1BTD    C45  923  10.325   4.754   8.279  0.2913 -0.3949  0.5975
    1BTD    C46  924  10.389   4.731   8.415 -0.5110 -0.3891 -0.2029
    1BTD    C47  925  10.332   4.691   8.047  0.0798 -1.1728  0.6729
    1BTD    C48  926  10.322   4.621   7.908  0.2860 -1.5297  1.3958
    1BTD    C49  927  10.207   4.534   7.859  1.0477 -0.6752 -0.9653
    1BTD    C50  928  10.082   4.607   7.784 -0.3674 -0.5911 -0.3454
    1BTD    C75  929   9.970   4.563   8.368 -0.5976  0.2132  1.1866
    1BTD    C76  930   9.845   4.478   8.345 -0.9939  0.5693  0.6128
    1BTD    C77  931   9.776   4.508   8.202  0.6069  0.0490 -1.4648
    1BTD    C78  932   9.873   4.498   8.084 -1.1013 -0.6855  0.1585
    1BTD    C79  933   9.863   4.323   8.385  0.7373  0.0768 -1.0420
    1BTD    C80  934   9.733   4.234   8.361  0.3276 -0.5341  1.0090
    1BTD    C81  935   9.603   4.270   8.435 -1.7523  1.3726 -0.2106
    1BTD    C82  936   9.644   4.279   8.579  0.0773  0.5194 -1.9359
    2TTP     S1  937  10.574   4.172   8.385  0.0796 -0.3956  0.1073
    2TTP     S5  938  10.428   4.293   8.000  0.4659  0.4066  0.2096
    2TTP     C1  939  10.564   4.175   7.975  0.5942  0.5773  0.0973
    2TTP     C2  940  10.617   4.131   8.093  0.4826  0.3395  0.0591
    2TTP     C3  941  10.552   4.188   8.207  0.2913  0.0139  0.1173
    2TTP     C4  942  10.438   4.289   8.410 -0.0484 -0.5661  0.2196
    2TTP    C17  943  10.385   4.334   8.292  0.0630 -0.3286  0.2576
    2TTP    C18  944  10.450   4.276   8.178  0.2539 -0.0031  0.1998
    2TTP    C32  945  10.751   4.041   8.101  0.2001 -0.1072 -1.4788
    2TTP    C33  946  10.870   4.129   8.096 -0.9370  1.0053 -0.2536
    2TTP    C34  947  10.988   4.061   8.172 -1.0332 -1.0933 -0.4602
    2TTP    C35  948  11.098   4.144   8.227  0.1594  0.4429  1.2303
    2TTP    C36  949  11.202   4.052   8.297 -0.7261  0.5262 -0.0843
    2TTP    C37  950  11.333   4.124   8.323 -0.4250  0.3966  0.8147
    2TTP    C38  951  11.440   4.040   8.398  0.3392 -0.0856 -0.7945
    2TTP    C39  952  11.575   4.026   8.358 -1.0071 -0.1831 -0.1060
    2TTP    C40  953  11.680   3.947   8.435  0.6618 -0.7236 -1.4113
    2TTP    C41  954  11.752   4.010   8.563 -0.1277  1.5452  1.9129
    2TTP    C42  955  11.812   3.905   8.648 -0.6068  0.9620 -0.0693
    3TTP     S1  956   9.938   4.500   8.874 -0.0118  0.1956  0.5318
    3TTP     S5  957   9.712   4.733   8.592 -0.4230 -1.0390 -0.1714
    3TTP     C1  958   9.613   4.713   8.743 -0.3121 -0.6032 -0.0399
    3TTP     C2  959   9.677   4.640   8.839 -0.1783 -0.1965  0.1850
    3TTP     C3  960   9.806   4.597   8.797 -0.1590 -0.2140  0.2615
    3TTP     C4  961  10.037   4.520   8.722 -0.1233 -0.2402  0.4001
    3TTP    C17  962   9.973   4.593   8.626 -0.2567 -0.6470  0.1752
    3TTP    C18  963   9.843   4.636   8.669 -0.2761 -0.6294  0.0989
    3TTP    C32  964   9.612   4.588   8.963  0.9636  0.6290  0.1698
    3TTP    C33  965   9.680   4.642   9.084 -0.6512 -1.9039 -0.2119
    3TTP    C34  966   9.747   4.542   9.178 -1.5026 -0.1238 -1.2993
    3TTP    C35  967   9.646   4.462   9.245  0.6592 -0.2347  1.0433
    3TTP    C36  968   9.709   4.374   9.345 -0.3106 -0.5291  0.1723
    3TTP    C37  969   9.583   4.316   9.395  0.4546  0.1089  0.0321
    3TTP    C38  970   9.566   4.194   9.488  0.1874  0.7436  1.3420
    3TTP    C39  971   9.445   4.162   9.552  0.1167 -0.0777 -0.1147
    3TTP    C40  972   9.433   4.231   9.700  0.2714  0.3130  0.8554
    3TTP    C41  973   9.446   4.379   9.729  0.2235  0.3030 -0.6285
    3TTP    C42  974   9.429   4.409   9.873  0.1461 -0.6373 -0.1835
    4FIC     F1  975  10.277   4.233   7.201 -0.0889  0.1839 -0.4885
    4FIC     F2  976  10.467   4.055   7.121 -0.2785 -0.0067 -0.5208
    4FIC     O1  977  10.381   4.265   7.731  0.1006  0.1611 -0.5240
    4FIC     N5  978  10.816   3.824   7.385 -0.4170 -0.2969 -0.5919
    4FIC     N6  979  10.860   3.885   7.816 -0.2303 -0.2763 -0.6135
    4FIC    C19  980  10.601   4.108   7.844 -0.0135 -0.0290 -0.5674
    4FIC    C20  981  10.567   4.106   7.713 -0.0539 -0.0159 -0.5572
    4FIC    C21  982  10.453   4.190   7.663  0.0100  0.0843 -0.5349
    4FIC    C22  983  10.443   4.165   7.518 -0.0572  0.0724 -0.5287
    4FIC    C23  984  10.353   4.221   7.428 -0.0319  0.1448 -0.5094
    4FIC    C24  985  10.363   4.182   7.295 -0.1083  0.1161 -0.5074
    4FIC    C25  986  10.462   4.091   7.255 -0.2060  0.0179 -0.5238
    4FIC    C26  987  10.552   4.035   7.344 -0.2315 -0.0547 -0.5429
    4FIC    C27  988  10.543   4.073   7.479 -0.1554 -0.0269 -0.5456
    4FIC    C28  989  10.623   4.033   7.597 -0.1574 -0.0852 -0.5637
    4FIC    C29  990  10.729   3.945   7.599 -0.2389 -0.1844 -0.5829
    4FIC    C30  991  10.777   3.879   7.481 -0.3366 -0.2459 -0.5881
    4FIC    C31  992  10.800   3.913   7.718 -0.2341 -0.2344 -0.5997
    5FIC     F1  993   9.151   5.243   8.309 -0.2391  0.1280  0.0119
    5FIC     F2  994   8.946   5.196   8.482 -0.2754 -0.3557 -0.1581
    5FIC     O1  995   9.543   4.941   8.529 -0.0148  0.2301 -0.2449
    5FIC     N5  996   8.931   4.913   8.888 -0.1678 -0.9780 -0.5853
    5FIC     N6  997   9.279   4.687   9.025  0.0148 -0.8007 -0.7517
    5FIC    C19  998   9.487   4.789   8.773  0.0305 -0.1957 -0.4984
    5FIC    C20  999   9.396   4.867   8.710 -0.0248 -0.2024 -0.4270
    5FIC    C21 1000   9.432   4.942   8.586 -0.0446  0.0242 -0.2975
    5FIC    C22 1001   9.312   5.016   8.544 -0.1063 -0.0471 -0.2465
    5FIC    C23 1002   9.297   5.100   8.434 -0.1435  0.1009 -0.1295
    5FIC    C24 1003   9.173   5.159   8.416 -0.2003 -0.0078 -0.1024
    5FIC    C25 1004   9.068   5.135   8.505 -0.2184 -0.2570 -0.1900
    5FIC    C26 1005   9.082   5.051   8.615 -0.1819 -0.4057 -0.3071
    5FIC    C27 1006   9.207   4.990   8.636 -0.1245 -0.2991 -0.3366
    5FIC    C28 1007   9.254   4.898   8.741 -0.0751 -0.4044 -0.4506
    5FIC    C29 1008   9.181   4.850   8.847 -0.0758 -0.6434 -0.5579
    5FIC    C30 1009   9.044   4.885   8.869 -0.1264 -0.8264 -0.5729
    5FIC    C31 1010   9.235   4.760   8.944 -0.0260 -0.7284 -0.6638
    1BTD     S2 1011  10.022   0.931   6.384  0.0858  0.1697  0.1503
    1BTD     N1 1012  10.004   0.947   6.562 -0.3834 -0.3911  0.1587
    1BTD     N2 1013  10.137   0.793   6.394  0.6275  0.6012  0.0209
    1BTD     N3 1014  10.336   0.540   6.735  0.8848  0.4681 -0.2272
    1BTD     N4 1015  10.173   0.730   6.943 -0.3610 -0.7547 -0.0576
    1BTD     C5 1016  10.094   0.832   6.758 -0.3567 -0.5662  0.0437
    1BTD     C6 1017  10.080   0.853   6.617 -0.1254 -0.2358  0.0693
    1BTD     C7 1018  10.154   0.767   6.523  0.4406  0.3196 -0.0077
    1BTD     C8 1019  10.239   0.663   6.575  0.7470  0.5170 -0.1066
    1BTD    C15 1020  10.250   0.645   6.714  0.5032  0.1791 -0.1283
    1BTD    C16 1021  10.178   0.729   6.805 -0.0417 -0.3560 -0.0539
    1BTD    C43 1022  10.279   0.730   7.043  0.0094  0.4928  1.0556
    1BTD    C44 1023  10.405   0.811   7.062 -0.5438  0.1863 -0.2815
    1BTD    C45 1024  10.369   0.964   7.081 -0.3152 -0.5638  0.0993
    1BTD    C46 1025  10.385   1.058   6.951 -0.2225 -0.0373 -0.5365
    1BTD    C47 1026  10.536   0.757   6.980  0.4184 -0.6535 -0.5456
    1BTD    C48 1027  10.646   0.782   7.103  0.8733  1.8381  0.3108
    1BTD    C49 1028  10.745   0.900   7.088  0.0026 -0.3817 -0.0917
    1BTD    C50 1029  10.877   0.835   7.060  0.2846  0.3389 -0.4518
    1BTD    C75 1030  10.366   0.434   6.831 -0.5401  0.4416  0.3989
    1BTD    C76 1031  10.260   0.322   6.838  0.2362 -1.1628 -0.3160
    1BTD    C77 1032  10.279   0.181   6.898 -0.0449 -0.6689 -0.5327
    1BTD    C78 1033  10.343   0.063   6.811  0.0898 -1.2816  0.9296
    1BTD    C79 1034  10.136   0.381   6.902  0.0282 -0.1070 -0.0288
    1BTD    C80 1035   9.991   0.327   6.909 -0.4216 -1.5272  0.2741
    1BTD    C81 1036   9.906   0.430   6.986  0.5791 -0.7547 -1.8240
    1BTD    C82 1037   9.768   0.372   7.042 -1.4056 -0.6500 -0.6161
    2TTP     S1 1038   9.868   0.977   6.895  0.4228  0.7648  0.1080
    2TTP     S5 1039   9.962   0.755   7.251 -0.5107 -0.7472 -0.5679
    2TTP     C1 1040   9.804   0.840   7.276  0.0631  0.2239 -0.1437
    2TTP     C2 1041   9.765   0.914   7.167  0.3846  0.7481  0.0899
    2TTP     C3 1042   9.860   0.905   7.060  0.1903  0.4016 -0.0575
    2TTP     C4 1043  10.027   0.891   6.869 -0.1509 -0.2063 -0.3160
    2TTP    C17 1044  10.065   0.817   6.978 -0.4728 -0.7304 -0.5500
    2TTP    C18 1045   9.971   0.826   7.085 -0.2780 -0.3840 -0.4025
    2TTP    C32 1046   9.635   0.994   7.163  0.2720 -0.1810 -0.0090
    2TTP    C33 1047   9.632   1.120   7.245 -0.0796 -1.0622  0.4926
    2TTP    C34 1048   9.543   1.232   7.180  0.6128  0.8012 -0.0841
    2TTP    C35 1049   9.387   1.195   7.173 -0.2352 -0.2301  1.1438
    2TTP    C36 1050   9.294   1.319   7.149  0.0189 -1.9648 -0.3285
    2TTP    C37 1051   9.250   1.374   7.284  0.5643 -1.4378  0.1265
    2TTP    C38 1052   9.236   1.532   7.258  0.4413 -0.5601  0.7637
    2TTP    C39 1053   9.159   1.600   7.360  1.1528 -0.1998 -2.1745
    2TTP    C40 1054   9.213   1.730   7.392 -0.1258 -0.0043  0.5317
    2TTP    C41 1055   9.180   1.752   7.550 -0.8646 -0.3947  0.7370
    2TTP    C42 1056   9.275   1.865   7.610  0.4358 -0.5984 -0.4163
    3TTP     S1 1057  10.392   0.575   6.359 -0.1674 -0.2832 -0.1914
    3TTP     S5 1058  10.674   0.390   6.626  0.2642  0.5530 -0.0604
    3TTP     C1 1059  10.750   0.403   6.461  0.0871  0.2560 -0.1676
    3TTP     C2 1060  10.668   0.461   6.369 -0.0567 -0.0197 -0.2142
    3TTP     C3 1061  10.541   0.497   6.425 -0.0322 -0.0064 -0.1673
    3TTP     C4 1062  10.316   0.562   6.523  0.0098  0.0137 -0.0844
    3TTP    C17 1063  10.398   0.504   6.616  0.1532  0.2894 -0.0376
    3TTP    C18 1064  10.525   0.468   6.560  0.1290  0.2761 -0.0848
    3TTP    C32 1065  10.713   0.518   6.226 -0.8238  0.0939  0.4239
    3TTP    C33 1066  10.637   0.636   6.169 -0.8762  2.0890 -0.1000
    3TTP    C34 1067  10.626   0.766   6.240  0.0406  0.8300 -0.9458
    3TTP    C35 1068  10.597   0.896   6.169  0.4099  1.1434  0.4418
    3TTP    C36 1069  10.717   0.939   6.096  0.0845 -0.3312 -1.7336
    3TTP    C37 1070  10.707   1.083   6.051 -1.6522  0.4273 -1.3952
    3TTP    C38 1071  10.832   1.178   6.020 -0.0718  0.0290  0.2177
    3TTP    C39 1072  10.816   1.326   6.005  0.0043 -0.7529 -0.2487
    3TTP    C40 1073  10.945   1.416   6.026  1.7053  1.5784 -0.3669
    3TTP    C41 1074  10.942   1.549   6.089 -1.7377  1.4015 -1.4086
    3TTP    C42 1075  10.932   1.537   6.246  0.6383  0.4180  0.2811
    4FIC     F1 1076   9.700   0.208   7.779 -0.0961 -0.3122 -0.4274
    4FIC     F2 1077   9.535   0.362   7.932  0.1631 -0.3169 -0.1425
    4FIC     O1 1078   9.822   0.553   7.380 -0.1595 -0.0457 -0.2172
    4FIC     N5 1079   9.387   0.830   7.867  0.4902 -0.1339  0.4171
    4FIC     N6 1080   9.516   1.068   7.525  0.3881  0.0753  0.5237
    4FIC    C19 1081   9.709   0.823   7.384  0.0654  0.0444  0.1296
    4FIC    C20 1082   9.684   0.730   7.479  0.0710 -0.0225  0.0657
    4FIC    C21 1083   9.746   0.593   7.470 -0.0486 -0.0655 -0.1140
    4FIC    C22 1084   9.699   0.518   7.587 -0.0083 -0.1351 -0.1422
    4FIC    C23 1085   9.730   0.387   7.622 -0.0856 -0.1927 -0.2896
    4FIC    C24 1086   9.673   0.337   7.739 -0.0254 -0.2532 -0.2859
    4FIC    C25 1087   9.589   0.417   7.817  0.1079 -0.2555 -0.1390
    4FIC    C26 1088   9.558   0.548   7.783  0.1857 -0.1982  0.0085
    4FIC    C27 1089   9.614   0.600   7.666  0.1266 -0.1365  0.0074
    4FIC    C28 1090   9.602   0.733   7.602  0.1805 -0.0674  0.1409
    4FIC    C29 1091   9.528   0.839   7.648  0.3083 -0.0487  0.3030
    4FIC    C30 1092   9.450   0.834   7.769  0.4077 -0.0956  0.3651
    4FIC    C31 1093   9.521   0.965   7.580  0.3514  0.0194  0.4237
    5FIC     F1 1094  11.395   0.084   6.862 -0.1194  0.0610 -0.3121
    5FIC     F2 1095  11.557   0.213   6.685 -0.0980  0.2760 -0.1346
    5FIC     O1 1096  10.906   0.212   6.667 -0.0956  0.3028 -0.2137
    5FIC     N5 1097  11.441   0.491   6.293 -0.0496  0.7576  0.1909
    5FIC     N6 1098  11.026   0.566   6.176 -0.0353  0.9031  0.2316
    5FIC    C19 1099  10.887   0.382   6.429 -0.0662  0.5942 -0.0095
    5FIC    C20 1100  11.004   0.344   6.485 -0.0732  0.5249 -0.0411
    5FIC    C21 1101  11.006   0.257   6.607 -0.0882  0.3752 -0.1473
    5FIC    C22 1102  11.147   0.236   6.642 -0.0925  0.3323 -0.1563
    5FIC    C23 1103  11.199   0.161   6.747 -0.1059  0.2026 -0.2409
    5FIC    C24 1104  11.337   0.155   6.760 -0.1072  0.1866 -0.2314
    5FIC    C25 1105  11.420   0.222   6.669 -0.0958  0.2976 -0.1398
    5FIC    C26 1106  11.369   0.297   6.563 -0.0830  0.4273 -0.0552
    5FIC    C27 1107  11.230   0.304   6.549 -0.0813  0.4455 -0.0634
    5FIC    C28 1108  11.145   0.373   6.449 -0.0689  0.5682  0.0112
    5FIC    C29 1109  11.189   0.450   6.343 -0.0560  0.6973  0.1097
    5FIC    C30 1110  11.327   0.472   6.316 -0.0525  0.7299  0.1538
    5FIC    C31 1111  11.099   0.513   6.252 -0.0446  0.8098  0.1762
    1BTD     S2 1112   8.020   2.998  10.335 -0.3457 -0.0889 -0.1527
    1BTD     N1 1113   8.030   3.171  10.285 -0.2570 -0.0387  0.0381
    1BTD     N2 1114   8.198   2.976  10.345 -0.3586 -0.1717 -0.1051
    1BTD     N3 1115   8.579   3.242  10.278 -0.2246 -0.2497  0.3359
    1BTD     N4 1116   8.372   3.482  10.203 -0.0992 -0.0861  0.5126
    1BTD     C5 1117   8.211   3.330  10.243 -0.1760 -0.0654  0.2835
    1BTD     C6 1118   8.159   3.201  10.279 -0.2422 -0.0839  0.1228
    1BTD     C7 1119   8.253   3.092  10.313 -0.2992 -0.1583  0.0427
    1BTD     C8 1120   8.395   3.118  10.309 -0.2871 -0.2105  0.1271
    1BTD    C15 1121   8.441   3.246  10.273 -0.2215 -0.1899  0.2844
    1BTD    C16 1122   8.351   3.351  10.241 -0.1666 -0.1182  0.3615
    1BTD    C43 1123   8.481   3.572  10.258  0.0119  0.6930 -1.2798
    1BTD    C44 1124   8.479   3.731  10.271 -1.0455 -0.3659 -0.9415
    1BTD    C45 1125   8.386   3.787  10.397 -1.0029  0.1724  0.4967
    1BTD    C46 1126   8.436   3.752  10.536  0.1594 -0.5645 -0.5429
    1BTD    C47 1127   8.628   3.775  10.271 -0.2732  0.6789  0.4993
    1BTD    C48 1128   8.688   3.774  10.121  0.6088  0.1688 -0.5611
    1BTD    C49 1129   8.844   3.779  10.110 -0.5303  0.4796  0.0369
    1BTD    C50 1130   8.902   3.920  10.105  0.1817 -1.2914  0.5071
    1BTD    C75 1131   8.673   3.329  10.213 -1.1933  0.0303  0.3883
    1BTD    C76 1132   8.828   3.373  10.248  0.0843  0.2784  0.3320
    1BTD    C77 1133   8.931   3.370  10.147 -0.3778  0.1267  0.4404
    1BTD    C78 1134   8.981   3.244  10.077  0.6126  0.1313  0.1204
    1BTD    C79 1135   8.847   3.469  10.381 -0.6045  0.3729  0.9605
    1BTD    C80 1136   8.789   3.404  10.505  0.4123  0.4844  0.6503
    1BTD    C81 1137   8.788   3.491  10.621  0.3254 -0.0505 -0.1994
    1BTD    C82 1138   8.797   3.433  10.763  1.2716  0.0784 -0.2514
    2TTP     S1 1139   7.981   3.523  10.203 -0.1129  0.5239  0.4667
    2TTP     S5 1140   8.258   3.816  10.054 -0.0417  0.1031 -0.2387
    2TTP     C1 1141   8.090   3.884  10.042  0.0373  0.3972  0.2823
    2TTP     C2 1142   7.995   3.797  10.087  0.0199  0.5444  0.5310
    2TTP     C3 1143   8.051   3.674  10.133 -0.0560  0.4305  0.3188
    2TTP     C4 1144   8.149   3.454  10.214 -0.1919  0.2298 -0.0541
    2TTP    C17 1145   8.245   3.541  10.169 -0.1744  0.0825 -0.3029
    2TTP    C18 1146   8.189   3.664  10.123 -0.0982  0.1966 -0.0906
    2TTP    C32 1147   7.845   3.828  10.085  0.2146  0.2410 -0.7617
    2TTP    C33 1148   7.749   3.705  10.058  1.3178  0.5300  0.6520
    2TTP    C34 1149   7.606   3.698  10.089  0.3004 -0.9367 -1.6859
    2TTP    C35 1150   7.518   3.594  10.020  0.2777  1.1385  0.6437
    2TTP    C36 1151   7.362   3.605  10.018 -0.7345 -0.4432  0.6913
    2TTP    C37 1152   7.306   3.662  10.150  1.6988  0.4270 -0.1948
    2TTP    C38 1153   7.211   3.577  10.236  0.3371  0.6881  0.2784
    2TTP    C39 1154   7.228   3.650  10.362 -0.2127 -0.2237 -0.3551
    2TTP    C40 1155   7.212   3.551  10.477  0.7864 -0.2829  0.1118
    2TTP    C41 1156   7.068   3.568  10.534  0.7021  0.1378 -0.1947
    2TTP    C42 1157   7.031   3.645  10.655 -0.1328  0.6962  0.7448
    3TTP     S1 1158   8.528   2.865  10.389 -0.1141 -0.3630 -0.4574
    3TTP     S5 1159   8.900   3.081  10.398 -0.0992 -0.4005 -0.1528
    3TTP     C1 1160   8.931   2.910  10.454 -0.1217 -0.4650 -0.3376
    3TTP     C2 1161   8.818   2.833  10.454 -0.1278 -0.4573 -0.4430
    3TTP     C3 1162   8.703   2.907  10.411 -0.1149 -0.3999 -0.3808
    3TTP     C4 1163   8.498   3.036  10.334 -0.0913 -0.2984 -0.2725
    3TTP    C17 1164   8.611   3.112  10.334 -0.0855 -0.3062 -0.1671
    3TTP    C18 1165   8.726   3.039  10.377 -0.0989 -0.3633 -0.2291
    3TTP    C32 1166   8.802   2.692  10.503  0.2555  0.5841 -0.9021
    3TTP    C33 1167   8.826   2.549  10.456 -0.4702  0.2073  0.5580
    3TTP    C34 1168   8.734   2.503  10.344 -1.2931 -0.9735  0.3011
    3TTP    C35 1169   8.603   2.440  10.394 -1.7771  1.6340 -0.1283
    3TTP    C36 1170   8.637   2.302  10.460 -0.3698 -0.4059  0.4524
    3TTP    C37 1171   8.646   2.171  10.366  1.1217 -1.0252  0.4048
    3TTP    C38 1172   8.752   2.065  10.401  1.6012  0.0257  0.0530
    3TTP    C39 1173   8.756   1.958  10.287 -0.0458 -0.3475  0.7729
    3TTP    C40 1174   8.785   1.838  10.365  1.2883 -0.1918 -0.0849
    3TTP    C41 1175   8.796   1.717  10.274 -0.4520  1.2214 -0.5954
    3TTP    C42 1176   8.702   1.605  10.259 -0.8295  0.6396 -1.4667
    4FIC     F1 1177   8.556   4.540   9.876  0.2196 -0.2543  0.1392
    4FIC     F2 1178   8.330   4.675   9.806  0.3433 -0.0329  0.1636
    4FIC     O1 1179   8.349   4.057  10.005 -0.2112 -0.1283 -0.0725
    4FIC     N5 1180   7.859   4.525   9.798  0.2147  0.3748  0.0477
    4FIC     N6 1181   7.743   4.120   9.913 -0.1469  0.4287 -0.1228
    4FIC    C19 1182   8.061   4.014   9.985 -0.2460  0.1277 -0.1245
    4FIC    C20 1183   8.121   4.131   9.955 -0.1423  0.0874 -0.0722
    4FIC    C21 1184   8.270   4.145   9.968 -0.1314 -0.0458 -0.0482
    4FIC    C22 1185   8.303   4.283   9.928 -0.0083 -0.0579  0.0088
    4FIC    C23 1186   8.429   4.343   9.924  0.0439 -0.1640  0.0474
    4FIC    C24 1187   8.435   4.475   9.882  0.1623 -0.1529  0.0990
    4FIC    C25 1188   8.318   4.544   9.846  0.2263 -0.0388  0.1115
    4FIC    C26 1189   8.193   4.485   9.850  0.1748  0.0674  0.0732
    4FIC    C27 1190   8.185   4.351   9.892  0.0548  0.0581  0.0207
    4FIC    C28 1191   8.068   4.261   9.907 -0.0250  0.1519 -0.0286
    4FIC    C29 1192   7.937   4.291   9.882  0.0039  0.2749 -0.0331
    4FIC    C30 1193   7.894   4.420   9.836  0.1198  0.3294  0.0112
    4FIC    C31 1194   7.831   4.197   9.899 -0.0792  0.3587 -0.0823
    5FIC     F1 1195   9.688   3.081  10.221  0.3932 -0.7121 -0.1683
    5FIC     F2 1196   9.776   2.858  10.351  0.0770 -0.4759  0.4611
    5FIC     O1 1197   9.157   3.057  10.327  0.2637 -0.0132 -0.6504
    5FIC     N5 1198   9.524   2.522  10.612 -0.4699  0.3620  1.0216
    5FIC     N6 1199   9.092   2.548  10.669 -0.5076  0.8605  0.5183
    5FIC    C19 1200   9.053   2.837  10.488 -0.0842  0.4607 -0.2204
    5FIC    C20 1201   9.183   2.851  10.456 -0.0393  0.2757 -0.1237
    5FIC    C21 1202   9.229   2.967  10.373  0.1419  0.0374 -0.3588
    5FIC    C22 1203   9.375   2.953  10.358  0.1469 -0.1223 -0.1755
    5FIC    C23 1204   9.462   3.036  10.288  0.2873 -0.3611 -0.2906
    5FIC    C24 1205   9.596   3.002  10.288  0.2598 -0.4757 -0.0709
    5FIC    C25 1206   9.641   2.887  10.355  0.0967 -0.3537  0.2532
    5FIC    C26 1207   9.555   2.803  10.424 -0.0441 -0.1152  0.3695
    5FIC    C27 1208   9.419   2.837  10.426 -0.0188  0.0038  0.1507
    5FIC    C28 1209   9.302   2.770  10.489 -0.1397  0.2532  0.1955
    5FIC    C29 1210   9.305   2.654  10.564 -0.3119  0.4294  0.4787
    5FIC    C30 1211   9.426   2.582  10.590 -0.3979  0.3917  0.7765
    5FIC    C31 1212   9.188   2.597  10.621 -0.4184  0.6655  0.4988
    1BTD     S2 1213   6.902   2.437   3.718  0.1942  0.1394 -0.3444
    1BTD     N1 1214   6.938   2.610   3.684 -0.3654  0.3206 -0.0528
    1BTD     N2 1215   6.822   2.408   3.559  0.5915  0.0512 -0.5310
    1BTD     N3 1216   6.726   2.661   3.175  0.3915  0.1984 -0.3842
    1BTD     N4 1217   6.870   2.909   3.329 -0.7877  0.5304  0.2049
    1BTD     C5 1218   6.901   2.763   3.497 -0.5717  0.4261  0.0746
    1BTD     C6 1219   6.892   2.636   3.563 -0.2339  0.3067 -0.1067
    1BTD     C7 1220   6.827   2.523   3.493  0.3018  0.1558 -0.3744
    1BTD     C8 1221   6.773   2.543   3.361  0.4731  0.1320 -0.4473
    1BTD    C15 1222   6.784   2.670   3.300  0.1288  0.2523 -0.2633
    1BTD    C16 1223   6.847   2.778   3.368 -0.3875  0.3976 -0.0054
    1BTD    C43 1224   6.888   2.982   3.201 -0.9627  0.4901  0.7982
    1BTD    C44 1225   7.022   2.964   3.116 -0.2663  0.0208 -0.6342
    1BTD    C45 1226   7.050   3.053   2.998  0.4704 -2.2199  1.0235
    1BTD    C46 1227   7.014   3.200   2.951 -1.1260 -0.1616 -0.7350
    1BTD    C47 1228   7.047   2.812   3.070 -0.5155 -1.4956 -0.3496
    1BTD    C48 1229   7.190   2.782   3.012 -0.1880 -0.1498 -0.4212
    1BTD    C49 1230   7.189   2.734   2.863  0.3880 -0.9807  0.7667
    1BTD    C50 1231   7.332   2.687   2.821  0.0941  0.0534  0.3187
    1BTD    C75 1232   6.665   2.769   3.104 -0.4752  0.1158  0.6941
    1BTD    C76 1233   6.518   2.769   3.057 -0.0075 -1.3408  0.5859
    1BTD    C77 1234   6.473   2.911   3.019  0.5526  0.2878  0.2960
    1BTD    C78 1235   6.320   2.923   3.036  1.3053 -0.2350 -0.0834
    1BTD    C79 1236   6.523   2.667   2.956 -0.6518 -1.3106  0.6223
    1BTD    C80 1237   6.408   2.602   2.900  0.1382  0.2908  1.1229
    1BTD    C81 1238   6.290   2.570   2.991 -0.0107 -0.1438 -0.2859
    1BTD    C82 1239   6.210   2.439   2.970 -0.6843 -0.4161  0.1646
    2TTP     S1 1240   7.019   2.967   3.684  0.1708 -0.1038 -0.3096
    2TTP     S5 1241   6.895   3.277   3.413  0.0273  0.1365  0.0288
    2TTP     C1 1242   6.944   3.354   3.570  0.1891  0.0046  0.0435
    2TTP     C2 1243   6.986   3.263   3.663  0.2428 -0.0774 -0.0602
    2TTP     C3 1244   6.980   3.129   3.614  0.1584 -0.0390 -0.1549
    2TTP     C4 1245   6.970   2.890   3.527  0.0091  0.0282 -0.3244
    2TTP    C17 1246   6.929   2.981   3.434 -0.0447  0.1101 -0.2207
    2TTP    C18 1247   6.935   3.115   3.484  0.0398  0.0716 -0.1259
    2TTP    C32 1248   7.009   3.284   3.806 -0.6970 -0.8997  0.0262
    2TTP    C33 1249   7.130   3.232   3.889 -1.2990  1.1445 -0.6586
    2TTP    C34 1250   7.154   3.324   4.014 -0.5022  0.0745 -0.2560
    2TTP    C35 1251   7.150   3.475   4.003  1.1614 -0.4597  0.3770
    2TTP    C36 1252   7.217   3.570   4.109 -0.2464  0.1945  0.4539
    2TTP    C37 1253   7.272   3.703   4.054  0.3854  0.8451  0.0008
    2TTP    C38 1254   7.313   3.802   4.152  1.0840  0.1809 -1.2789
    2TTP    C39 1255   7.307   3.758   4.307 -1.3778 -0.1866  0.6507
    2TTP    C40 1256   7.350   3.866   4.387 -0.3652 -1.2702  1.1724
    2TTP    C41 1257   7.486   3.877   4.464  0.5902  0.0807 -0.8302
    2TTP    C42 1258   7.483   3.782   4.578 -1.1530  0.0308  0.6349
    3TTP     S1 1259   6.761   2.281   3.252  0.6671 -0.3022  0.0821
    3TTP     S5 1260   6.806   2.468   2.867 -0.0705 -0.2992 -0.0062
    3TTP     C1 1261   6.864   2.296   2.855 -0.2867 -0.3610 -0.1735
    3TTP     C2 1262   6.853   2.228   2.973 -0.0715 -0.3656 -0.1562
    3TTP     C3 1263   6.799   2.309   3.077  0.2714 -0.3204 -0.0100
    3TTP     C4 1264   6.703   2.453   3.264  0.8833 -0.2404  0.2493
    3TTP    C17 1265   6.713   2.521   3.146  0.6681 -0.2358  0.2320
    3TTP    C18 1266   6.767   2.439   3.042  0.3248 -0.2810  0.0859
    3TTP    C32 1267   6.943   2.113   3.014 -0.1591  0.2504  0.6853
    3TTP    C33 1268   6.892   2.014   3.126  0.5995  0.3858 -0.2475
    3TTP    C34 1269   6.970   1.891   3.139  0.0323 -0.1178  0.6674
    3TTP    C35 1270   6.891   1.769   3.163 -0.4956  0.3310  0.0808
    3TTP    C36 1271   6.812   1.724   3.291  0.5273 -0.0289  0.0897
    3TTP    C37 1272   6.854   1.730   3.435 -0.2540  0.9496  0.0160
    3TTP    C38 1273   6.997   1.675   3.488  0.0434  1.2000  0.2524
    3TTP    C39 1274   7.105   1.632   3.381  0.9228  0.1621 -0.5404
    3TTP    C40 1275   7.239   1.637   3.450 -0.8839 -0.3354 -0.5018
    3TTP    C41 1276   7.344   1.541   3.379 -0.1454  0.8207 -0.6811
    3TTP    C42 1277   7.436   1.466   3.482  0.2558  0.4463 -1.1337
    4FIC     F1 1278   6.949   3.964   3.030  0.0236 -0.5909 -0.3365
    4FIC     F2 1279   6.890   4.138   3.230 -0.3082 -0.4113 -0.5888
    4FIC     O1 1280   6.983   3.499   3.305  0.3951 -0.2144  0.2601
    4FIC     N5 1281   6.828   4.057   3.715 -0.5200  0.1153 -0.5264
    4FIC     N6 1282   6.866   3.659   3.889 -0.1630  0.3732 -0.0095
    4FIC    C19 1283   6.938   3.500   3.594  0.2101  0.0909  0.2308
    4FIC    C20 1284   6.932   3.610   3.517  0.1297 -0.0108  0.0907
    4FIC    C21 1285   6.956   3.602   3.369  0.2335 -0.1656  0.1162
    4FIC    C22 1286   6.942   3.738   3.316  0.1065 -0.2467 -0.0620
    4FIC    C23 1287   6.955   3.780   3.184  0.1410 -0.3939 -0.1056
    4FIC    C24 1288   6.937   3.915   3.158 -0.0010 -0.4463 -0.2840
    4FIC    C25 1289   6.907   4.005   3.262 -0.1717 -0.3536 -0.4137
    4FIC    C26 1290   6.893   3.964   3.394 -0.2071 -0.2066 -0.3712
    4FIC    C27 1291   6.911   3.828   3.422 -0.0650 -0.1516 -0.1914
    4FIC    C28 1292   6.904   3.752   3.550 -0.0575 -0.0028 -0.1026
    4FIC    C29 1293   6.876   3.804   3.674 -0.1974  0.1189 -0.1842
    4FIC    C30 1294   6.850   3.943   3.696 -0.3744  0.1165 -0.3721
    4FIC    C31 1295   6.871   3.724   3.792 -0.1776  0.2582 -0.0876
    5FIC     F1 1296   7.087   2.564   2.101  0.3122  0.1538 -0.1010
    5FIC     F2 1297   7.148   2.307   2.035 -0.1018  0.0928 -0.2502
    5FIC     O1 1298   6.926   2.501   2.614  0.6678  0.1869  0.0151
    5FIC     N5 1299   7.121   1.893   2.305 -0.4435  0.0287 -0.3821
    5FIC     N6 1300   6.983   1.896   2.719 -0.0821  0.0668 -0.2611
    5FIC    C19 1301   6.927   2.234   2.733  0.3985  0.1403 -0.0862
    5FIC    C20 1302   6.965   2.260   2.607  0.3254  0.1344 -0.1096
    5FIC    C21 1303   6.962   2.400   2.553  0.4736  0.1596 -0.0541
    5FIC    C22 1304   7.010   2.392   2.413  0.3430  0.1454 -0.0980
    5FIC    C23 1305   7.024   2.497   2.323  0.4101  0.1595 -0.0712
    5FIC    C24 1306   7.071   2.465   2.196  0.2569  0.1413 -0.1237
    5FIC    C25 1307   7.102   2.333   2.162  0.0438  0.1099 -0.2005
    5FIC    C26 1308   7.088   2.228   2.252 -0.0243  0.0955 -0.2277
    5FIC    C27 1309   7.041   2.258   2.381  0.1284  0.1136 -0.1755
    5FIC    C28 1310   7.015   2.171   2.498  0.1090  0.1057 -0.1855
    5FIC    C29 1311   7.033   2.035   2.505 -0.0741  0.0771 -0.2525
    5FIC    C30 1312   7.081   1.958   2.395 -0.2764  0.0506 -0.3234
    5FIC    C31 1313   7.005   1.960   2.623 -0.0774  0.0716 -0.2568
    1BTD     S2 1314   6.722   6.474   6.825 -0.1000 -0.0082 -0.1404
    1BTD     N1 1315   6.708   6.563   6.670 -1.2181 -0.4593 -0.3167
    1BTD     N2 1316   6.767   6.318   6.749  1.1799  0.2142  0.1235
    1BTD     N3 1317   6.835   6.160   6.312  1.7698 -0.1467  0.3434
    1BTD     N4 1318   6.762   6.462   6.214 -1.1851 -0.9769 -0.1990
    1BTD     C5 1319   6.737   6.506   6.433 -1.1652 -0.7195 -0.2487
    1BTD     C6 1320   6.736   6.476   6.574 -0.6111 -0.4227 -0.1769
    1BTD     C7 1321   6.770   6.339   6.618  0.7312 -0.0457  0.0696
    1BTD     C8 1322   6.802   6.239   6.520  1.4522  0.0159  0.2319
    1BTD    C15 1323   6.801   6.273   6.383  0.8701 -0.2832  0.1536
    1BTD    C16 1324   6.769   6.405   6.340 -0.4230 -0.6465 -0.0838
    1BTD    C43 1325   6.723   6.414   6.073  0.0754  0.6136  0.3412
    1BTD    C44 1326   6.576   6.441   6.026  0.3108 -1.3310  0.3199
    1BTD    C45 1327   6.482   6.412   6.142  1.5746 -0.4534  0.2174
    1BTD    C46 1328   6.367   6.512   6.160 -1.5609  0.0129  1.5468
    1BTD    C47 1329   6.539   6.340   5.909 -0.4733  0.4760  0.0176
    1BTD    C48 1330   6.573   6.438   5.796 -0.9149  0.1971 -0.0651
    1BTD    C49 1331   6.503   6.409   5.669  0.1552  0.4799 -0.4701
    1BTD    C50 1332   6.580   6.342   5.557 -0.3846  0.9638 -0.6491
    1BTD    C75 1333   6.850   6.141   6.160  0.5365  0.8800 -0.3109
    1BTD    C76 1334   6.988   6.150   6.110  0.8673  1.1070  0.0152
    1BTD    C77 1335   7.079   6.260   6.148 -0.9739 -1.7940 -1.2337
    1BTD    C78 1336   7.199   6.257   6.249  0.6336 -0.3116  0.5694
    1BTD    C79 1337   7.049   6.014   6.082  0.7160 -0.4063  0.9726
    1BTD    C80 1338   7.113   5.988   5.938  0.1879 -0.2411 -0.7697
    1BTD    C81 1339   7.009   6.001   5.833 -0.8533  1.2139  2.0854
    1BTD    C82 1340   7.059   6.033   5.682 -0.2091 -0.2039 -0.7254
    2TTP     S1 1341   6.748   6.810   6.401  0.2326  0.3527  0.0505
    2TTP     S5 1342   6.827   6.747   5.983 -0.1031 -0.2389  0.0721
    2TTP     C1 1343   6.859   6.922   6.023  0.3757 -0.2837 -0.0991
    2TTP     C2 1344   6.836   6.952   6.154  0.5076 -0.1037 -0.1160
    2TTP     C3 1345   6.793   6.837   6.228  0.2353  0.0762  0.0061
    2TTP     C4 1346   6.716   6.635   6.362 -0.2462  0.3974  0.2218
    2TTP    C17 1347   6.739   6.605   6.230 -0.3779  0.2174  0.2388
    2TTP    C18 1348   6.782   6.720   6.156 -0.1057  0.0376  0.1168
    2TTP    C32 1349   6.873   7.077   6.233  0.7325 -0.1568  0.8650
    2TTP    C33 1350   6.765   7.159   6.310 -0.1291  0.0263  0.5839
    2TTP    C34 1351   6.651   7.219   6.216  0.6317  0.2599 -0.9559
    2TTP    C35 1352   6.701   7.334   6.136 -0.1443 -1.3914  0.3449
    2TTP    C36 1353   6.625   7.450   6.161 -0.0094 -0.8466  0.7279
    2TTP    C37 1354   6.630   7.582   6.088  1.8722 -0.4029 -0.1918
    2TTP    C38 1355   6.581   7.703   6.175 -0.5291  1.4913 -0.2272
    2TTP    C39 1356   6.542   7.841   6.104 -0.6582 -0.5367  0.7703
    2TTP    C40 1357   6.641   7.896   5.989  0.1272 -0.5577 -0.3769
    2TTP    C41 1358   6.659   8.052   5.978 -0.1728 -0.0656  0.8389
    2TTP    C42 1359   6.749   8.117   6.095  1.0575 -0.0457  0.2201
    3TTP     S1 1360   6.826   5.974   6.651  0.0483  0.0756  0.0824
    3TTP     S5 1361   6.811   5.788   6.264 -0.7311  0.3675 -0.0309
    3TTP     C1 1362   6.785   5.660   6.391 -0.3302  0.2478 -0.0676
    3TTP     C2 1363   6.789   5.710   6.518 -0.0659  0.1509 -0.0349
    3TTP     C3 1364   6.811   5.851   6.519 -0.1705  0.1673  0.0206
    3TTP     C4 1365   6.852   6.102   6.524 -0.3525  0.1954  0.1191
    3TTP    C17 1366   6.849   6.052   6.397 -0.6168  0.2924  0.0864
    3TTP    C18 1367   6.826   5.911   6.395 -0.5124  0.2759  0.0311
    3TTP    C32 1368   6.751   5.635   6.645 -0.3459 -0.4405  0.0030
    3TTP    C33 1369   6.627   5.662   6.727 -0.0435 -1.5825  1.9566
    3TTP    C34 1370   6.502   5.679   6.656  1.2737 -0.7257  1.3260
    3TTP    C35 1371   6.485   5.810   6.574 -0.4462 -0.0790  0.2710
    3TTP    C36 1372   6.347   5.862   6.587 -0.2650  0.5046 -0.5985
    3TTP    C37 1373   6.311   5.994   6.519  0.0916  1.0742  1.4634
    3TTP    C38 1374   6.161   6.042   6.529 -0.2410  0.5167 -0.1106
    3TTP    C39 1375   6.058   6.028   6.408 -1.1050 -0.3816 -0.1466
    3TTP    C40 1376   5.928   6.116   6.437 -0.3872 -0.8086  1.2841
    3TTP    C41 1377   5.937   6.273   6.417  0.7240 -0.6885  0.0272
    3TTP    C42 1378   5.805   6.335   6.485  0.2255 -0.1874  0.0955
    4FIC     F1 1379   6.864   7.070   5.211 -0.1314  0.4188 -0.1097
    4FIC     F2 1380   7.028   7.282   5.257  0.1253  0.1929  0.0149
    4FIC     O1 1381   6.786   6.889   5.715 -0.1469  0.0664 -0.2381
    4FIC     N5 1382   7.209   7.457   5.683  0.4829 -0.3829  0.1019
    4FIC     N6 1383   7.115   7.273   6.068  0.4190 -0.6129 -0.0235
    4FIC    C19 1384   6.915   7.027   5.938  0.0927 -0.2747 -0.1649
    4FIC    C20 1385   6.928   7.064   5.810  0.0867 -0.1771 -0.1374
    4FIC    C21 1386   6.859   6.988   5.700 -0.0402 -0.0031 -0.1783
    4FIC    C22 1387   6.894   7.055   5.574 -0.0124  0.0675 -0.1335
    4FIC    C23 1388   6.853   7.020   5.445 -0.0994  0.2257 -0.1488
    4FIC    C24 1389   6.900   7.099   5.341 -0.0504  0.2643 -0.0979
    4FIC    C25 1390   6.985   7.208   5.365  0.0817  0.1479 -0.0339
    4FIC    C26 1391   7.026   7.243   5.493  0.1692 -0.0103 -0.0182
    4FIC    C27 1392   6.980   7.165   5.600  0.1212 -0.0517 -0.0690
    4FIC    C28 1393   7.004   7.175   5.746  0.1874 -0.2067 -0.0691
    4FIC    C29 1394   7.082   7.268   5.810  0.3173 -0.3501 -0.0159
    4FIC    C30 1395   7.152   7.372   5.740  0.4079 -0.3676  0.0488
    4FIC    C31 1396   7.100   7.270   5.951  0.3725 -0.4939 -0.0204
    5FIC     F1 1397   6.872   5.165   5.745  0.2116  0.1392 -0.0484
    5FIC     F2 1398   6.816   4.956   5.909 -0.5080  0.1473 -0.2761
    5FIC     O1 1399   6.839   5.579   6.093  0.8243 -0.0448  0.2310
    5FIC     N5 1400   6.712   4.949   6.393 -1.1051  0.0278 -0.4042
    5FIC     N6 1401   6.698   5.314   6.632 -0.4811 -0.1175 -0.1400
    5FIC    C19 1402   6.774   5.526   6.373  0.3548 -0.1024  0.1127
    5FIC    C20 1403   6.784   5.430   6.280  0.2288 -0.0564  0.0515
    5FIC    C21 1404   6.818   5.465   6.137  0.4872 -0.0291  0.1187
    5FIC    C22 1405   6.821   5.338   6.062  0.2613  0.0194  0.0250
    5FIC    C23 1406   6.848   5.320   5.927  0.3791  0.0576  0.0432
    5FIC    C24 1407   6.846   5.190   5.878  0.1143  0.1001 -0.0598
    5FIC    C25 1408   6.817   5.082   5.963 -0.2562  0.1042 -0.1771
    5FIC    C26 1409   6.790   5.100   6.098 -0.3754  0.0663 -0.1957
    5FIC    C27 1410   6.792   5.230   6.149 -0.1115  0.0229 -0.0926
    5FIC    C28 1411   6.768   5.282   6.286 -0.1462 -0.0235 -0.0812
    5FIC    C29 1412   6.737   5.208   6.398 -0.4650 -0.0340 -0.1754
    5FIC    C30 1413   6.723   5.066   6.395 -0.8157 -0.0001 -0.3006
    5FIC    C31 1414   6.716   5.267   6.526 -0.4719 -0.0800 -0.1553
    1BTD     S2 1415   8.920   6.822   5.660 -0.3988 -0.4072  0.1660
    1BTD     N1 1416   8.843   6.884   5.810 -0.2005 -0.4745  0.2956
    1BTD     N2 1417   9.086   6.874   5.706 -0.3836 -0.1470 -0.1698
    1BTD     N3 1418   9.286   7.090   6.072  0.0062  0.2612 -0.6196
    1BTD     N4 1419   8.987   7.102   6.201  0.2317 -0.1422 -0.0463
    1BTD     C5 1420   8.922   6.997   6.012  0.0224 -0.2961  0.1104
    1BTD     C6 1421   8.940   6.937   5.883 -0.1361 -0.3083  0.0925
    1BTD     C7 1422   9.076   6.931   5.825 -0.2387 -0.1252 -0.1678
    1BTD     C8 1423   9.187   6.987   5.899 -0.1776  0.0612 -0.3978
    1BTD    C15 1424   9.164   7.045   6.025 -0.0216  0.0659 -0.3708
    1BTD    C16 1425   9.033   7.051   6.081  0.0775 -0.1106 -0.1199
    1BTD    C43 1426   9.057   7.123   6.324  0.1048 -0.1150 -0.3173
    1BTD    C44 1427   9.052   7.255   6.403  0.4555  0.0588 -1.9033
    1BTD    C45 1428   9.144   7.359   6.343 -0.2497  0.4881 -0.7776
    1BTD    C46 1429   9.122   7.519   6.342 -0.3918 -0.1900  0.4441
    1BTD    C47 1430   9.071   7.262   6.562  0.4852  0.4075 -0.4061
    1BTD    C48 1431   9.209   7.254   6.624 -1.2968 -0.2896 -0.7875
    1BTD    C49 1432   9.241   7.337   6.756 -1.2174  0.6102  0.5147
    1BTD    C50 1433   9.316   7.290   6.879 -0.7476  0.0114  1.7113
    1BTD    C75 1434   9.338   7.125   6.204 -0.5700  1.7773 -1.2752
    1BTD    C76 1435   9.401   7.004   6.283  0.7115  0.7524 -0.2889
    1BTD    C77 1436   9.509   7.047   6.379 -0.3236  0.8726 -1.6936
    1BTD    C78 1437   9.653   7.068   6.319  0.6678 -0.2042 -0.1794
    1BTD    C79 1438   9.313   6.905   6.353  0.4699  1.5414 -0.3068
    1BTD    C80 1439   9.354   6.756   6.310 -1.4406 -1.2167  1.0961
    1BTD    C81 1440   9.365   6.645   6.405  0.0199 -0.6264  0.2890
    1BTD    C82 1441   9.364   6.497   6.356 -0.3544 -1.1028  0.3207
    2TTP     S1 1442   8.631   6.949   6.101 -0.4551 -0.1834 -0.0577
    2TTP     S5 1443   8.728   7.133   6.477  0.0856  0.0006 -0.2854
    2TTP     C1 1444   8.555   7.078   6.483  0.0633  0.0925 -0.0458
    2TTP     C2 1445   8.514   7.018   6.367 -0.1047  0.0410  0.0387
    2TTP     C3 1446   8.619   7.013   6.269 -0.2224 -0.0728 -0.0829
    2TTP     C4 1447   8.804   7.004   6.095 -0.4332 -0.2754 -0.2973
    2TTP    C17 1448   8.844   7.064   6.211 -0.2648 -0.2239 -0.3817
    2TTP    C18 1449   8.740   7.069   6.308 -0.1476 -0.1101 -0.2602
    2TTP    C32 1450   8.367   6.982   6.336 -0.0372 -0.1620 -0.9845
    2TTP    C33 1451   8.316   7.063   6.214 -0.2076 -0.0997 -1.3884
    2TTP    C34 1452   8.282   7.195   6.276  0.3792 -0.1836  0.7035
    2TTP    C35 1453   8.237   7.284   6.159 -0.5817 -0.1862  0.6273
    2TTP    C36 1454   8.258   7.423   6.226 -0.8312 -0.2335  0.6197
    2TTP    C37 1455   8.299   7.539   6.129 -0.3597  0.1659  0.6586
    2TTP    C38 1456   8.343   7.672   6.195  0.7360 -0.0278 -0.4500
    2TTP    C39 1457   8.447   7.670   6.299 -0.1566  0.7303 -0.6773
    2TTP    C40 1458   8.424   7.726   6.448  0.0497 -1.0947  0.9603
    2TTP    C41 1459   8.295   7.712   6.512  0.9312  0.4836 -1.0300
    2TTP    C42 1460   8.310   7.577   6.583 -0.4138  0.1167  0.7528
    3TTP     S1 1461   9.416   7.032   5.716 -0.1720  0.4621  0.0010
    3TTP     S5 1462   9.598   7.279   6.018  0.5004 -1.1480  0.9389
    3TTP     C1 1463   9.687   7.303   5.861  0.2262 -0.4001  0.8903
    3TTP     C2 1464   9.636   7.228   5.759  0.0026  0.1411  0.5978
    3TTP     C3 1465   9.525   7.149   5.800  0.0396 -0.0154  0.4016
    3TTP     C4 1466   9.326   7.008   5.873  0.1020 -0.2857  0.0496
    3TTP    C17 1467   9.377   7.082   5.975  0.3257 -0.8271  0.3419
    3TTP    C18 1468   9.489   7.162   5.934  0.2890 -0.6708  0.5383
    3TTP    C32 1469   9.692   7.200   5.613 -0.9034 -0.5799 -0.3246
    3TTP    C33 1470   9.639   7.275   5.495 -0.2964 -0.3776  0.0749
    3TTP    C34 1471   9.721   7.253   5.368 -0.6768  0.2394 -1.5911
    3TTP    C35 1472   9.674   7.309   5.244  0.9132  0.9819  0.1508
    3TTP    C36 1473   9.570   7.221   5.166 -0.7858 -0.3567  0.4235
    3TTP    C37 1474   9.515   7.272   5.031  0.9327 -1.5415 -0.1922
    3TTP    C38 1475   9.594   7.257   4.906 -0.0427  0.8015  0.7533
    3TTP    C39 1476   9.613   7.126   4.820  1.2321 -1.8351  0.7058
    3TTP    C40 1477   9.483   7.051   4.778  0.1594 -0.4581  1.3380
    3TTP    C41 1478   9.414   7.104   4.646 -0.8807  0.7057 -1.3980
    3TTP    C42 1479   9.485   7.123   4.515 -1.2417 -0.6555  0.0600
    4FIC     F1 1480   8.519   7.683   7.036  0.3731 -0.1211  0.0545
    4FIC     F2 1481   8.339   7.536   7.178 -0.2403  0.2522 -0.3242
    4FIC     O1 1482   8.606   7.355   6.614  0.6592 -0.3448  0.2863
    4FIC     N5 1483   8.144   7.092   7.083 -0.9181  0.6295 -0.7039
    4FIC     N6 1484   8.248   6.865   6.724 -0.5708  0.3797 -0.4464
    4FIC    C19 1485   8.466   7.099   6.600  0.1749 -0.0673  0.0067
    4FIC    C20 1486   8.451   7.187   6.701  0.1268 -0.0257 -0.0368
    4FIC    C21 1487   8.527   7.317   6.701  0.3877 -0.1761  0.1148
    4FIC    C22 1488   8.487   7.388   6.823  0.2563 -0.0834  0.0196
    4FIC    C23 1489   8.531   7.513   6.867  0.4094 -0.1655  0.1018
    4FIC    C24 1490   8.480   7.560   6.987  0.2364 -0.0491 -0.0174
    4FIC    C25 1491   8.387   7.484   7.060 -0.0795  0.1431 -0.2126
    4FIC    C26 1492   8.343   7.360   7.017 -0.2334  0.2261 -0.2954
    4FIC    C27 1493   8.394   7.310   6.896 -0.0625  0.1104 -0.1773
    4FIC    C28 1494   8.368   7.183   6.824 -0.1545  0.1533 -0.2196
    4FIC    C29 1495   8.283   7.083   6.863 -0.4451  0.3264 -0.3948
    4FIC    C30 1496   8.207   7.088   6.984 -0.7043  0.4925 -0.5641
    4FIC    C31 1497   8.264   6.964   6.786 -0.5124  0.3546 -0.4221
    5FIC     F1 1498  10.076   7.852   6.319  0.7122 -0.9495  0.4379
    5FIC     F2 1499  10.262   7.879   6.121 -0.4582  0.3853 -0.5209
    5FIC     O1 1500   9.741   7.489   6.097  0.8309 -1.4790  1.1187
    5FIC     N5 1501  10.289   7.659   5.679 -2.0568  1.9262 -1.4142
    5FIC     N6 1502   9.990   7.370   5.546 -1.7278  1.2434 -0.6891
    5FIC    C19 1503   9.799   7.386   5.829 -0.2457 -0.3922  0.4442
    5FIC    C20 1504   9.876   7.476   5.893 -0.2294 -0.3111  0.3105
    5FIC    C21 1505   9.840   7.525   6.030  0.3409 -0.8942  0.6784
    5FIC    C22 1506   9.944   7.621   6.070  0.2017 -0.6330  0.4128
    5FIC    C23 1507   9.953   7.693   6.189  0.5889 -0.9865  0.6000
    5FIC    C24 1508  10.061   7.779   6.204  0.3544 -0.6307  0.2773
    5FIC    C25 1509  10.156   7.792   6.102 -0.2487  0.0566 -0.2165
    5FIC    C26 1510  10.148   7.721   5.983 -0.6378  0.4125 -0.4058
    5FIC    C27 1511  10.040   7.634   5.966 -0.4084  0.0613 -0.0848
    5FIC    C28 1512  10.002   7.545   5.853 -0.6971  0.2862 -0.1673
    5FIC    C29 1513  10.070   7.530   5.735 -1.2860  0.9261 -0.6031
    5FIC    C30 1514  10.190   7.601   5.705 -1.7078  1.4737 -1.0475
    5FIC    C31 1515  10.026   7.442   5.631 -1.5259  1.0968 -0.6478
    1BTD     S2 1516   8.512   0.947   5.605 -0.1340  0.4917 -0.0570
    1BTD     N1 1517   8.393   0.812   5.601  0.0863  0.3000 -0.1992
    1BTD     N2 1518   8.396   1.069   5.540 -0.2763  0.3250 -0.1190
    1BTD     N3 1519   7.948   1.073   5.402 -0.1678 -0.3607 -0.5016
    1BTD     N4 1520   7.943   0.757   5.478  0.2787 -0.3915 -0.6005
    1BTD     C5 1521   8.158   0.787   5.536  0.1814 -0.0606 -0.4076
    1BTD     C6 1522   8.280   0.862   5.555  0.0446  0.1304 -0.2812
    1BTD     C7 1523   8.281   1.006   5.520 -0.1581  0.1444 -0.2363
    1BTD     C8 1524   8.162   1.068   5.469 -0.2143 -0.0333 -0.3198
    1BTD    C15 1525   8.046   0.990   5.452 -0.0757 -0.2172 -0.4428
    1BTD    C16 1526   8.044   0.851   5.486  0.1200 -0.2307 -0.4862
    1BTD    C43 1527   7.803   0.774   5.432 -0.1421 -0.9718  0.1686
    1BTD    C44 1528   7.679   0.728   5.519 -1.1394  0.1599 -0.1192
    1BTD    C45 1529   7.679   0.823   5.634  0.6340 -0.3406  0.2280
    1BTD    C46 1530   7.781   0.820   5.760 -0.1481  0.1557  0.1387
    1BTD    C47 1531   7.572   0.713   5.413  1.8210 -1.2666 -0.4441
    1BTD    C48 1532   7.427   0.694   5.449  1.1071  0.8165 -0.5721
    1BTD    C49 1533   7.341   0.823   5.444 -1.7263 -0.5322  1.5640
    1BTD    C50 1534   7.255   0.841   5.306 -0.7667  0.0690 -0.5007
    1BTD    C75 1535   7.814   1.094   5.470 -0.7518 -0.4390 -0.8027
    1BTD    C76 1536   7.694   1.171   5.413 -0.8787 -0.4559  0.4455
    1BTD    C77 1537   7.643   1.112   5.278  0.1536  0.9089  0.0822
    1BTD    C78 1538   7.539   1.190   5.212 -0.2359 -1.0950 -0.6476
    1BTD    C79 1539   7.604   1.215   5.524  0.0848  0.9417 -0.6405
    1BTD    C80 1540   7.628   1.348   5.597  1.6150  0.7131  0.2313
    1BTD    C81 1541   7.548   1.335   5.729  0.6479  0.8515  0.2578
    1BTD    C82 1542   7.396   1.329   5.750  0.0138  0.6457 -0.1929
    2TTP     S1 1543   8.187   0.497   5.653  0.3977 -0.5611 -0.3296
    2TTP     S5 1544   7.798   0.415   5.488 -0.0612 -0.2489  0.5831
    2TTP     C1 1545   7.859   0.265   5.571 -0.0326 -0.2653  0.5327
    2TTP     C2 1546   7.983   0.281   5.627  0.1107 -0.3627  0.2478
    2TTP     C3 1547   8.034   0.413   5.606  0.2029 -0.4278  0.0591
    2TTP     C4 1548   8.126   0.647   5.569  0.3688 -0.5446 -0.2791
    2TTP    C17 1549   8.003   0.630   5.514  0.2254 -0.4472  0.0056
    2TTP    C18 1550   7.952   0.499   5.535  0.1333 -0.3821  0.1944
    2TTP    C32 1551   8.059   0.185   5.721 -1.0972  1.3093 -0.7211
    2TTP    C33 1552   7.974   0.126   5.842 -0.0686 -0.6474 -0.2266
    2TTP    C34 1553   8.060   0.022   5.905 -0.2535  1.1450 -0.6696
    2TTP    C35 1554   8.019  -0.024   6.043 -1.5343 -0.8472 -0.2802
    2TTP    C36 1555   7.942  -0.150   6.042  1.5569 -0.0773 -0.6774
    2TTP    C37 1556   7.787  -0.159   6.043 -0.8217 -0.3438  0.9929
    2TTP    C38 1557   7.701  -0.036   6.091 -1.1138  0.6221  0.6515
    2TTP    C39 1558   7.547  -0.074   6.085 -0.5933 -0.7465 -0.1114
    2TTP    C40 1559   7.455   0.015   6.170  0.2781 -0.8182 -0.3423
    2TTP    C41 1560   7.316  -0.024   6.170  1.1672  1.2267 -0.7791
    2TTP    C42 1561   7.198   0.074   6.132  0.6782  0.6591 -0.1617
    3TTP     S1 1562   8.249   1.316   5.340  0.0702 -0.0786 -0.1417
    3TTP     S5 1563   7.861   1.359   5.161  0.0139  0.2162  0.0496
    3TTP     C1 1564   7.973   1.481   5.086  0.1218 -0.0045 -0.1497
    3TTP     C2 1565   8.099   1.474   5.137  0.1454 -0.1086 -0.2207
    3TTP     C3 1566   8.112   1.373   5.237  0.0794 -0.0178 -0.1200
    3TTP     C4 1567   8.137   1.194   5.415 -0.0377  0.1421  0.0576
    3TTP    C17 1568   8.010   1.200   5.364 -0.0615  0.2461  0.1285
    3TTP    C18 1569   7.997   1.301   5.264  0.0046  0.1553  0.0279
    3TTP    C32 1570   8.241   1.530   5.096  0.9498  1.1346  0.4880
    3TTP    C33 1571   8.257   1.687   5.083 -0.6426  0.0189 -0.2522
    3TTP    C34 1572   8.230   1.796   5.182  1.5121  0.0373 -1.0011
    3TTP    C35 1573   8.234   1.919   5.097 -0.6824  0.9599 -0.3886
    3TTP    C36 1574   8.382   1.973   5.056 -1.0925 -0.8904 -0.0352
    3TTP    C37 1575   8.382   2.032   4.919  0.7802 -0.0181 -0.2456
    3TTP    C38 1576   8.464   1.940   4.828 -0.4298  0.1557 -1.4839
    3TTP    C39 1577   8.533   2.007   4.708  0.2702 -0.6224 -0.6116
    3TTP    C40 1578   8.468   1.966   4.572 -0.1303  0.5002 -0.5103
    3TTP    C41 1579   8.540   1.855   4.486  1.5439 -1.1747 -1.0701
    3TTP    C42 1580   8.620   1.884   4.353 -0.0971  1.6539 -0.1051
    4FIC     F1 1581   7.058   0.188   5.726 -0.1704 -0.2469 -0.2244
    4FIC     F2 1582   7.090  -0.082   5.725 -0.0166 -0.2327  0.3247
    4FIC     O1 1583   7.566   0.352   5.635 -0.2425 -0.1404 -0.4355
    4FIC     N5 1584   7.499  -0.354   5.659  0.1532 -0.1366  0.9632
    4FIC     N6 1585   7.889  -0.171   5.588  0.0659 -0.0565  0.6875
    4FIC    C19 1586   7.777   0.152   5.601 -0.1210 -0.0892  0.0138
    4FIC    C20 1587   7.648   0.121   5.624 -0.1088 -0.1165  0.0455
    4FIC    C21 1588   7.545   0.230   5.640 -0.1743 -0.1418 -0.1954
    4FIC    C22 1589   7.416   0.162   5.664 -0.1413 -0.1681 -0.0896
    4FIC    C23 1590   7.292   0.221   5.685 -0.1798 -0.1968 -0.2365
    4FIC    C24 1591   7.184   0.136   5.705 -0.1363 -0.2181 -0.0918
    4FIC    C25 1592   7.201  -0.003   5.705 -0.0569 -0.2108  0.1909
    4FIC    C26 1593   7.325  -0.062   5.684 -0.0182 -0.1822  0.3388
    4FIC    C27 1594   7.435   0.022   5.663 -0.0613 -0.1603  0.1959
    4FIC    C28 1595   7.578  -0.009   5.639 -0.0381 -0.1283  0.2902
    4FIC    C29 1596   7.635  -0.134   5.631  0.0347 -0.1128  0.5537
    4FIC    C30 1597   7.560  -0.254   5.647  0.0997 -0.1259  0.7781
    4FIC    C31 1598   7.775  -0.154   5.607  0.0514 -0.0818  0.6258
    5FIC     F1 1599   7.274   1.784   4.795  0.0327  0.0560  0.3535
    5FIC     F2 1600   7.417   1.914   4.603  0.0604 -0.2210  0.1850
    5FIC     O1 1601   7.671   1.542   5.072 -0.0679 -0.2387  0.2409
    5FIC     N5 1602   7.905   1.928   4.525  0.0284 -0.8292 -0.1372
    5FIC     N6 1603   8.187   1.713   4.780 -0.0558 -1.0037 -0.1910
    5FIC    C19 1604   7.948   1.580   4.987 -0.0773 -0.6080  0.0403
    5FIC    C20 1605   7.843   1.636   4.925 -0.0530 -0.5231  0.0751
    5FIC    C21 1606   7.703   1.612   4.975 -0.0496 -0.3330  0.1792
    5FIC    C22 1607   7.613   1.687   4.885 -0.0210 -0.2822  0.1928
    5FIC    C23 1608   7.474   1.695   4.891 -0.0083 -0.1188  0.2772
    5FIC    C24 1609   7.411   1.772   4.795  0.0190 -0.1020  0.2724
    5FIC    C25 1610   7.485   1.839   4.696  0.0333 -0.2449  0.1856
    5FIC    C26 1611   7.623   1.831   4.689  0.0207 -0.4083  0.1011
    5FIC    C27 1612   7.689   1.754   4.786 -0.0070 -0.4279  0.1045
    5FIC    C28 1613   7.833   1.725   4.807 -0.0261 -0.5815  0.0286
    5FIC    C29 1614   7.938   1.772   4.731 -0.0199 -0.7465 -0.0662
    5FIC    C30 1615   7.920   1.858   4.618  0.0067 -0.7914 -0.1049
    5FIC    C31 1616   8.074   1.739   4.759 -0.0401 -0.8870 -0.1342
    1BTD     S2 1617   6.078   0.358   9.842  0.2839 -0.2575  0.0508
    1BTD     N1 1618   6.246   0.319   9.793  0.3173  0.0062 -0.0453
    1BTD     N2 1619   6.056   0.486   9.718 -0.0442 -0.4032 -0.0432
    1BTD     N3 1620   6.315   0.678   9.377 -0.6523 -0.2240 -0.4077
    1BTD     N4 1621   6.550   0.472   9.469 -0.2068  0.2804 -0.4106
    1BTD     C5 1622   6.402   0.401   9.623  0.0383  0.1433 -0.2360
    1BTD     C6 1623   6.276   0.399   9.692  0.0937 -0.0263 -0.1376
    1BTD     C7 1624   6.169   0.493   9.650 -0.1087 -0.2555 -0.1364
    1BTD     C8 1625   6.194   0.583   9.541 -0.3564 -0.3036 -0.2337
    1BTD    C15 1626   6.319   0.582   9.476 -0.4021 -0.1323 -0.3281
    1BTD    C16 1627   6.422   0.492   9.516 -0.2071  0.0885 -0.3290
    1BTD    C43 1628   6.639   0.570   9.415 -0.4310  0.6044 -0.0636
    1BTD    C44 1629   6.791   0.572   9.447  0.5733 -0.4016 -0.3279
    1BTD    C45 1630   6.820   0.601   9.601 -0.4105  0.3530  0.6227
    1BTD    C46 1631   6.960   0.552   9.638 -0.2541 -0.2243 -0.3480
    1BTD    C47 1632   6.880   0.652   9.352  1.8699  0.2639 -0.3277
    1BTD    C48 1633   6.872   0.797   9.351  1.2987  0.4206 -0.2743
    1BTD    C49 1634   7.003   0.842   9.286  0.6472  1.0865 -0.0121
    1BTD    C50 1635   7.085   0.911   9.390 -0.2711 -1.7932 -0.3151
    1BTD    C75 1636   6.396   0.692   9.251  0.7630  0.8306 -0.4959
    1BTD    C76 1637   6.370   0.618   9.116 -0.8102  0.9939 -1.1798
    1BTD    C77 1638   6.400   0.477   9.131 -0.2950 -0.9070 -1.6591
    1BTD    C78 1639   6.304   0.378   9.202 -0.4794  0.4702  1.0514
    1BTD    C79 1640   6.253   0.661   9.040  0.2385 -0.3563 -0.6093
    1BTD    C80 1641   6.185   0.610   8.914 -0.1819  0.6603 -0.2938
    1BTD    C81 1642   6.087   0.700   8.849  0.0570  0.5860 -0.0068
    1BTD    C82 1643   5.979   0.753   8.945  0.9033 -1.0278  0.6623
    2TTP     S1 1644   6.570   0.175   9.716  0.4272 -0.7844 -0.1894
    2TTP     S5 1645   6.824   0.229   9.373 -0.0895  1.1950 -0.2849
    2TTP     C1 1646   6.873   0.076   9.458  0.3001  0.9040 -1.0161
    2TTP     C2 1647   6.798   0.050   9.569  0.4827  0.2756 -1.0295
    2TTP     C3 1648   6.698   0.151   9.591  0.3214  0.0013 -0.4632
    2TTP     C4 1649   6.521   0.328   9.631  0.0377 -0.4934  0.5417
    2TTP    C17 1650   6.596   0.354   9.520 -0.1448  0.1350  0.5553
    2TTP    C18 1651   6.696   0.254   9.498  0.0165  0.4094 -0.0112
    2TTP    C32 1652   6.807  -0.058   9.663 -0.7331  0.6343 -0.1514
    2TTP    C33 1653   6.874  -0.039   9.806  0.1478 -0.3629 -1.5523
    2TTP    C34 1654   6.825  -0.138   9.905 -0.5491 -0.7862  0.2696
    2TTP    C35 1655   6.952  -0.240   9.907  0.7047 -0.8619  1.6123
    2TTP    C36 1656   6.976  -0.330  10.018 -0.1947  0.8877 -0.8875
    2TTP    C37 1657   6.894  -0.282  10.131 -0.7470  0.9961 -1.2714
    2TTP    C38 1658   6.916  -0.342  10.273 -0.0280 -0.0184  1.2868
    2TTP    C39 1659   6.856  -0.234  10.356  0.7146  0.8496 -0.6523
    2TTP    C40 1660   6.840  -0.273  10.497 -1.0918 -0.9632 -1.1450
    2TTP    C41 1661   6.760  -0.155  10.555  1.1496 -0.2309 -1.2454
    2TTP    C42 1662   6.815  -0.101  10.690  0.1262 -0.3683 -0.0644
    3TTP     S1 1663   5.959   0.769   9.501 -0.2227 -0.1481  0.0544
    3TTP     S5 1664   6.171   0.971   9.186 -0.2689  0.3987  0.3715
    3TTP     C1 1665   6.012   1.055   9.213 -0.3550  0.2283  0.4023
    3TTP     C2 1666   5.937   0.998   9.312 -0.3458  0.0494  0.3059
    3TTP     C3 1667   6.002   0.885   9.370 -0.2702  0.0404  0.2048
    3TTP     C4 1668   6.118   0.684   9.475 -0.1364  0.0223  0.0234
    3TTP    C17 1669   6.192   0.742   9.376 -0.1457  0.2012  0.1197
    3TTP    C18 1670   6.127   0.854   9.317 -0.2211  0.2101  0.2208
    3TTP    C32 1671   5.809   1.073   9.369 -0.1051  1.1348  0.4864
    3TTP    C33 1672   5.690   0.990   9.412  0.5253  0.1087 -0.4592
    3TTP    C34 1673   5.545   1.006   9.384  1.8168 -0.8258 -0.3144
    3TTP    C35 1674   5.464   0.892   9.444 -0.5445  1.6149  0.3326
    3TTP    C36 1675   5.361   0.837   9.357 -0.4646 -1.1873  0.9320
    3TTP    C37 1676   5.359   0.684   9.355 -0.8670 -0.5086 -1.8987
    3TTP    C38 1677   5.287   0.624   9.244 -0.3104  0.1162  0.3800
    3TTP    C39 1678   5.150   0.584   9.287  0.6905 -1.2484  0.9163
    3TTP    C40 1679   5.044   0.702   9.279 -0.3880  1.9287  1.1097
    3TTP    C41 1680   4.921   0.663   9.354  0.3001 -0.3142 -0.5734
    3TTP    C42 1681   4.918   0.671   9.506  0.1714  0.7476  0.9589
    4FIC     F1 1682   7.457   0.067   8.884  0.0310 -0.3855 -0.0668
    4FIC     F2 1683   7.536  -0.178   8.973 -0.3643 -0.5646 -0.2043
    4FIC     O1 1684   7.047   0.171   9.223  0.5106  0.3059  0.3071
    4FIC     N5 1685   7.357  -0.456   9.341 -0.5907 -0.3300 -0.1361
    4FIC     N6 1686   7.021  -0.325   9.588 -0.1365  0.2468  0.1838
    4FIC    C19 1687   6.977  -0.026   9.427  0.3032  0.3804  0.3078
    4FIC    C20 1688   7.077  -0.043   9.339  0.1981  0.2131  0.2198
    4FIC    C21 1689   7.107   0.063   9.236  0.3158  0.1862  0.2251
    4FIC    C22 1690   7.220   0.013   9.157  0.1546 -0.0103  0.1154
    4FIC    C23 1691   7.284   0.077   9.050  0.1874 -0.1006  0.0811
    4FIC    C24 1692   7.389   0.010   8.990  0.0100 -0.2872 -0.0269
    4FIC    C25 1693   7.430  -0.116   9.036 -0.1935 -0.3793 -0.0978
    4FIC    C26 1694   7.367  -0.180   9.142 -0.2275 -0.2897 -0.0641
    4FIC    C27 1695   7.260  -0.114   9.204 -0.0498 -0.1011  0.0451
    4FIC    C28 1696   7.173  -0.153   9.318 -0.0311  0.0327  0.1061
    4FIC    C29 1697   7.181  -0.270   9.390 -0.1951 -0.0038  0.0656
    4FIC    C30 1698   7.278  -0.372   9.363 -0.4121 -0.1829 -0.0451
    4FIC    C31 1699   7.093  -0.300   9.498 -0.1618  0.1340  0.1309
    5FIC     F1 1700   6.221   1.393   8.491 -0.3437 -0.0204  0.1178
    5FIC     F2 1701   5.967   1.488   8.471 -0.2722  0.1933  0.2155
    5FIC     O1 1702   6.201   1.143   8.971 -0.4045 -0.1104  0.0684
    5FIC     N5 1703   5.587   1.447   8.786 -0.2123  0.4363  0.3209
    5FIC     N6 1704   5.622   1.233   9.165 -0.2741  0.3229  0.2627
    5FIC    C19 1705   5.950   1.146   9.123 -0.3577  0.0618  0.1444
    5FIC    C20 1706   5.965   1.205   9.003 -0.3450  0.0761  0.1528
    5FIC    C21 1707   6.097   1.199   8.931 -0.3709 -0.0164  0.1123
    5FIC    C22 1708   6.079   1.273   8.805 -0.3486  0.0268  0.1340
    5FIC    C23 1709   6.173   1.295   8.705 -0.3604 -0.0286  0.1106
    5FIC    C24 1710   6.133   1.367   8.594 -0.3341  0.0294  0.1388
    5FIC    C25 1711   6.002   1.416   8.584 -0.2970  0.1395  0.1891
    5FIC    C26 1712   5.907   1.395   8.683 -0.2851  0.1953  0.2129
    5FIC    C27 1713   5.946   1.321   8.796 -0.3114  0.1379  0.1848
    5FIC    C28 1714   5.871   1.281   8.918 -0.3078  0.1725  0.1986
    5FIC    C29 1715   5.740   1.310   8.946 -0.2760  0.2746  0.2446
    5FIC    C30 1716   5.656   1.385   8.858 -0.2410  0.3631  0.2861
    5FIC    C31 1717   5.676   1.267   9.066 -0.2753  0.3006  0.2542
    1BTD     S2 1718   4.187   6.602   2.479  0.0444 -0.2945 -0.2763
    1BTD     N1 1719   4.268   6.707   2.601  0.1216 -0.9427  0.2467
    1BTD     N2 1720   4.021   6.650   2.527  0.0921  0.6250 -0.9810
    1BTD     N3 1721   3.828   6.938   2.844  0.3284  1.3278 -1.4724
    1BTD     N4 1722   4.133   7.008   2.934  0.3648 -0.6038  0.0402
    1BTD     C5 1723   4.194   6.863   2.774  0.2482 -0.7426  0.1206
    1BTD     C6 1724   4.172   6.769   2.667  0.1761 -0.4652 -0.1123
    1BTD     C7 1725   4.033   6.737   2.626  0.1596  0.4122 -0.7994
    1BTD     C8 1726   3.924   6.801   2.693  0.2160  0.9686 -1.2193
    1BTD    C15 1727   3.950   6.893   2.797  0.2857  0.6696 -0.9700
    1BTD    C16 1728   4.083   6.923   2.837  0.3015 -0.1758 -0.3080
    1BTD    C43 1729   4.066   7.118   2.997  0.2630 -0.8053 -0.8750
    1BTD    C44 1730   4.064   7.259   2.952 -0.1519 -0.2199 -0.2035
    1BTD    C45 1731   4.137   7.347   3.044 -0.4505 -1.1871 -1.4014
    1BTD    C46 1732   4.063   7.441   3.154 -0.4177  2.6497  0.0208
    1BTD    C47 1733   3.968   7.296   2.840  0.5279  0.8590  0.1258
    1BTD    C48 1734   3.979   7.432   2.754  0.2021  0.5077 -0.0514
    1BTD    C49 1735   4.120   7.463   2.697  0.1874 -0.1018  0.9286
    1BTD    C50 1736   4.158   7.608   2.720  0.3111  0.4803 -0.5054
    1BTD    C75 1737   3.807   6.951   2.990  0.9438  0.4083  0.6861
    1BTD    C76 1738   3.687   7.008   3.082 -0.0001  0.1380  0.4566
    1BTD    C77 1739   3.724   6.992   3.225 -0.0736  0.4857 -0.0099
    1BTD    C78 1740   3.706   6.842   3.276  0.5398 -0.0980 -0.3120
    1BTD    C79 1741   3.683   7.162   3.059  0.5706  1.1945  1.0895
    1BTD    C80 1742   3.572   7.254   3.093 -0.5722  0.1892  1.1309
    1BTD    C81 1743   3.578   7.369   2.992  0.8351 -0.1180 -0.9778
    1BTD    C82 1744   3.439   7.418   3.002  0.8484 -0.6615 -0.5360
    2TTP     S1 1745   4.487   6.909   2.808 -0.1382 -0.3530  0.0350
    2TTP     S5 1746   4.409   7.122   3.174  0.2488  0.3016 -0.2595
    2TTP     C1 1747   4.588   7.096   3.159  0.1615 -0.5399  0.0492
    2TTP     C2 1748   4.623   7.029   3.045  0.0370 -0.7917  0.1584
    2TTP     C3 1749   4.509   6.995   2.966  0.0057 -0.3289  0.0021
    2TTP     C4 1750   4.308   6.935   2.823 -0.0510  0.4885 -0.2737
    2TTP    C17 1751   4.273   7.002   2.936  0.0735  0.7403 -0.3829
    2TTP    C18 1752   4.387   7.036   3.016  0.1047  0.2776 -0.2266
    2TTP    C32 1753   4.752   6.960   3.019  0.4412  0.2900 -0.2748
    2TTP    C33 1754   4.845   7.058   2.933  0.8109  0.3337  0.3953
    2TTP    C34 1755   4.995   7.036   2.913 -0.1723 -0.0057  0.0337
    2TTP    C35 1756   5.051   6.895   2.924 -1.0393 -0.5491 -0.3076
    2TTP    C36 1757   5.208   6.914   2.965  0.1356  0.4343  0.7401
    2TTP    C37 1758   5.298   6.828   2.880 -0.0720 -0.5413 -0.4509
    2TTP    C38 1759   5.307   6.825   2.723  1.3963  0.0659 -1.3665
    2TTP    C39 1760   5.391   6.940   2.667  0.4357 -0.7277 -0.0738
    2TTP    C40 1761   5.401   6.911   2.523 -0.0392 -0.1855 -0.4781
    2TTP    C41 1762   5.433   7.041   2.453  1.4689 -1.3196  0.5795
    2TTP    C42 1763   5.582   7.047   2.408 -0.6984 -1.2375  0.6548
    3TTP     S1 1764   3.663   6.736   2.563  0.1132 -0.0646  0.1355
    3TTP     S5 1765   3.461   7.022   2.812  0.1987  0.2754 -0.1844
    3TTP     C1 1766   3.342   6.956   2.691  0.1895  0.2072 -0.1381
    3TTP     C2 1767   3.397   6.863   2.607  0.1625  0.0983 -0.0364
    3TTP     C3 1768   3.536   6.842   2.635  0.1482  0.0646  0.0083
    3TTP     C4 1769   3.782   6.802   2.683  0.1225  0.0035  0.0892
    3TTP    C17 1770   3.727   6.894   2.767  0.1495  0.1125 -0.0125
    3TTP    C18 1771   3.588   6.916   2.739  0.1639  0.1460 -0.0573
    3TTP    C32 1772   3.325   6.787   2.491 -0.7721 -1.4575 -0.9154
    3TTP    C33 1773   3.353   6.644   2.490 -0.3942  0.7128  1.3290
    3TTP    C34 1774   3.297   6.600   2.353 -0.2460  0.3130  0.0191
    3TTP    C35 1775   3.148   6.554   2.326  0.3282 -0.0129 -0.7112
    3TTP    C36 1776   3.016   6.615   2.397 -1.6752  0.0958 -1.1829
    3TTP    C37 1777   2.996   6.634   2.552 -1.5298 -0.3783 -0.3997
    3TTP    C38 1778   3.001   6.497   2.617 -1.2115 -0.7449 -0.0315
    3TTP    C39 1779   2.872   6.460   2.674  1.5239  0.5145 -0.0385
    3TTP    C40 1780   2.887   6.417   2.820 -0.4963  1.0543 -1.1212
    3TTP    C41 1781   2.759   6.413   2.920 -0.0557 -0.6814 -0.2807
    3TTP    C42 1782   2.617   6.414   2.877  0.0990  0.5636  1.2566
    4FIC     F1 1783   4.682   7.778   3.608 -0.1286 -0.0612  0.3557
    4FIC     F2 1784   4.913   7.674   3.707  0.0291  0.1498  0.2095
    4FIC     O1 1785   4.527   7.383   3.271 -0.0163 -0.2304  0.5020
    4FIC     N5 1786   5.136   7.243   3.608  0.3358  0.3322  0.1035
    4FIC     N6 1787   4.969   6.956   3.324  0.3918  0.1574  0.2472
    4FIC    C19 1788   4.694   7.144   3.245  0.1744 -0.0891  0.4141
    4FIC    C20 1789   4.724   7.247   3.326  0.1397 -0.0548  0.3831
    4FIC    C21 1790   4.633   7.367   3.334  0.0410 -0.1322  0.4319
    4FIC    C22 1791   4.695   7.459   3.431  0.0266 -0.0688  0.3804
    4FIC    C23 1792   4.647   7.584   3.471 -0.0542 -0.1055  0.3995
    4FIC    C24 1793   4.723   7.654   3.564 -0.0513 -0.0302  0.3408
    4FIC    C25 1794   4.842   7.600   3.615  0.0301  0.0784  0.2656
    4FIC    C26 1795   4.890   7.476   3.575  0.1107  0.1158  0.2460
    4FIC    C27 1796   4.815   7.404   3.481  0.1093  0.0407  0.3047
    4FIC    C28 1797   4.837   7.271   3.418  0.1822  0.0534  0.3034
    4FIC    C29 1798   4.943   7.186   3.442  0.2716  0.1478  0.2403
    4FIC    C30 1799   5.049   7.218   3.533  0.3065  0.2489  0.1653
    4FIC    C31 1800   4.957   7.060   3.377  0.3371  0.1523  0.2444
    5FIC     F1 1801   2.819   7.015   3.306 -0.1517 -0.1007 -0.0733
    5FIC     F2 1802   2.640   7.129   3.136  0.0215  0.3889  0.0706
    5FIC     O1 1803   3.227   6.905   2.967 -0.3856 -0.4478 -0.2429
    5FIC     N5 1804   2.673   7.215   2.650  0.1037  0.8453  0.1566
    5FIC     N6 1805   3.027   7.106   2.419 -0.1140  0.4755 -0.0049
    5FIC    C19 1806   3.200   6.975   2.684 -0.3032 -0.1033 -0.1657
    5FIC    C20 1807   3.105   6.998   2.776 -0.2512 -0.0350 -0.1286
    5FIC    C21 1808   3.126   6.959   2.920 -0.2987 -0.2230 -0.1723
    5FIC    C22 1809   3.003   6.998   2.992 -0.2219 -0.0875 -0.1150
    5FIC    C23 1810   2.976   6.982   3.128 -0.2310 -0.1831 -0.1280
    5FIC    C24 1811   2.853   7.027   3.173 -0.1479 -0.0186 -0.0645
    5FIC    C25 1812   2.761   7.086   3.086 -0.0588  0.2336  0.0096
    5FIC    C26 1813   2.787   7.103   2.950 -0.0493  0.3303  0.0229
    5FIC    C27 1814   2.911   7.058   2.902 -0.1324  0.1665 -0.0406
    5FIC    C28 1815   2.970   7.060   2.766 -0.1470  0.2089 -0.0460
    5FIC    C29 1816   2.911   7.110   2.652 -0.0771  0.4314  0.0141
    5FIC    C30 1817   2.780   7.168   2.651  0.0220  0.6582  0.0922
    5FIC    C31 1818   2.975   7.108   2.525 -0.0978  0.4543  0.0033
    1BTD     S2 1819   6.825   5.085   8.762  0.3218 -0.2471  0.2110
    1BTD     N1 1820   6.718   5.229   8.764  0.4630 -0.1485  0.7076
    1BTD     N2 1821   6.713   4.982   8.858  0.2198 -0.4743 -0.1445
    1BTD     N3 1822   6.292   5.034   9.060  0.2667 -0.7594  0.0274
    1BTD     N4 1823   6.298   5.338   8.944  0.5664 -0.3581  1.0769
    1BTD     C5 1824   6.499   5.283   8.860  0.5133 -0.2627  0.8879
    1BTD     C6 1825   6.610   5.195   8.834  0.4284 -0.2830  0.5889
    1BTD     C7 1826   6.607   5.057   8.886  0.2924 -0.4655  0.1123
    1BTD     C8 1827   6.493   5.013   8.962  0.2480 -0.6182 -0.0422
    1BTD    C15 1828   6.387   5.102   8.985  0.3344 -0.5919  0.2628
    1BTD    C16 1829   6.389   5.235   8.935  0.4655 -0.4161  0.7223
    1BTD    C43 1830   6.253   5.399   9.083 -0.7924 -0.4448  1.0849
    1BTD    C44 1831   6.334   5.366   9.208  2.6752  0.8495  0.9927
    1BTD    C45 1832   6.243   5.441   9.307 -0.7845 -0.5913 -1.3104
    1BTD    C46 1833   6.310   5.439   9.453  1.3404  0.8995 -0.0326
    1BTD    C47 1834   6.477   5.405   9.188  0.4377 -1.2483  0.3396
    1BTD    C48 1835   6.568   5.388   9.307 -0.0837  0.0552  0.0180
    1BTD    C49 1836   6.707   5.446   9.282 -0.1120 -0.6380 -0.2281
    1BTD    C50 1837   6.820   5.421   9.379 -0.3493 -0.9892  0.2882
    1BTD    C75 1838   6.160   5.085   9.120 -0.0137 -0.1849  0.2549
    1BTD    C76 1839   6.052   5.103   9.004 -0.3587 -0.6872  0.1721
    1BTD    C77 1840   6.039   5.047   8.871 -0.1760  0.0044 -0.1351
    1BTD    C78 1841   6.042   4.888   8.867 -0.0556 -0.6529 -0.3979
    1BTD    C79 1842   5.934   5.147   9.084  0.1948 -1.0750  0.4275
    1BTD    C80 1843   5.816   5.237   9.024  0.2358  0.6969 -0.6572
    1BTD    C81 1844   5.835   5.379   9.008 -0.2564  1.1198  0.8305
    1BTD    C82 1845   5.693   5.440   9.008 -1.1206 -0.8044  0.6161
    2TTP     S1 1846   6.534   5.566   8.726  0.3868  0.6001 -0.0752
    2TTP     S5 1847   6.150   5.685   8.879 -0.1440 -0.0597 -0.8762
    2TTP     C1 1848   6.228   5.829   8.799 -0.0486  0.1771 -0.3667
    2TTP     C2 1849   6.351   5.801   8.747  0.1209  0.3946 -0.0889
    2TTP     C3 1850   6.388   5.664   8.769  0.1816  0.3823 -0.2692
    2TTP     C4 1851   6.456   5.422   8.806  0.2915  0.3632 -0.5851
    2TTP    C17 1852   6.333   5.451   8.858  0.1218  0.1457 -0.8625
    2TTP    C18 1853   6.296   5.587   8.837  0.0613  0.1580 -0.6824
    2TTP    C32 1854   6.442   5.909   8.662 -0.1721  1.1604 -0.1153
    2TTP    C33 1855   6.587   5.880   8.692  0.6573  0.0348  1.3136
    2TTP    C34 1856   6.666   5.961   8.795  0.3281 -0.0509 -1.1334
    2TTP    C35 1857   6.624   5.939   8.949 -0.0480 -0.8841 -1.1250
    2TTP    C36 1858   6.645   5.810   9.006 -0.0000  1.3243 -0.7604
    2TTP    C37 1859   6.793   5.762   9.020 -1.2634  0.0481  0.9009
    2TTP    C38 1860   6.847   5.622   8.964  1.5600 -0.1217 -1.3118
    2TTP    C39 1861   6.994   5.608   8.983  0.6106 -0.0248 -1.3424
    2TTP    C40 1862   7.044   5.490   9.061 -0.8095  0.2544  0.2278
    2TTP    C41 1863   7.027   5.352   9.009  0.0789  0.8604 -0.2541
    2TTP    C42 1864   7.053   5.323   8.857 -0.2524 -0.6784 -0.1565
    3TTP     S1 1865   6.559   4.769   9.139 -0.3422 -0.3042  0.5565
    3TTP     S5 1866   6.179   4.806   9.337 -0.3977 -0.2034  0.4311
    3TTP     C1 1867   6.280   4.685   9.428 -0.5923 -0.4991  0.2609
    3TTP     C2 1868   6.404   4.667   9.373 -0.5867 -0.5476  0.2897
    3TTP     C3 1869   6.423   4.747   9.256 -0.4284 -0.3531  0.4470
    3TTP     C4 1870   6.458   4.889   9.048 -0.1476 -0.0083  0.7267
    3TTP    C17 1871   6.334   4.907   9.104 -0.1533  0.0402  0.6979
    3TTP    C18 1872   6.315   4.827   9.220 -0.3114 -0.1545  0.5405
    3TTP    C32 1873   6.520   4.584   9.420  0.6175 -0.2116 -1.3025
    3TTP    C33 1874   6.545   4.435   9.395 -0.0087 -0.7514 -1.0869
    3TTP    C34 1875   6.429   4.349   9.391  0.2294  0.2809  0.4274
    3TTP    C35 1876   6.410   4.282   9.245 -0.3444 -0.0241 -1.2260
    3TTP    C36 1877   6.270   4.215   9.244  0.5528  1.1516  0.0244
    3TTP    C37 1878   6.228   4.112   9.126 -0.2420 -0.1513 -1.3946
    3TTP    C38 1879   6.297   3.979   9.128  0.5384  0.2450 -1.4448
    3TTP    C39 1880   6.268   3.862   9.233  1.3018 -1.8361  0.9801
    3TTP    C40 1881   6.346   3.734   9.225  0.4520  1.2686  0.9073
    3TTP    C41 1882   6.271   3.619   9.290  0.0097  0.1322  0.8114
    3TTP    C42 1883   6.377   3.510   9.312 -1.0664  0.1952 -0.5478
    4FIC     F1 1884   5.451   6.101   8.875  0.0365 -0.0265 -0.0951
    4FIC     F2 1885   5.548   6.355   8.872  0.2804 -0.0937  1.0281
    4FIC     O1 1886   5.908   5.816   8.822 -0.1725 -0.2458 -0.7384
    4FIC     N5 1887   6.013   6.518   8.829  0.4820 -0.3474  2.1851
    4FIC     N6 1888   6.351   6.244   8.788  0.2693 -0.5053  1.4558
    4FIC    C19 1889   6.163   5.958   8.800 -0.0140 -0.3884  0.1066
    4FIC    C20 1890   6.044   6.020   8.813  0.0292 -0.3304  0.2244
    4FIC    C21 1891   5.918   5.940   8.824 -0.0583 -0.2590 -0.2327
    4FIC    C22 1892   5.808   6.038   8.838  0.0186 -0.2083  0.0381
    4FIC    C23 1893   5.672   6.011   8.851 -0.0210 -0.1353 -0.2155
    4FIC    C24 1894   5.587   6.120   8.862  0.0693 -0.0984  0.1280
    4FIC    C25 1895   5.637   6.251   8.860  0.1948 -0.1333  0.7067
    4FIC    C26 1896   5.772   6.278   8.847  0.2350 -0.2059  0.9625
    4FIC    C27 1897   5.860   6.169   8.836  0.1450 -0.2443  0.6218
    4FIC    C28 1898   6.008   6.164   8.821  0.1565 -0.3209  0.7591
    4FIC    C29 1899   6.093   6.271   8.815  0.2645 -0.3728  1.2822
    4FIC    C30 1900   6.049   6.406   8.823  0.3837 -0.3586  1.7767
    4FIC    C31 1901   6.235   6.256   8.800  0.2664 -0.4452  1.3747
    5FIC     F1 1902   5.599   4.719   9.887  0.1482 -0.0997  0.1523
    5FIC     F2 1903   5.714   4.550  10.066  0.1769  0.1147  0.3376
    5FIC     O1 1904   5.991   4.755   9.514  0.1311 -0.4613  0.0985
    5FIC     N5 1905   6.159   4.333  10.059  0.2061  0.1655  0.5653
    5FIC     N6 1906   6.441   4.395   9.732  0.1870 -0.1603  0.4864
    5FIC    C19 1907   6.240   4.606   9.554  0.1526 -0.3848  0.2565
    5FIC    C20 1908   6.137   4.604   9.640  0.1558 -0.3022  0.2627
    5FIC    C21 1909   6.012   4.683   9.613  0.1441 -0.3488  0.1786
    5FIC    C22 1910   5.921   4.658   9.726  0.1513 -0.2352  0.2096
    5FIC    C23 1911   5.793   4.710   9.746  0.1448 -0.2306  0.1562
    5FIC    C24 1912   5.726   4.672   9.861  0.1537 -0.1113  0.2008
    5FIC    C25 1913   5.786   4.585   9.953  0.1685 -0.0012  0.2964
    5FIC    C26 1914   5.913   4.533   9.935  0.1750 -0.0051  0.3500
    5FIC    C27 1915   5.983   4.570   9.819  0.1662 -0.1247  0.3059
    5FIC    C28 1916   6.118   4.533   9.769  0.1695 -0.1616  0.3424
    5FIC    C29 1917   6.207   4.450   9.831  0.1829 -0.0806  0.4325
    5FIC    C30 1918   6.180   4.386   9.956  0.1956  0.0542  0.5057
    5FIC    C31 1919   6.336   4.420   9.776  0.1850 -0.1249  0.4618
    1BTD     S2 1920   3.617   9.147   7.675  0.1219 -0.1638 -0.0147
    1BTD     N1 1921   3.734   9.095   7.801  0.4334 -0.2410 -0.3313
    1BTD     N2 1922   3.554   8.982   7.643 -0.3477 -0.0737  0.4222
    1BTD     N3 1923   3.636   8.549   7.807 -0.7423 -0.0298  0.7406
    1BTD     N4 1924   3.858   8.688   8.001  0.2203 -0.2358 -0.1879
    1BTD     C5 1925   3.796   8.881   7.903  0.3106 -0.2356 -0.2452
    1BTD     C6 1926   3.720   8.963   7.813  0.1843 -0.1979 -0.1067
    1BTD     C7 1927   3.620   8.900   7.724 -0.2530 -0.1044  0.3152
    1BTD     C8 1928   3.600   8.758   7.731 -0.5421 -0.0536  0.5772
    1BTD    C15 1929   3.676   8.681   7.821 -0.4045 -0.0931  0.4286
    1BTD    C16 1930   3.773   8.742   7.906  0.0168 -0.1834  0.0221
    1BTD    C43 1931   3.840   8.573   8.098  0.4310 -0.1592  0.3465
    1BTD    C44 1932   3.771   8.602   8.232  0.4387 -0.3201 -0.6084
    1BTD    C45 1933   3.716   8.484   8.307 -0.6242  0.7259  0.9495
    1BTD    C46 1934   3.785   8.345   8.313  0.4686  0.3235  0.1875
    1BTD    C47 1935   3.666   8.715   8.231 -0.4173 -0.1109  0.1116
    1BTD    C48 1936   3.643   8.797   8.359 -0.5164  1.0593  0.0456
    1BTD    C49 1937   3.526   8.880   8.360  0.5011 -2.0071 -1.5635
    1BTD    C50 1938   3.539   8.996   8.263 -0.1020 -0.8411  0.0015
    1BTD    C75 1939   3.707   8.426   7.838 -0.7618 -1.2919 -0.0662
    1BTD    C76 1940   3.624   8.306   7.891  0.6845 -1.1686  0.6927
    1BTD    C77 1941   3.530   8.330   8.006  1.6087  0.0786 -0.9636
    1BTD    C78 1942   3.419   8.228   8.026  0.5856 -0.4031  0.5215
    1BTD    C79 1943   3.701   8.167   7.908 -0.8342 -0.6758 -0.7279
    1BTD    C80 1944   3.854   8.149   7.943  0.3467  0.9633  0.4044
    1BTD    C81 1945   3.965   8.186   7.840 -1.0924  1.1163 -0.4302
    1BTD    C82 1946   3.975   8.135   7.700 -0.7040  0.6368  0.8540
    2TTP     S1 1947   3.968   9.072   8.066 -0.0963  0.2906  0.1834
    2TTP     S5 1948   4.117   8.737   8.290  0.1644 -0.1230 -0.6008
    2TTP     C1 1949   4.190   8.889   8.358  0.1237 -0.2328 -0.3082
    2TTP     C2 1950   4.149   9.002   8.293  0.0408 -0.1116 -0.0484
    2TTP     C3 1951   4.057   8.972   8.187  0.0066  0.0725 -0.0715
    2TTP     C4 1952   3.895   8.920   7.998 -0.0556  0.4008 -0.1093
    2TTP    C17 1953   3.937   8.808   8.063  0.0275  0.2796 -0.3690
    2TTP    C18 1954   4.028   8.837   8.169  0.0618  0.0954 -0.3455
    2TTP    C32 1955   4.178   9.145   8.355 -0.6847  0.3851  2.1196
    2TTP    C33 1956   4.052   9.199   8.436  1.1682  0.4287  1.2119
    2TTP    C34 1957   4.075   9.243   8.572 -0.2679 -0.7555  0.1867
    2TTP    C35 1958   3.945   9.297   8.628  0.5527  0.8504 -0.4381
    2TTP    C36 1959   3.960   9.320   8.783  0.3568  0.1419 -1.2356
    2TTP    C37 1960   3.826   9.360   8.848 -0.8955 -0.4624  0.1011
    2TTP    C38 1961   3.795   9.345   9.009  0.6649 -0.4778  0.9445
    2TTP    C39 1962   3.887   9.412   9.111  0.2972  0.1024 -0.2968
    2TTP    C40 1963   4.005   9.322   9.154  0.2003 -1.3584  0.7616
    2TTP    C41 1964   4.001   9.167   9.156  0.9160 -0.9225  0.7028
    2TTP    C42 1965   4.127   9.081   9.134 -1.3016  0.2247  0.3446
    3TTP     S1 1966   3.439   8.670   7.496  0.3635 -0.3293  0.5310
    3TTP     S5 1967   3.498   8.260   7.610 -0.7423 -0.6454 -0.0136
    3TTP     C1 1968   3.406   8.264   7.453 -0.5595 -0.1914 -0.1121
    3TTP     C2 1969   3.382   8.391   7.409 -0.2073 -0.0668  0.0502
    3TTP     C3 1970   3.436   8.490   7.497 -0.0690 -0.3257  0.2584
    3TTP     C4 1971   3.531   8.666   7.653  0.1807 -0.7832  0.6295
    3TTP    C17 1972   3.555   8.539   7.697 -0.1715 -0.9078  0.4673
    3TTP    C18 1973   3.501   8.441   7.609 -0.3098 -0.6490  0.2590
    3TTP    C32 1974   3.318   8.420   7.276  0.4827 -0.1245  1.1628
    3TTP    C33 1975   3.280   8.559   7.202 -0.4485  1.7006 -0.1001
    3TTP    C34 1976   3.183   8.572   7.091  1.0462 -0.1965 -0.2426
    3TTP    C35 1977   3.236   8.546   6.949 -0.0711 -0.1536 -0.4907
    3TTP    C36 1978   3.130   8.542   6.823 -0.9450  1.3388  0.1737
    3TTP    C37 1979   3.183   8.525   6.686 -1.2530  1.0961  1.1731
    3TTP    C38 1980   3.069   8.498   6.591 -0.4825 -0.1958  0.5132
    3TTP    C39 1981   3.093   8.568   6.456 -0.5867 -0.3932  1.3433
    3TTP    C40 1982   3.018   8.501   6.344 -0.0958  0.9671  0.0892
    3TTP    C41 1983   3.048   8.358   6.302  0.4366  0.5119  1.4815
    3TTP    C42 1984   3.027   8.245   6.385  0.4378  0.5674 -0.4846
    4FIC     F1 1985   4.224   8.425   9.033 -0.4057 -0.0024 -0.0203
    4FIC     F2 1986   4.439   8.572   9.114 -0.0812 -0.4699 -0.0257
    4FIC     O1 1987   4.107   8.668   8.563 -0.2891  0.6611  0.2902
    4FIC     N5 1988   4.664   8.955   8.896  0.4683 -0.6690  0.1867
    4FIC     N6 1989   4.528   9.115   8.512  0.4939 -0.0570  0.4303
    4FIC    C19 1990   4.270   8.893   8.474  0.0623  0.4497  0.3944
    4FIC    C20 1991   4.291   8.827   8.589  0.0204  0.3014  0.3171
    4FIC    C21 1992   4.203   8.712   8.628 -0.1632  0.4241  0.2670
    4FIC    C22 1993   4.253   8.662   8.757 -0.1634  0.2086  0.1860
    4FIC    C23 1994   4.204   8.557   8.833 -0.3040  0.2263  0.1192
    4FIC    C24 1995   4.268   8.529   8.953 -0.2725 -0.0050  0.0485
    4FIC    C25 1996   4.379   8.604   8.994 -0.1052 -0.2459  0.0458
    4FIC    C26 1997   4.429   8.710   8.919  0.0355 -0.2649  0.1123
    4FIC    C27 1998   4.365   8.740   8.798  0.0063 -0.0324  0.1841
    4FIC    C28 1999   4.392   8.844   8.696  0.1258  0.0148  0.2646
    4FIC    C29 2000   4.493   8.938   8.700  0.3009 -0.1714  0.2861
    4FIC    C30 2001   4.586   8.947   8.808  0.3923 -0.4444  0.2315
    4FIC    C31 2002   4.512   9.035   8.597  0.4060 -0.1075  0.3653
    5FIC     F1 2003   3.592   7.470   7.434 -0.4790 -0.2141  0.2648
    5FIC     F2 2004   3.352   7.421   7.314 -0.3139 -0.0364 -0.1409
    5FIC     O1 2005   3.572   8.009   7.485 -0.0172 -0.1636 -0.0794
    5FIC     N5 2006   2.994   7.734   7.177  0.2525  0.2553 -0.9688
    5FIC     N6 2007   3.027   8.165   7.241  0.5802  0.2589 -1.1561
    5FIC    C19 2008   3.336   8.153   7.388  0.3047  0.0240 -0.5889
    5FIC    C20 2009   3.351   8.020   7.380  0.1820  0.0045 -0.4865
    5FIC    C21 2010   3.475   7.953   7.432  0.0200 -0.0938 -0.2234
    5FIC    C22 2011   3.458   7.808   7.408 -0.0846 -0.0904 -0.1715
    5FIC    C23 2012   3.546   7.706   7.439 -0.2457 -0.1645  0.0483
    5FIC    C24 2013   3.508   7.576   7.406 -0.3198 -0.1443  0.0532
    5FIC    C25 2014   3.385   7.551   7.344 -0.2346 -0.0525 -0.1558
    5FIC    C26 2015   3.296   7.653   7.313 -0.0739  0.0217 -0.3757
    5FIC    C27 2016   3.333   7.785   7.345  0.0032  0.0025 -0.3843
    5FIC    C28 2017   3.262   7.914   7.326  0.1705  0.0645 -0.5864
    5FIC    C29 2018   3.138   7.931   7.268  0.2915  0.1594 -0.8208
    5FIC    C30 2019   3.060   7.823   7.218  0.2696  0.2118 -0.9015
    5FIC    C31 2020   3.078   8.060   7.253  0.4496  0.2136 -1.0039
    1BTD     S2 2021   5.861   1.033   8.695  0.0074 -0.2282 -0.0432
    1BTD     N1 2022   5.737   1.131   8.609 -0.4729 -0.9750 -0.2096
    1BTD     N2 2023   5.981   1.042   8.561  0.3281  0.8737  0.2959
    1BTD     N3 2024   6.001   1.236   8.134  0.1143  1.7709  0.6874
    1BTD     N4 2025   5.700   1.344   8.193 -0.8727 -0.5071  0.0641
    1BTD     C5 2026   5.721   1.241   8.391 -0.6698 -0.7032 -0.0591
    1BTD     C6 2027   5.788   1.163   8.491 -0.3747 -0.3945 -0.0138
    1BTD     C7 2028   5.925   1.113   8.465  0.0738  0.6403  0.2694
    1BTD     C8 2029   5.988   1.144   8.339  0.2046  1.3147  0.4928
    1BTD    C15 2030   5.918   1.221   8.244 -0.0954  0.9797  0.4388
    1BTD    C16 2031   5.786   1.269   8.269 -0.5276 -0.0173  0.1658
    1BTD    C43 2032   5.743   1.439   8.088 -0.5693  1.4080 -0.4558
    1BTD    C44 2033   5.790   1.579   8.137 -1.2628  0.4831 -0.1326
    1BTD    C45 2034   5.696   1.702   8.159  1.3207 -0.8118 -1.9062
    1BTD    C46 2035   5.658   1.798   8.056  0.0586  0.1425 -0.5103
    1BTD    C47 2036   5.929   1.614   8.077  0.1068  0.2588  0.8439
    1BTD    C48 2037   6.004   1.740   8.132 -0.5745  0.4871 -0.7938
    1BTD    C49 2038   6.100   1.714   8.242  0.0121  1.0523 -0.5353
    1BTD    C50 2039   6.226   1.807   8.237  0.2772  0.7888 -0.0499
    1BTD    C75 2040   5.987   1.269   7.987 -0.3265  0.7933  0.9364
    1BTD    C76 2041   5.977   1.162   7.871 -1.1177 -0.9376  0.7973
    1BTD    C77 2042   6.079   1.201   7.761  0.9223 -1.9003 -0.3220
    1BTD    C78 2043   6.063   1.330   7.667 -1.0173 -0.0309  0.1557
    1BTD    C79 2044   5.840   1.112   7.805  0.6084 -0.7131  0.1860
    1BTD    C80 2045   5.747   1.178   7.693 -0.8010  0.3200 -0.2228
    1BTD    C81 2046   5.628   1.268   7.730  0.1009 -0.8973  0.4968
    1BTD    C82 2047   5.520   1.262   7.830  0.9641  1.1190  0.5959
    2TTP     S1 2048   5.447   1.334   8.493 -0.0451  0.4071  0.3608
    2TTP     S5 2049   5.354   1.448   8.089 -0.5296 -0.2725  0.2759
    2TTP     C1 2050   5.206   1.473   8.192 -0.3534  0.0725  0.4518
    2TTP     C2 2051   5.226   1.439   8.323 -0.1934  0.3027  0.4888
    2TTP     C3 2052   5.359   1.392   8.346 -0.2041  0.2149  0.3788
    2TTP     C4 2053   5.595   1.309   8.390 -0.2211  0.0620  0.1845
    2TTP    C17 2054   5.575   1.343   8.260 -0.3813 -0.1682  0.1479
    2TTP    C18 2055   5.442   1.390   8.236 -0.3704 -0.0803  0.2575
    2TTP    C32 2056   5.113   1.444   8.433  0.5563 -0.4418  0.8634
    2TTP    C33 2057   5.128   1.424   8.589 -0.0232  0.2981  0.5991
    2TTP    C34 2058   5.158   1.533   8.681  0.3381  1.0154 -0.8448
    2TTP    C35 2059   5.255   1.641   8.661  0.9594 -0.6741 -0.9959
    2TTP    C36 2060   5.242   1.750   8.542 -0.5555  0.3835  0.5998
    2TTP    C37 2061   5.384   1.797   8.533 -1.3211 -0.5619 -0.1060
    2TTP    C38 2062   5.415   1.912   8.445  0.0229 -0.9144  0.7920
    2TTP    C39 2063   5.371   1.913   8.297  0.7179  0.5588 -1.2334
    2TTP    C40 2064   5.403   2.045   8.251 -0.9043 -1.0575  0.7209
    2TTP    C41 2065   5.305   2.156   8.298 -0.5185  0.0954 -0.6459
    2TTP    C42 2066   5.360   2.290   8.265 -0.2024 -0.8816 -0.4446
    3TTP     S1 2067   6.246   1.067   8.386 -0.4912 -0.2611 -0.2655
    3TTP     S5 2068   6.356   1.316   8.052 -0.2671  0.6556  0.4847
    3TTP     C1 2069   6.501   1.297   8.161 -0.2697  0.1552  0.4048
    3TTP     C2 2070   6.476   1.219   8.270 -0.3393 -0.1574  0.1683
    3TTP     C3 2071   6.341   1.171   8.272 -0.3926 -0.0129  0.0420
    3TTP     C4 2072   6.102   1.086   8.277 -0.4884  0.2393 -0.1857
    3TTP    C17 2073   6.127   1.164   8.168 -0.4191  0.5519  0.0506
    3TTP    C18 2074   6.262   1.212   8.166 -0.3656  0.4075  0.1774
    3TTP    C32 2075   6.570   1.194   8.389  0.8900 -0.8298 -0.1901
    3TTP    C33 2076   6.527   1.284   8.509 -1.2358  1.0188  1.4700
    3TTP    C34 2077   6.535   1.431   8.506  0.0523 -0.8725  0.5441
    3TTP    C35 2078   6.669   1.508   8.480  0.8576  0.0085 -0.0463
    3TTP    C36 2079   6.782   1.454   8.560 -0.2578 -0.4936 -1.2380
    3TTP    C37 2080   6.757   1.435   8.728  0.9167 -1.8307  1.1079
    3TTP    C38 2081   6.830   1.320   8.778  0.2006  0.6141  0.6494
    3TTP    C39 2082   6.760   1.173   8.764 -0.4233 -1.0232 -0.7650
    3TTP    C40 2083   6.631   1.153   8.833  0.1539 -1.8452 -0.4990
    3TTP    C41 2084   6.561   1.027   8.797  0.9380 -0.6768  0.1634
    3TTP    C42 2085   6.503   0.932   8.902  2.0165  0.6665  0.4838
    4FIC     F1 2086   5.114   2.072   7.650  0.3514  0.1322  0.4015
    4FIC     F2 2087   4.845   2.065   7.688  0.1929 -0.7371 -0.7929
    4FIC     O1 2088   5.278   1.697   8.003 -0.0240  0.4630  0.9298
    4FIC     N5 2089   4.574   1.785   7.994 -0.3027 -1.7513 -2.1341
    4FIC     N6 2090   4.757   1.494   8.263 -0.5637 -1.3176 -1.4806
    4FIC    C19 2091   5.079   1.556   8.165 -0.3087 -0.2501 -0.0237
    4FIC    C20 2092   5.048   1.651   8.075 -0.2080 -0.2993 -0.1099
    4FIC    C21 2093   5.156   1.719   7.995 -0.0641  0.0830  0.4026
    4FIC    C22 2094   5.089   1.815   7.907  0.0186 -0.0835  0.1547
    4FIC    C23 2095   5.147   1.902   7.815  0.1582  0.1499  0.4591
    4FIC    C24 2096   5.063   1.985   7.743  0.2139 -0.0785  0.1288
    4FIC    C25 2097   4.924   1.980   7.762  0.1322 -0.5264 -0.4867
    4FIC    C26 2098   4.865   1.894   7.854 -0.0070 -0.7613 -0.7931
    4FIC    C27 2099   4.949   1.810   7.928 -0.0654 -0.5357 -0.4663
    4FIC    C28 2100   4.918   1.708   8.032 -0.2083 -0.6861 -0.6535
    4FIC    C29 2101   4.794   1.675   8.079 -0.3188 -1.1041 -1.2219
    4FIC    C30 2102   4.673   1.736   8.032 -0.3096 -1.4585 -1.7214
    4FIC    C31 2103   4.774   1.575   8.180 -0.4531 -1.2191 -1.3609
    5FIC     F1 2104   6.793   1.956   7.792  0.6464  0.1802  0.1342
    5FIC     F2 2105   7.043   1.851   7.812  0.4741 -0.3729 -0.5338
    5FIC     O1 2106   6.501   1.573   8.040  0.4287  0.7209  0.7212
    5FIC     N5 2107   7.195   1.427   8.017  0.0710 -0.7826 -1.0762
    5FIC     N6 2108   6.917   1.149   8.206 -0.0641 -0.2486 -0.4830
    5FIC    C19 2109   6.637   1.336   8.146  0.1866  0.3846  0.2912
    5FIC    C20 2110   6.700   1.437   8.083  0.2483  0.2702  0.1695
    5FIC    C21 2111   6.624   1.555   8.031  0.3723  0.4571  0.4065
    5FIC    C22 2112   6.723   1.645   7.969  0.4128  0.2654  0.1925
    5FIC    C23 2113   6.699   1.767   7.907  0.5223  0.3405  0.2979
    5FIC    C24 2114   6.809   1.834   7.855  0.5403  0.1212  0.0477
    5FIC    C25 2115   6.938   1.780   7.865  0.4513 -0.1636 -0.2962
    5FIC    C26 2116   6.962   1.658   7.927  0.3420 -0.2400 -0.4032
    5FIC    C27 2117   6.852   1.589   7.980  0.3220 -0.0210 -0.1539
    5FIC    C28 2118   6.844   1.459   8.051  0.2176 -0.0293 -0.1817
    5FIC    C29 2119   6.948   1.375   8.081  0.1122 -0.2690 -0.4764
    5FIC    C30 2120   7.084   1.404   8.046  0.0900 -0.5506 -0.8054
    5FIC    C31 2121   6.930   1.251   8.150  0.0157 -0.2564 -0.4783
    1BTD     S2 2122   3.234   2.127   6.460  0.3827 -0.0551 -0.0502
    1BTD     N1 2123   3.405   2.076   6.480  0.2889 -0.3836 -0.0777
    1BTD     N2 2124   3.186   1.982   6.365  0.1457  0.1494 -0.2452
    1BTD     N3 2125   3.398   1.595   6.206 -0.5067 -0.0272 -0.6927
    1BTD     N4 2126   3.668   1.710   6.347 -0.3302 -0.6840 -0.4863
    1BTD     C5 2127   3.539   1.884   6.409 -0.0365 -0.5325 -0.2934
    1BTD     C6 2128   3.417   1.960   6.417  0.0958 -0.3269 -0.2234
    1BTD     C7 2129   3.294   1.907   6.353  0.0155 -0.0286 -0.3172
    1BTD     C8 2130   3.300   1.781   6.284 -0.1928  0.0493 -0.4764
    1BTD    C15 2131   3.421   1.710   6.278 -0.3166 -0.1592 -0.5401
    1BTD    C16 2132   3.539   1.761   6.340 -0.2394 -0.4466 -0.4497
    1BTD    C43 2133   3.762   1.671   6.224  0.9496 -1.6854 -0.6152
    1BTD    C44 2134   3.876   1.569   6.229  0.0970 -0.2650 -1.1901
    1BTD    C45 2135   3.998   1.579   6.133 -0.6393 -0.0835 -0.4292
    1BTD    C46 2136   3.967   1.522   5.999  0.3292 -0.5770 -0.5421
    1BTD    C47 2137   3.841   1.433   6.294  0.1076  0.3191 -1.1300
    1BTD    C48 2138   3.955   1.350   6.363  0.7145 -0.2307 -0.6947
    1BTD    C49 2139   4.066   1.279   6.296 -0.3765  1.0559 -0.1819
    1BTD    C50 2140   4.124   1.163   6.374 -0.7497  1.3488 -1.3969
    1BTD    C75 2141   3.494   1.510   6.141 -0.0077  0.2413  1.3583
    1BTD    C76 2142   3.490   1.363   6.099 -0.5554  0.5228  0.3986
    1BTD    C77 2143   3.452   1.246   6.195  0.1972  0.4102  0.0215
    1BTD    C78 2144   3.482   1.257   6.343  0.7063  0.9994  0.3613
    1BTD    C79 2145   3.615   1.316   6.026 -0.5693  0.2101  1.1441
    1BTD    C80 2146   3.581   1.215   5.908 -0.3666  0.0398 -0.6181
    1BTD    C81 2147   3.696   1.150   5.836 -0.1014 -1.3091 -0.3239
    1BTD    C82 2148   3.657   1.020   5.779 -0.7542  0.5039 -0.6454
    2TTP     S1 2149   3.756   1.982   6.602 -0.2032 -0.3639  0.0719
    2TTP     S5 2150   3.983   1.625   6.528 -0.0196 -0.1839 -0.2413
    2TTP     C1 2151   4.066   1.720   6.659 -0.1393 -0.3185 -0.0658
    2TTP     C2 2152   4.001   1.836   6.689 -0.2030 -0.3821  0.0411
    2TTP     C3 2153   3.883   1.854   6.610 -0.1596 -0.3266 -0.0114
    2TTP     C4 2154   3.673   1.887   6.471 -0.0834 -0.2292 -0.1035
    2TTP    C17 2155   3.738   1.771   6.440 -0.0196 -0.1657 -0.2105
    2TTP    C18 2156   3.856   1.753   6.519 -0.0631 -0.2211 -0.1580
    2TTP    C32 2157   4.055   1.946   6.794 -0.0580  0.1960  0.5891
    2TTP    C33 2158   3.989   1.979   6.929  0.4257 -0.2355  0.3459
    2TTP    C34 2159   3.856   1.917   6.960  0.5463 -0.1507 -0.2969
    2TTP    C35 2160   3.865   1.771   6.965  0.7633  0.2358  0.0310
    2TTP    C36 2161   3.873   1.692   7.085  0.1554  1.0602 -1.7409
    2TTP    C37 2162   4.014   1.645   7.125  0.6131  0.9013 -1.0817
    2TTP    C38 2163   4.070   1.507   7.136  0.1402  0.0727  0.4320
    2TTP    C39 2164   4.038   1.391   7.030  1.3417 -1.5532  0.8588
    2TTP    C40 2165   4.066   1.251   7.079  0.7203  0.3265  0.5617
    2TTP    C41 2166   4.208   1.222   7.114  0.3334  2.3260 -0.8676
    2TTP    C42 2167   4.246   1.076   7.119 -0.0400  1.2608  0.9260
    3TTP     S1 2168   3.057   1.763   6.127  0.3843  0.4291 -0.3539
    3TTP     S5 2169   3.209   1.416   5.923 -0.6219 -0.0951 -0.2272
    3TTP     C1 2170   3.052   1.464   5.845 -0.4004  0.4385 -0.3543
    3TTP     C2 2171   2.995   1.574   5.904 -0.0767  0.6318 -0.4008
    3TTP     C3 2172   3.075   1.624   6.012  0.0082  0.3655 -0.3377
    3TTP     C4 2173   3.214   1.714   6.204  0.1628 -0.1046 -0.2270
    3TTP    C17 2174   3.271   1.605   6.145 -0.1609 -0.2978 -0.1803
    3TTP    C18 2175   3.191   1.554   6.038 -0.2458 -0.0315 -0.2431
    3TTP    C32 2176   2.860   1.652   5.869 -1.3197  0.1909  1.0690
    3TTP    C33 2177   2.912   1.783   5.793  0.3336 -0.2377  0.7934
    3TTP    C34 2178   2.981   1.772   5.659 -0.2539 -1.8918 -0.1671
    3TTP    C35 2179   2.987   1.908   5.590  0.2103 -1.5878 -1.9506
    3TTP    C36 2180   2.864   1.971   5.514 -0.4735 -0.4938 -1.2266
    3TTP    C37 2181   2.900   2.120   5.480  0.5957 -0.2097  1.5135
    3TTP    C38 2182   2.775   2.198   5.434  0.8940 -0.0233 -0.7747
    3TTP    C39 2183   2.784   2.288   5.310  0.8147  0.4601  1.1854
    3TTP    C40 2184   2.653   2.329   5.253  0.5010  0.3438  0.6680
    3TTP    C41 2185   2.564   2.215   5.198 -0.1829  0.1902 -0.2720
    3TTP    C42 2186   2.414   2.221   5.201  0.1449  1.9397  0.5111
    4FIC     F1 2187   4.477   1.014   6.737  0.8364  0.1810 -0.7488
    4FIC     F2 2188   4.674   1.149   6.867  0.3396  0.4137 -0.2322
    4FIC     O1 2189   4.122   1.412   6.645  0.0288 -0.4818 -0.5292
    4FIC     N5 2190   4.704   1.628   6.989 -0.9501  0.2760  0.6670
    4FIC     N6 2191   4.387   1.912   6.891 -1.4809 -0.2888  0.7344
    4FIC    C19 2192   4.184   1.683   6.737 -0.7327 -0.4948  0.0425
    4FIC    C20 2193   4.266   1.577   6.755 -0.5100 -0.3372 -0.0330
    4FIC    C21 2194   4.227   1.441   6.705 -0.1218 -0.3417 -0.3310
    4FIC    C22 2195   4.338   1.350   6.741  0.0418 -0.1480 -0.3402
    4FIC    C23 2196   4.347   1.214   6.715  0.3970 -0.0828 -0.5716
    4FIC    C24 2197   4.461   1.149   6.759  0.4896  0.1070 -0.5291
    4FIC    C25 2198   4.563   1.219   6.826  0.2332  0.2266 -0.2627
    4FIC    C26 2199   4.554   1.355   6.852 -0.1216  0.1624 -0.0310
    4FIC    C27 2200   4.439   1.422   6.808 -0.2204 -0.0292 -0.0700
    4FIC    C28 2201   4.399   1.565   6.820 -0.5697 -0.1407  0.1295
    4FIC    C29 2202   4.471   1.666   6.879 -0.8878 -0.0744  0.4108
    4FIC    C30 2203   4.599   1.644   6.939 -0.9209  0.1181  0.5506
    4FIC    C31 2204   4.425   1.800   6.885 -1.2122 -0.1927  0.5872
    5FIC     F1 2205   3.138   0.755   5.435  0.5940 -0.1315 -0.0594
    5FIC     F2 2206   2.887   0.795   5.337  0.3858 -0.5078  0.3129
    5FIC     O1 2207   3.195   1.191   5.751  0.5579  0.1506 -0.4416
    5FIC     N5 2208   2.568   1.163   5.421  0.0606 -0.8478  0.5759
    5FIC     N6 2209   2.663   1.496   5.687  0.0743 -0.5515  0.2022
    5FIC    C19 2210   2.976   1.384   5.769  0.3461 -0.1088 -0.2216
    5FIC    C20 2211   2.972   1.273   5.694  0.3632 -0.1650 -0.1400
    5FIC    C21 2212   3.088   1.178   5.689  0.4746 -0.0232 -0.2627
    5FIC    C22 2213   3.050   1.069   5.598  0.4647 -0.1313 -0.1290
    5FIC    C23 2214   3.126   0.957   5.563  0.5463 -0.0612 -0.1756
    5FIC    C24 2215   3.068   0.867   5.475  0.5174 -0.1911 -0.0237
    5FIC    C25 2216   2.939   0.888   5.424  0.4099 -0.3849  0.1677
    5FIC    C26 2217   2.863   0.999   5.459  0.3281 -0.4559  0.2154
    5FIC    C27 2218   2.920   1.091   5.548  0.3558 -0.3265  0.0639
    5FIC    C28 2219   2.866   1.218   5.605  0.2893 -0.3549  0.0646
    5FIC    C29 2220   2.743   1.273   5.580  0.1800 -0.5248  0.2245
    5FIC    C30 2221   2.647   1.212   5.493  0.1147 -0.7018  0.4171
    5FIC    C31 2222   2.700   1.395   5.639  0.1225 -0.5385  0.2114
    1BTD     S2 2223   0.559   5.377   3.498  0.0708 -0.0200  0.1051
    1BTD     N1 2224   0.637   5.426   3.652 -0.0995  0.2730  0.0997
    1BTD     N2 2225   0.403   5.330   3.575  0.1899 -0.4350  0.0943
    1BTD     N3 2226   0.228   5.321   4.010  0.1250 -0.7517  0.0626
    1BTD     N4 2227   0.515   5.440   4.105 -0.2315  0.1206  0.0691
    1BTD     C5 2228   0.570   5.432   3.888 -0.1641  0.1830  0.0837
    1BTD     C6 2229   0.548   5.406   3.748 -0.0608  0.0575  0.0907
    1BTD     C7 2230   0.417   5.352   3.705  0.1012 -0.3388  0.0876
    1BTD     C8 2231   0.315   5.327   3.803  0.1517 -0.5898  0.0778
    1BTD    C15 2232   0.341   5.354   3.938  0.0466 -0.4546  0.0712
    1BTD    C16 2233   0.467   5.406   3.980 -0.1095 -0.0729  0.0742
    1BTD    C43 2234   0.444   5.515   4.214 -0.6682  0.4204 -0.4663
    1BTD    C44 2235   0.439   5.488   4.360 -2.2909  1.0840  0.2648
    1BTD    C45 2236   0.477   5.607   4.444  0.6398 -0.4947  0.0661
    1BTD    C46 2237   0.490   5.596   4.600  0.3672  0.0118  1.1892
    1BTD    C47 2238   0.463   5.339   4.415  0.3049  0.3207  1.1678
    1BTD    C48 2239   0.510   5.214   4.333  0.3596  1.0014 -0.2781
    1BTD    C49 2240   0.652   5.156   4.360 -0.1738  0.7863 -0.3172
    1BTD    C50 2241   0.634   5.000   4.351  0.3007  0.3906  0.9432
    1BTD    C75 2242   0.199   5.321   4.156 -0.6419  0.2410  0.3069
    1BTD    C76 2243   0.074   5.397   4.203 -0.1592 -0.3084 -0.8330
    1BTD    C77 2244   0.023   5.533   4.149  0.0648  0.0994  1.0903
    1BTD    C78 2245   0.118   5.653   4.147 -0.1190  1.3747  1.6930
    1BTD    C79 2246  -0.010   5.309   4.311 -1.3591 -0.4225 -1.7187
    1BTD    C80 2247  -0.045   5.347   4.459 -2.3308 -1.9865  1.3195
    1BTD    C81 2248   0.057   5.436   4.540  0.9046 -0.5693  1.2780
    1BTD    C82 2249   0.116   5.352   4.654 -0.7668 -0.3840  0.1665
    2TTP     S1 2250   0.853   5.524   3.912 -0.3072 -0.0281 -0.1924
    2TTP     S5 2251   0.806   5.490   4.338 -0.2794 -0.4326 -0.2204
    2TTP     C1 2252   0.983   5.515   4.301 -0.2615 -0.5599 -0.2191
    2TTP     C2 2253   1.008   5.526   4.167 -0.2691 -0.4424 -0.2103
    2TTP     C3 2254   0.888   5.517   4.089 -0.2893 -0.2477 -0.2044
    2TTP     C4 2255   0.677   5.500   3.949 -0.3251  0.0992 -0.1938
    2TTP    C17 2256   0.652   5.488   4.083 -0.3176 -0.0185 -0.2025
    2TTP    C18 2257   0.771   5.498   4.161 -0.2974 -0.2129 -0.2084
    2TTP    C32 2258   1.134   5.580   4.102 -0.2831 -0.6230  0.0351
    2TTP    C33 2259   1.168   5.734   4.069 -1.0486  0.9632 -0.3911
    2TTP    C34 2260   1.146   5.827   4.177 -0.0774 -0.3939 -1.0295
    2TTP    C35 2261   1.170   5.972   4.155 -0.8492  0.0844 -0.2160
    2TTP    C36 2262   1.158   6.065   4.283 -0.9315  0.6067 -0.2530
    2TTP    C37 2263   1.201   6.199   4.251  0.4907 -1.4873 -2.2719
    2TTP    C38 2264   1.167   6.287   4.359  0.0189 -0.0157  0.1598
    2TTP    C39 2265   1.245   6.295   4.486  0.6805 -0.3393  0.5745
    2TTP    C40 2266   1.229   6.423   4.560  0.2599  0.2479  0.0910
    2TTP    C41 2267   1.235   6.394   4.721 -0.3706 -0.4707  1.3703
    2TTP    C42 2268   1.211   6.514   4.807 -0.9427  0.3728  0.5642
    3TTP     S1 2269   0.067   5.220   3.653  0.2364 -0.0756 -0.1340
    3TTP     S5 2270  -0.136   5.202   4.032  0.1850 -0.4463 -0.1780
    3TTP     C1 2271  -0.250   5.145   3.902  0.0086  0.2308 -0.3299
    3TTP     C2 2272  -0.194   5.147   3.778  0.0143  0.3853 -0.3253
    3TTP     C3 2273  -0.059   5.194   3.780  0.1576 -0.0257 -0.2015
    3TTP     C4 2274   0.181   5.277   3.783  0.4127 -0.7529  0.0179
    3TTP    C17 2275   0.125   5.275   3.908  0.4072 -0.9072  0.0133
    3TTP    C18 2276  -0.010   5.228   3.905  0.2636 -0.4964 -0.1104
    3TTP    C32 2277  -0.241   5.100   3.639 -0.7548  0.4704 -0.2390
    3TTP    C33 2278  -0.268   5.201   3.512  0.0662  0.3109  0.5289
    3TTP    C34 2279  -0.345   5.328   3.561 -0.7801  0.9080  0.7386
    3TTP    C35 2280  -0.432   5.413   3.454 -0.4468 -0.1455  0.6213
    3TTP    C36 2281  -0.367   5.533   3.406 -0.7447 -1.6095  0.0975
    3TTP    C37 2282  -0.322   5.644   3.513  0.7222  1.4329 -0.3349
    3TTP    C38 2283  -0.292   5.758   3.427  0.6002 -0.3394 -0.0724
    3TTP    C39 2284  -0.248   5.893   3.489 -0.8057  1.9116 -0.4051
    3TTP    C40 2285  -0.336   5.949   3.597 -1.7747 -0.5731 -0.2413
    3TTP    C41 2286  -0.462   6.029   3.578  0.0770  1.3158  0.2304
    3TTP    C42 2287  -0.486   6.088   3.445  0.0952 -0.0265 -0.2956
    4FIC     F1 2288   0.920   5.801   5.056  0.2040 -0.0330 -0.4561
    4FIC     F2 2289   1.141   5.659   5.126 -0.3682 -0.8364 -0.2514
    4FIC     O1 2290   0.889   5.691   4.527  0.7303  0.7018 -0.6422
    4FIC     N5 2291   1.437   5.376   4.849 -0.8156 -1.4682 -0.0896
    4FIC     N6 2292   1.369   5.318   4.421 -0.2889 -0.7322 -0.2763
    4FIC    C19 2293   1.090   5.516   4.405  0.3707  0.1948 -0.5129
    4FIC    C20 2294   1.089   5.549   4.536  0.2607  0.0414 -0.4739
    4FIC    C21 2295   0.982   5.640   4.591  0.4596  0.3217 -0.5455
    4FIC    C22 2296   1.011   5.655   4.735  0.2699  0.0566 -0.4780
    4FIC    C23 2297   0.939   5.730   4.828  0.3549  0.1769 -0.5090
    4FIC    C24 2298   0.985   5.729   4.959  0.1354 -0.1302 -0.4310
    4FIC    C25 2299   1.099   5.656   4.994 -0.1592 -0.5438 -0.3256
    4FIC    C26 2300   1.171   5.581   4.902 -0.2455 -0.6664 -0.2942
    4FIC    C27 2301   1.126   5.580   4.769 -0.0265 -0.3598 -0.3721
    4FIC    C28 2302   1.179   5.512   4.648 -0.0439 -0.3854 -0.3654
    4FIC    C29 2303   1.289   5.431   4.642 -0.2944 -0.7378 -0.2756
    4FIC    C30 2304   1.370   5.401   4.755 -0.5801 -1.1381 -0.1737
    4FIC    C31 2305   1.333   5.369   4.520 -0.2899 -0.7327 -0.2766
    5FIC     F1 2306  -0.785   5.151   4.526 -0.3760  0.4439 -0.0881
    5FIC     F2 2307  -0.896   4.925   4.422 -0.2854  0.3847 -0.0556
    5FIC     O1 2308  -0.405   5.258   4.155  0.1540  0.0569  0.3392
    5FIC     N5 2309  -0.784   4.677   4.009  0.2227  0.0241  0.2954
    5FIC     N6 2310  -0.465   4.806   3.740  0.6182 -0.2666  0.6226
    5FIC    C19 2311  -0.376   5.081   3.924  0.4287 -0.1370  0.5218
    5FIC    C20 2312  -0.467   5.062   4.021  0.2921 -0.0374  0.4131
    5FIC    C21 2313  -0.476   5.158   4.137  0.1559  0.0584  0.3240
    5FIC    C22 2314  -0.585   5.109   4.224  0.0269  0.1533  0.2161
    5FIC    C23 2315  -0.630   5.165   4.343 -0.1230  0.2604  0.1094
    5FIC    C24 2316  -0.735   5.101   4.407 -0.2258  0.3366  0.0197
    5FIC    C25 2317  -0.792   4.985   4.354 -0.1790  0.3058  0.0366
    5FIC    C26 2318  -0.747   4.928   4.235 -0.0296  0.1993  0.1426
    5FIC    C27 2319  -0.641   4.992   4.168  0.0761  0.1210  0.2346
    5FIC    C28 2320  -0.571   4.958   4.042  0.2408  0.0026  0.3564
    5FIC    C29 2321  -0.598   4.852   3.959  0.3295 -0.0583  0.4069
    5FIC    C30 2322  -0.700   4.756   3.987  0.2699 -0.0128  0.3453
    5FIC    C31 2323  -0.525   4.827   3.839  0.4878 -0.1725  0.5253
    1BTD     S2 2324   6.683   0.688   2.995 -0.3454  0.0615 -0.2921
    1BTD     N1 2325   6.538   0.659   3.096 -0.3991  0.0044 -0.3855
    1BTD     N2 2326   6.769   0.539   3.049 -0.1460  0.3051  0.0736
    1BTD     N3 2327   6.679   0.183   3.342  0.1633  0.6982  0.6500
    1BTD     N4 2328   6.394   0.331   3.400 -0.1485  0.3276  0.0845
    1BTD     C5 2329   6.466   0.486   3.254 -0.2644  0.1776 -0.1333
    1BTD     C6 2330   6.559   0.545   3.162 -0.2722  0.1616 -0.1514
    1BTD     C7 2331   6.688   0.478   3.136 -0.1305  0.3300  0.1056
    1BTD     C8 2332   6.718   0.355   3.203  0.0118  0.5059  0.3678
    1BTD    C15 2333   6.625   0.300   3.293  0.0138  0.5149  0.3755
    1BTD    C16 2334   6.500   0.365   3.318 -0.1227  0.3527  0.1279
    1BTD    C43 2335   6.347   0.186   3.429 -2.3042 -0.6923 -0.8473
    1BTD    C44 2336   6.230   0.135   3.348  0.0914 -0.2548 -1.0985
    1BTD    C45 2337   6.274   0.100   3.212 -0.6156  0.1229 -0.4116
    1BTD    C46 2338   6.201   0.197   3.114  0.8168  1.0385  0.6157
    1BTD    C47 2339   6.216  -0.007   3.415  1.1489 -1.0843 -0.3155
    1BTD    C48 2340   6.094  -0.092   3.388 -0.4609 -1.7190 -0.0855
    1BTD    C49 2341   6.117  -0.241   3.359 -0.3452 -0.6768 -0.2222
    1BTD    C50 2342   5.984  -0.320   3.370 -0.1863  0.3425 -1.4581
    1BTD    C75 2343   6.660   0.149   3.480  0.5494 -0.1566  0.0189
    1BTD    C76 2344   6.700   0.038   3.574 -1.3610 -1.2034  0.2266
    1BTD    C77 2345   6.585  -0.044   3.619  0.0055 -1.6261  0.7383
    1BTD    C78 2346   6.598  -0.171   3.691  0.1773 -0.6328 -0.8063
    1BTD    C79 2347   6.805   0.072   3.679  0.1344 -0.4890 -0.2796
    1BTD    C80 2348   6.773   0.136   3.816  0.5201 -1.0345  0.7124
    1BTD    C81 2349   6.855   0.266   3.823  1.0146  0.9089  0.6614
    1BTD    C82 2350   6.857   0.318   3.967  0.1843 -0.6542 -0.0615
    2TTP     S1 2351   6.253   0.683   3.306 -0.0346  0.0240 -0.2362
    2TTP     S5 2352   6.066   0.397   3.567  0.7229 -0.0474  0.2364
    2TTP     C1 2353   5.964   0.547   3.563  0.4240 -0.2506  0.1394
    2TTP     C2 2354   6.016   0.645   3.483  0.1729 -0.2406 -0.0122
    2TTP     C3 2355   6.138   0.604   3.421  0.2068 -0.0720 -0.0573
    2TTP     C4 2356   6.355   0.533   3.310  0.2640  0.2272 -0.1392
    2TTP    C17 2357   6.304   0.435   3.391  0.5155  0.2172  0.0125
    2TTP    C18 2358   6.181   0.476   3.453  0.4814  0.0486  0.0575
    2TTP    C32 2359   5.942   0.772   3.442  0.1329 -0.4344 -0.3323
    2TTP    C33 2360   5.971   0.913   3.493  0.4795 -0.3726 -0.9847
    2TTP    C34 2361   5.927   0.922   3.640 -0.4076 -0.4119 -0.9596
    2TTP    C35 2362   5.783   0.990   3.674 -0.0121 -0.1090  0.7950
    2TTP    C36 2363   5.780   1.137   3.695 -0.1279 -0.0021  0.2881
    2TTP    C37 2364   5.731   1.171   3.841 -0.4774  0.3937  0.4812
    2TTP    C38 2365   5.833   1.115   3.931 -0.8893 -0.3429  0.1588
    2TTP    C39 2366   5.862   1.188   4.068 -0.5671  0.9522 -0.2756
    2TTP    C40 2367   5.965   1.108   4.148  0.7693 -0.1370 -0.5146
    2TTP    C41 2368   5.985   1.128   4.308  0.6937 -0.3499 -0.0810
    2TTP    C42 2369   6.031   1.004   4.380  0.2793  0.5516  0.0120
    3TTP     S1 2370   6.974   0.234   3.096  0.1743  0.2600  0.0358
    3TTP     S5 2371   6.884  -0.128   3.311 -0.2927 -0.1142 -0.7824
    3TTP     C1 2372   7.033  -0.156   3.210 -0.6660 -0.2709 -1.2992
    3TTP     C2 2373   7.069  -0.046   3.138 -0.5436 -0.1643 -1.0770
    3TTP     C3 2374   6.981   0.064   3.159 -0.1509  0.0446 -0.4905
    3TTP     C4 2375   6.825   0.261   3.197  0.5474  0.4165  0.5528
    3TTP    C17 2376   6.788   0.151   3.269  0.4252  0.3101  0.3305
    3TTP    C18 2377   6.877   0.041   3.247  0.0324  0.1012 -0.2559
    3TTP    C32 2378   7.193  -0.034   3.050  0.6876 -0.3990  1.0375
    3TTP    C33 2379   7.196   0.047   2.919 -0.6444  0.1358  0.1869
    3TTP    C34 2380   7.109  -0.005   2.809 -1.5746  0.0737  0.9773
    3TTP    C35 2381   7.177  -0.105   2.716  0.6693 -0.3161  0.1266
    3TTP    C36 2382   7.268  -0.033   2.610 -0.0056 -0.2742  0.5122
    3TTP    C37 2383   7.341  -0.137   2.522 -0.0633 -0.3428  0.6527
    3TTP    C38 2384   7.279  -0.151   2.377 -0.8435 -0.1089 -0.0922
    3TTP    C39 2385   7.306  -0.292   2.330 -1.4873  0.8896  1.1910
    3TTP    C40 2386   7.200  -0.396   2.351  0.4164  0.1988  1.1284
    3TTP    C41 2387   7.216  -0.549   2.336 -0.2884  0.7003  0.9149
    3TTP    C42 2388   7.233  -0.626   2.205  1.6703  0.6393 -0.3492
    4FIC     F1 2389   5.829   0.288   4.334 -0.4168  0.0298  0.0455
    4FIC     F2 2390   5.584   0.406   4.325  0.0207  0.9853  0.2884
    4FIC     O1 2391   6.018   0.409   3.842 -0.3321 -0.4849 -0.0488
    4FIC     N5 2392   5.366   0.660   3.961  0.7101  1.9923  0.5701
    4FIC     N6 2393   5.563   0.730   3.578  0.6881  1.3975  0.4474
    4FIC    C19 2394   5.851   0.563   3.658  0.1159  0.2452  0.1496
    4FIC    C20 2395   5.813   0.528   3.782  0.0774  0.3374  0.1639
    4FIC    C21 2396   5.905   0.449   3.871 -0.1578 -0.0571  0.0575
    4FIC    C22 2397   5.833   0.428   3.998 -0.1391  0.1651  0.1045
    4FIC    C23 2398   5.877   0.360   4.111 -0.3124 -0.0579  0.0397
    4FIC    C24 2399   5.791   0.354   4.219 -0.2538  0.2270  0.1040
    4FIC    C25 2400   5.665   0.415   4.214 -0.0282  0.7192  0.2290
    4FIC    C26 2401   5.620   0.483   4.102  0.1457  0.9441  0.2942
    4FIC    C27 2402   5.705   0.490   3.991  0.0895  0.6616  0.2307
    4FIC    C28 2403   5.688   0.554   3.858  0.2315  0.7870  0.2723
    4FIC    C29 2404   5.578   0.623   3.815  0.4618  1.2344  0.3888
    4FIC    C30 2405   5.462   0.643   3.895  0.5975  1.6496  0.4880
    4FIC    C31 2406   5.570   0.682   3.684  0.5848  1.3216  0.4204
    5FIC     F1 2407   6.953  -0.962   3.328 -0.0956 -0.2732 -0.3529
    5FIC     F2 2408   7.220  -0.989   3.286  0.0254 -0.1023  0.2932
    5FIC     O1 2409   6.895  -0.426   3.277 -0.2890 -0.2909 -0.3285
    5FIC     N5 2410   7.564  -0.646   3.191  0.0614  0.1304  1.2396
    5FIC     N6 2411   7.465  -0.222   3.160 -0.1140  0.0818  1.1284
    5FIC    C19 2412   7.130  -0.261   3.220 -0.2421 -0.1346  0.2975
    5FIC    C20 2413   7.134  -0.395   3.234 -0.1981 -0.1364  0.2661
    5FIC    C21 2414   7.009  -0.473   3.264 -0.2263 -0.2196 -0.0640
    5FIC    C22 2415   7.049  -0.615   3.273 -0.1649 -0.1991 -0.0105
    5FIC    C23 2416   6.967  -0.724   3.299 -0.1644 -0.2553 -0.2441
    5FIC    C24 2417   7.028  -0.849   3.303 -0.0998 -0.2207 -0.1350
    5FIC    C25 2418   7.166  -0.863   3.281 -0.0375 -0.1329  0.1981
    5FIC    C26 2419   7.248  -0.754   3.256 -0.0374 -0.0765  0.4325
    5FIC    C27 2420   7.188  -0.627   3.251 -0.1025 -0.1099  0.3266
    5FIC    C28 2421   7.246  -0.492   3.226 -0.1205 -0.0679  0.5099
    5FIC    C29 2422   7.378  -0.464   3.201 -0.0740  0.0176  0.8419
    5FIC    C30 2423   7.480  -0.564   3.196  0.0004  0.0792  1.0594
    5FIC    C31 2424   7.425  -0.331   3.179 -0.0962  0.0527  0.9976
    1BTD     S2 2425   8.120   9.396   8.951 -0.2934 -0.2516  0.0167
    1BTD     N1 2426   8.195   9.328   8.802 -0.3364 -0.6683  0.1843
    1BTD     N2 2427   7.961   9.430   8.873 -0.1283  0.0761 -0.1833
    1BTD     N3 2428   7.772   9.376   8.447  0.1301 -0.0083 -0.2882
    1BTD     N4 2429   8.059   9.250   8.359 -0.1261 -0.9253  0.1652
    1BTD     C5 2430   8.120   9.288   8.572 -0.2234 -0.7913  0.1688
    1BTD     C6 2431   8.102   9.334   8.707 -0.2310 -0.5476  0.0877
    1BTD     C7 2432   7.971   9.391   8.747 -0.1146 -0.1314 -0.1185
    1BTD     C8 2433   7.866   9.400   8.650  0.0036  0.0207 -0.2327
    1BTD    C15 2434   7.889   9.355   8.518  0.0063 -0.2285 -0.1470
    1BTD    C16 2435   8.014   9.300   8.480 -0.1056 -0.6299  0.0512
    1BTD    C43 2436   7.983   9.209   8.236  0.6053 -0.2400  0.5772
    1BTD    C44 2437   7.897   9.084   8.201  0.6824  1.1963  0.8712
    1BTD    C45 2438   7.775   9.041   8.288  0.3493 -0.1937 -0.5342
    1BTD    C46 2439   7.784   9.012   8.443  1.5162  0.1592  0.6262
    1BTD    C47 2440   7.810   9.107   8.080 -0.5517 -0.1268 -0.7314
    1BTD    C48 2441   7.862   9.127   7.939 -0.3661  0.9479 -1.3902
    1BTD    C49 2442   7.857   9.261   7.895 -0.5870 -0.4960  0.0649
    1BTD    C50 2443   7.865   9.298   7.760  0.6377 -0.5615  0.3862
    1BTD    C75 2444   7.750   9.417   8.310 -0.2018  0.5844 -0.0482
    1BTD    C76 2445   7.794   9.557   8.264  0.3245  0.6191  0.2473
    1BTD    C77 2446   7.931   9.605   8.326 -0.6866  0.5557  0.1164
    1BTD    C78 2447   8.007   9.706   8.263 -0.7929 -0.7341 -0.0356
    1BTD    C79 2448   7.672   9.662   8.249 -0.1470  0.2798  0.9685
    1BTD    C80 2449   7.566   9.643   8.138  0.4444 -0.0173 -0.4016
    1BTD    C81 2450   7.614   9.567   8.014  0.2313  0.1170 -0.1854
    1BTD    C82 2451   7.711   9.652   7.932 -0.0906 -0.5781 -0.4422
    2TTP     S1 2452   8.406   9.213   8.516  0.1165 -0.4750 -0.0926
    2TTP     S5 2453   8.328   9.190   8.094  0.6375  0.5562 -0.2522
    2TTP     C1 2454   8.506   9.164   8.121  0.5311  0.0127 -0.0506
    2TTP     C2 2455   8.540   9.170   8.253  0.3643 -0.3378  0.0105
    2TTP     C3 2456   8.428   9.195   8.337  0.3140 -0.1898 -0.0999
    2TTP     C4 2457   8.228   9.239   8.488  0.2229  0.0687 -0.2942
    2TTP    C17 2458   8.193   9.234   8.356  0.3899  0.4191 -0.3555
    2TTP    C18 2459   8.306   9.209   8.272  0.4404  0.2708 -0.2453
    2TTP    C32 2460   8.684   9.137   8.294  0.7579  1.1115  1.3775
    2TTP    C33 2461   8.741   9.237   8.391 -0.0452  1.4463 -0.3171
    2TTP    C34 2462   8.858   9.220   8.482  0.1314 -2.0157 -0.2035
    2TTP    C35 2463   8.922   9.096   8.521 -0.0513  0.6125 -1.3788
    2TTP    C36 2464   9.031   9.147   8.609 -0.4260  0.6920 -0.0809
    2TTP    C37 2465   9.128   9.033   8.584  0.2483  0.3097 -0.1642
    2TTP    C38 2466   9.262   9.035   8.666  0.4824 -0.6719  0.7521
    2TTP    C39 2467   9.255   9.101   8.819 -0.0804 -0.4312 -0.2967
    2TTP    C40 2468   9.384   9.153   8.863 -0.5988 -0.8749  0.8027
    2TTP    C41 2469   9.495   9.060   8.893  0.4016  0.1733  0.0688
    2TTP    C42 2470   9.613   9.156   8.901  0.2093  0.2652 -0.8268
    3TTP     S1 2471   7.627   9.500   8.790  0.4224 -0.5038  0.1811
    3TTP     S5 2472   7.405   9.413   8.432 -0.3206  0.5932  0.3660
    3TTP     C1 2473   7.287   9.444   8.567 -0.0419  0.2369  0.6955
    3TTP     C2 2474   7.349   9.473   8.686  0.2041 -0.1230  0.6580
    3TTP     C3 2475   7.491   9.471   8.674  0.1811 -0.1299  0.3672
    3TTP     C4 2476   7.745   9.469   8.655  0.1438 -0.1471 -0.1485
    3TTP    C17 2477   7.683   9.440   8.536 -0.1023  0.2127 -0.1110
    3TTP    C18 2478   7.541   9.442   8.548 -0.0794  0.2198  0.1793
    3TTP    C32 2479   7.271   9.504   8.814  0.7129  0.3124  0.6029
    3TTP    C33 2480   7.207   9.642   8.794  0.0259  0.0280  0.4374
    3TTP    C34 2481   7.114   9.681   8.898  0.5696  0.5800 -0.2596
    3TTP    C35 2482   7.082   9.818   8.862  0.1885  0.6930  0.5691
    3TTP    C36 2483   6.938   9.841   8.940 -0.1348 -1.1578 -0.7421
    3TTP    C37 2484   6.848   9.967   8.918 -0.1925  0.4259  0.0106
    3TTP    C38 2485   6.878  10.044   8.795  0.4440  0.1012  0.0753
    3TTP    C39 2486   6.771  10.137   8.764 -0.0991 -1.2939 -0.0183
    3TTP    C40 2487   6.671  10.153   8.647  0.2941 -0.6870  0.7052
    3TTP    C41 2488   6.571  10.268   8.678  0.3728  1.1251 -0.5979
    3TTP    C42 2489   6.565  10.387   8.595  0.2633 -0.4628  0.0881
    4FIC     F1 2490   8.518   8.855   7.365  0.1318 -0.1884 -0.3916
    4FIC     F2 2491   8.761   8.972   7.329 -0.1731  0.4449 -0.4308
    4FIC     O1 2492   8.406   9.005   7.873 -0.1805 -0.4742 -0.3760
    4FIC     N5 2493   9.031   9.247   7.640 -0.8345  1.1513 -0.4753
    4FIC     N6 2494   8.894   9.340   8.045 -1.0171  0.8004 -0.4551
    4FIC    C19 2495   8.598   9.170   8.020 -0.5830  0.0291 -0.4073
    4FIC    C20 2496   8.617   9.127   7.893 -0.4926  0.0763 -0.4098
    4FIC    C21 2497   8.513   9.043   7.824 -0.2851 -0.1943 -0.3930
    4FIC    C22 2498   8.565   9.015   7.689 -0.2325 -0.0613 -0.4007
    4FIC    C23 2499   8.504   8.940   7.589 -0.0553 -0.2213 -0.3905
    4FIC    C24 2500   8.572   8.928   7.469 -0.0394 -0.0451 -0.4009
    4FIC    C25 2501   8.698   8.988   7.451 -0.1968  0.2809 -0.4209
    4FIC    C26 2502   8.759   9.062   7.550 -0.3741  0.4423 -0.4313
    4FIC    C27 2503   8.691   9.076   7.673 -0.3929  0.2677 -0.4210
    4FIC    C28 2504   8.728   9.148   7.797 -0.5589  0.3653 -0.4275
    4FIC    C29 2505   8.844   9.219   7.819 -0.7396  0.6661 -0.4460
    4FIC    C30 2506   8.946   9.234   7.721 -0.7911  0.9320 -0.4622
    4FIC    C31 2507   8.871   9.285   7.943 -0.8910  0.7381 -0.4511
    5FIC     F1 2508   6.820   9.382   7.900  0.3883  0.3865 -0.1864
    5FIC     F2 2509   6.620   9.280   8.055  0.3331  0.0532 -0.4742
    5FIC     O1 2510   7.198   9.480   8.275  0.0327  0.1450  0.2387
    5FIC     N5 2511   6.603   9.204   8.543  0.0000 -0.5984 -0.5848
    5FIC     N6 2512   6.939   9.302   8.805 -0.2667 -0.7198 -0.1945
    5FIC    C19 2513   7.142   9.418   8.555 -0.1465 -0.2592  0.1148
    5FIC    C20 2514   7.055   9.397   8.455 -0.0548 -0.1857  0.0191
    5FIC    C21 2515   7.091   9.432   8.313  0.0336  0.0241  0.0918
    5FIC    C22 2516   6.974   9.397   8.230  0.1208  0.0558 -0.0453
    5FIC    C23 2517   6.960   9.411   8.092  0.2196  0.2275 -0.0381
    5FIC    C24 2518   6.840   9.371   8.036  0.2894  0.2222 -0.1847
    5FIC    C25 2519   6.737   9.319   8.116  0.2607  0.0502 -0.3326
    5FIC    C26 2520   6.750   9.304   8.253  0.1625 -0.1216 -0.3407
    5FIC    C27 2521   6.871   9.344   8.312  0.0907 -0.1190 -0.1936
    5FIC    C28 2522   6.917   9.343   8.453 -0.0185 -0.2742 -0.1600
    5FIC    C29 2523   6.845   9.298   8.562 -0.0750 -0.4637 -0.2732
    5FIC    C30 2524   6.712   9.247   8.551 -0.0333 -0.5372 -0.4442
    5FIC    C31 2525   6.897   9.301   8.695 -0.1800 -0.6034 -0.2294
    1BTD     S2 2526   7.779   1.255   9.940  0.2092  0.7076 -0.1848
    1BTD     N1 2527   7.693   1.347   9.812 -0.0478  0.7626  0.0241
    1BTD     N2 2528   7.636   1.245  10.049  0.3328  0.3708 -0.0498
    1BTD     N3 2529   7.190   1.392  10.039  0.1206 -0.2159  0.6034
    1BTD     N4 2530   7.261   1.518   9.747 -0.3484  0.2668  0.6945
    1BTD     C5 2531   7.467   1.435   9.781 -0.1992  0.4979  0.3729
    1BTD     C6 2532   7.569   1.365   9.855 -0.0292  0.5387  0.1762
    1BTD     C7 2533   7.537   1.308   9.987  0.1838  0.3195  0.1347
    1BTD     C8 2534   7.404   1.324  10.040  0.2164  0.0703  0.2923
    1BTD    C15 2535   7.307   1.393   9.965  0.0453  0.0393  0.4825
    1BTD    C16 2536   7.338   1.448   9.837 -0.1598  0.2506  0.5228
    1BTD    C43 2537   7.142   1.606   9.770  0.1791 -0.0789 -1.8541
    1BTD    C44 2538   7.141   1.760   9.793 -0.1467 -0.2407 -1.2879
    1BTD    C45 2539   7.003   1.836   9.830 -0.9959  1.4355 -0.0152
    1BTD    C46 2540   6.885   1.822   9.736  0.5708  0.2670 -0.3171
    1BTD    C47 2541   7.233   1.836   9.689 -0.2360  0.3703 -0.4243
    1BTD    C48 2542   7.255   1.976   9.691  0.0825 -0.1392 -0.6762
    1BTD    C49 2543   7.372   2.036   9.600  0.0216 -0.9767  1.0586
    1BTD    C50 2544   7.495   1.951   9.576  0.3767 -0.4465  0.6470
    1BTD    C75 2545   7.053   1.390   9.976 -0.0846  0.0057 -0.2253
    1BTD    C76 2546   6.931   1.415  10.033  1.4733 -0.6489 -1.5345
    1BTD    C77 2547   6.830   1.337   9.934 -1.0187  0.1643 -0.3642
    1BTD    C78 2548   6.707   1.270   9.991  0.4082 -0.0539  0.8114
    1BTD    C79 2549   6.857   1.558  10.076  0.1675  0.1276  1.4715
    1BTD    C80 2550   6.959   1.672  10.109  0.6489  1.0515 -0.5899
    1BTD    C81 2551   6.915   1.798  10.184 -1.9443  0.1347 -1.6688
    1BTD    C82 2552   6.793   1.870  10.141  0.6868  0.5230  0.8282
    2TTP     S1 2553   7.573   1.503   9.499  0.0663 -0.3059 -0.3516
    2TTP     S5 2554   7.177   1.632   9.392  0.0844 -0.1174 -0.1934
    2TTP     C1 2555   7.284   1.647   9.246 -0.0269 -0.4129 -0.3069
    2TTP     C2 2556   7.413   1.608   9.270 -0.0389 -0.4886 -0.3626
    2TTP     C3 2557   7.431   1.565   9.405  0.0392 -0.3159 -0.3171
    2TTP     C4 2558   7.466   1.488   9.645  0.1773 -0.0104 -0.2384
    2TTP    C17 2559   7.337   1.527   9.621  0.1897  0.0653 -0.1828
    2TTP    C18 2560   7.319   1.570   9.486  0.1116 -0.1075 -0.2277
    2TTP    C32 2561   7.522   1.593   9.154 -0.0696  0.4546 -0.3267
    2TTP    C33 2562   7.635   1.490   9.154  1.1962  0.0805 -0.1476
    2TTP    C34 2563   7.761   1.513   9.064 -0.4513  2.0055 -0.7617
    2TTP    C35 2564   7.734   1.543   8.917  0.7430  0.4983 -0.7426
    2TTP    C36 2565   7.821   1.648   8.860 -0.8724 -0.0584  0.0649
    2TTP    C37 2566   7.962   1.636   8.787 -0.0423  0.4901  0.2224
    2TTP    C38 2567   8.029   1.498   8.749  1.1887 -1.4245  0.0673
    2TTP    C39 2568   8.110   1.435   8.862  0.8343  0.2081  0.2980
    2TTP    C40 2569   8.149   1.288   8.842  1.8586  0.1039 -0.3832
    2TTP    C41 2570   8.221   1.269   8.957 -0.4896  0.3212 -1.8796
    2TTP    C42 2571   8.304   1.162   8.936  0.4934  0.1973  1.4033
    3TTP     S1 2572   7.376   1.193  10.314 -0.1486 -0.3857  0.2755
    3TTP     S5 2573   6.982   1.360  10.355  0.0430  0.0831  0.2208
    3TTP     C1 2574   7.023   1.272  10.509  0.0539  0.3271  0.3594
    3TTP     C2 2575   7.147   1.215  10.505 -0.0048  0.1967  0.3846
    3TTP     C3 2576   7.214   1.239  10.381 -0.0603 -0.1006  0.2952
    3TTP     C4 2577   7.334   1.282  10.161 -0.1595 -0.6298  0.1369
    3TTP    C17 2578   7.210   1.338  10.164 -0.1010 -0.4994  0.1118
    3TTP    C18 2579   7.143   1.314  10.289 -0.0455 -0.2020  0.2012
    3TTP    C32 2580   7.210   1.157  10.635 -0.2117 -0.3787  0.9864
    3TTP    C33 2581   7.256   1.011  10.615 -0.4533 -0.4270 -0.9939
    3TTP    C34 2582   7.225   0.946  10.749 -0.3222  0.0443 -0.8449
    3TTP    C35 2583   7.337   0.908  10.845 -0.7177 -0.5695  0.0887
    3TTP    C36 2584   7.373   0.760  10.844 -0.0953 -0.0061  0.5209
    3TTP    C37 2585   7.471   0.721  10.957 -0.1680  0.6926 -0.4058
    3TTP    C38 2586   7.434   0.753  11.111 -0.5007  0.3568  0.9188
    3TTP    C39 2587   7.455   0.606  11.139  0.0015 -0.1049 -0.1533
    3TTP    C40 2588   7.542   0.570  11.258  1.2594 -0.1118 -1.0086
    3TTP    C41 2589   7.551   0.417  11.285 -0.2001  0.6096 -0.5041
    3TTP    C42 2590   7.443   0.358  11.389 -0.1613  0.6328  0.5916
    4FIC     F1 2591   6.571   1.789   8.859 -0.1305  0.7015 -0.3376
    4FIC     F2 2592   6.711   1.906   8.658  0.0641 -0.2623 -0.7763
    4FIC     O1 2593   6.972   1.643   9.192 -0.3232  0.7145 -0.0989
    4FIC     N5 2594   7.199   1.971   8.605  0.2062 -1.6389 -1.2372
    4FIC     N6 2595   7.484   1.833   8.906  0.0165 -1.4345 -0.9623
    4FIC    C19 2596   7.249   1.703   9.118 -0.2058 -0.2019 -0.4338
    4FIC    C20 2597   7.142   1.735   9.042 -0.1649 -0.1675 -0.4764
    4FIC    C21 2598   7.003   1.701   9.087 -0.2301  0.3167 -0.2954
    4FIC    C22 2599   6.912   1.750   8.982 -0.1621  0.2240 -0.3982
    4FIC    C23 2600   6.773   1.741   8.979 -0.1880  0.5616 -0.2964
    4FIC    C24 2601   6.708   1.794   8.869 -0.1102  0.3875 -0.4276
    4FIC    C25 2602   6.780   1.855   8.765 -0.0101 -0.1092 -0.6536
    4FIC    C26 2603   6.919   1.864   8.767  0.0161 -0.4480 -0.7565
    4FIC    C27 2604   6.987   1.810   8.878 -0.0615 -0.2788 -0.6261
    4FIC    C28 2605   7.131   1.804   8.911 -0.0591 -0.5391 -0.6833
    4FIC    C29 2606   7.235   1.852   8.834  0.0248 -1.0305 -0.8883
    4FIC    C30 2607   7.214   1.918   8.709  0.1245 -1.3633 -1.0793
    4FIC    C31 2608   7.371   1.842   8.874  0.0201 -1.2499 -0.9274
    5FIC     F1 2609   6.230   1.465  10.650  0.0517 -0.4741  0.3450
    5FIC     F2 2610   6.286   1.459  10.917  0.4249  0.3112  0.2887
    5FIC     O1 2611   6.712   1.332  10.441 -0.0945 -0.5378  0.0479
    5FIC     N5 2612   6.710   1.355  11.151  0.8569  1.3948 -0.0038
    5FIC     N6 2613   7.075   1.253  10.934  0.6676  1.1867 -0.2246
    5FIC    C19 2614   6.936   1.279  10.622  0.2099  0.1898 -0.1111
    5FIC    C20 2615   6.813   1.312  10.664  0.2321  0.1751 -0.0346
    5FIC    C21 2616   6.703   1.338  10.565  0.0688 -0.2103  0.0446
    5FIC    C22 2617   6.583   1.372  10.644  0.1413 -0.1209  0.1163
    5FIC    C23 2618   6.456   1.404  10.596  0.0422 -0.3841  0.2024
    5FIC    C24 2619   6.358   1.432  10.691  0.1411 -0.2304  0.2585
    5FIC    C25 2620   6.387   1.429  10.828  0.3333  0.1743  0.2300
    5FIC    C26 2621   6.514   1.398  10.876  0.4331  0.4385  0.1442
    5FIC    C27 2622   6.614   1.368  10.782  0.3353  0.2885  0.0861
    5FIC    C28 2623   6.757   1.332  10.800  0.3988  0.4865 -0.0079
    5FIC    C29 2624   6.824   1.318  10.919  0.5778  0.8827 -0.0603
    5FIC    C30 2625   6.761   1.339  11.046  0.7306  1.1629 -0.0288
    5FIC    C31 2626   6.962   1.282  10.926  0.6260  1.0477 -0.1502
    1BTD     S2 2627   2.958   3.629   4.149 -0.5364  0.0160  0.2287
    1BTD     N1 2628   3.028   3.621   4.314  0.1194 -0.0753 -0.0480
    1BTD     N2 2629   2.925   3.452   4.138 -1.0730  0.0957  0.4623
    1BTD     N3 2630   2.987   3.078   4.416 -0.9824  0.0930  0.4386
    1BTD     N4 2631   3.113   3.286   4.632  0.4868 -0.1177 -0.1903
    1BTD     C5 2632   3.071   3.444   4.478  0.2936 -0.0948 -0.1147
    1BTD     C6 2633   3.024   3.494   4.351 -0.0848 -0.0434  0.0430
    1BTD     C7 2634   2.967   3.399   4.253 -0.7523  0.0523  0.3289
    1BTD     C8 2635   2.959   3.259   4.286 -1.0080  0.0918  0.4423
    1BTD    C15 2636   3.006   3.215   4.411 -0.6199  0.0388  0.2802
    1BTD    C16 2637   3.061   3.306   4.506  0.0232 -0.0534  0.0048
    1BTD    C43 2638   3.032   3.188   4.711  0.8369  0.4192  0.0027
    1BTD    C44 2639   3.089   3.112   4.833 -0.9668  2.0844 -1.7963
    1BTD    C45 2640   3.227   3.034   4.802  0.2324  0.6237  0.1775
    1BTD    C46 2641   3.315   2.956   4.905 -0.3128  0.3427  0.2018
    1BTD    C47 2642   2.997   3.020   4.917  0.0602  0.2784 -0.2815
    1BTD    C48 2643   2.882   2.942   4.846 -0.2187  0.2327  0.0876
    1BTD    C49 2644   2.775   2.900   4.944  0.3188  0.1243  0.0483
    1BTD    C50 2645   2.805   2.788   5.057 -0.4411  0.3010  0.9185
    1BTD    C75 2646   3.069   2.976   4.487 -1.0286 -0.1587 -0.2422
    1BTD    C76 2647   3.168   2.879   4.411 -1.7184 -0.7246  0.5976
    1BTD    C77 2648   3.243   2.783   4.514  0.5076 -2.1137 -0.2954
    1BTD    C78 2649   3.396   2.797   4.541  0.4538 -0.0673 -0.0003
    1BTD    C79 2650   3.128   2.809   4.283 -0.2251 -1.0077 -0.1968
    1BTD    C80 2651   3.233   2.756   4.181 -0.8826  0.2015  0.4124
    1BTD    C81 2652   3.217   2.727   4.035  0.5396  0.2199  1.2307
    1BTD    C82 2653   3.343   2.739   3.960 -0.7313  1.4492  0.7403
    2TTP     S1 2654   3.166   3.671   4.670  0.4633  0.7200  0.5677
    2TTP     S5 2655   3.246   3.379   4.976  0.0361 -0.1496 -0.1397
    2TTP     C1 2656   3.287   3.544   5.041  0.3833 -0.3765  0.2263
    2TTP     C2 2657   3.265   3.644   4.950  0.5357 -0.1213  0.4665
    2TTP     C3 2658   3.214   3.594   4.826  0.3837  0.2626  0.3698
    2TTP     C4 2659   3.125   3.506   4.605  0.1161  0.9469  0.2015
    2TTP    C17 2660   3.147   3.406   4.696 -0.0363  0.6916 -0.0384
    2TTP    C18 2661   3.197   3.456   4.820  0.1157  0.3077  0.0581
    2TTP    C32 2662   3.325   3.787   4.956  1.5824 -1.8867  0.0109
    2TTP    C33 2663   3.234   3.904   5.013  0.2008  1.2345  0.7660
    2TTP    C34 2664   3.331   4.016   5.026  0.1802 -1.2571 -0.6963
    2TTP    C35 2665   3.262   4.123   5.116  0.2413  0.3420 -0.4850
    2TTP    C36 2666   3.331   4.252   5.104 -0.8410  0.2261  0.2017
    2TTP    C37 2667   3.463   4.249   5.188 -0.0742 -0.7205 -0.8641
    2TTP    C38 2668   3.540   4.357   5.133  0.1215 -0.3788  0.9231
    2TTP    C39 2669   3.610   4.456   5.231 -0.2865 -0.7675  1.1478
    2TTP    C40 2670   3.747   4.469   5.196 -0.2115 -0.4349 -0.0479
    2TTP    C41 2671   3.839   4.558   5.290  0.7305  0.2136 -1.0056
    2TTP    C42 2672   3.975   4.499   5.256  0.3194  1.1390  0.2061
    3TTP     S1 2673   2.790   3.119   4.080 -0.4136 -0.4603 -0.3735
    3TTP     S5 2674   2.774   2.776   4.338 -0.5182  0.2043  0.5140
    3TTP     C1 2675   2.671   2.743   4.192 -0.1443 -0.3303  0.3654
    3TTP     C2 2676   2.670   2.847   4.103 -0.0900 -0.5670  0.0824
    3TTP     C3 2677   2.751   2.957   4.148 -0.3417 -0.3347 -0.0269
    3TTP     C4 2678   2.893   3.152   4.227 -0.7875  0.0744 -0.2248
    3TTP    C17 2679   2.894   3.048   4.315 -0.8418  0.3110  0.0581
    3TTP    C18 2680   2.814   2.938   4.270 -0.5901  0.0787  0.1676
    3TTP    C32 2681   2.589   2.859   3.971 -1.3158  0.1049 -0.2016
    3TTP    C33 2682   2.684   2.848   3.862  0.1845  0.8222  0.2764
    3TTP    C34 2683   2.704   2.706   3.796 -0.0487  0.2985  0.9196
    3TTP    C35 2684   2.591   2.599   3.769 -0.0751 -1.1052  0.1671
    3TTP    C36 2685   2.621   2.486   3.670  0.2912  1.0877 -0.0073
    3TTP    C37 2686   2.499   2.463   3.576 -1.3866  0.2894 -0.1986
    3TTP    C38 2687   2.538   2.403   3.437  1.2671 -1.0846  0.9464
    3TTP    C39 2688   2.588   2.257   3.410  0.0179 -0.0573  0.2507
    3TTP    C40 2689   2.503   2.159   3.494 -0.3393 -0.8228 -0.1471
    3TTP    C41 2690   2.510   2.020   3.456  0.6156  0.3352  1.0294
    3TTP    C42 2691   2.370   1.969   3.446  0.3009 -0.3992  0.3118
    4FIC     F1 2692   3.780   3.065   5.486 -0.1734 -0.1933 -0.0329
    4FIC     F2 2693   3.824   3.273   5.656  0.6997 -0.1336 -0.3241
    4FIC     O1 2694   3.445   3.294   5.128 -0.4137  0.2675  0.4848
    4FIC     N5 2695   3.650   3.735   5.645  1.7837  0.2807 -0.3740
    4FIC     N6 2696   3.379   3.873   5.331  1.4199  0.6287  0.0892
    4FIC    C19 2697   3.368   3.575   5.163  0.3352  0.4882  0.3901
    4FIC    C20 2698   3.451   3.509   5.246  0.3614  0.3699  0.2714
    4FIC    C21 2699   3.486   3.365   5.222 -0.0381  0.2613  0.3302
    4FIC    C22 2700   3.577   3.324   5.330  0.1052  0.1472  0.1688
    4FIC    C23 2701   3.636   3.200   5.350 -0.1497  0.0235  0.1566
    4FIC    C24 2702   3.719   3.185   5.460  0.0591 -0.0691 -0.0110
    4FIC    C25 2703   3.741   3.292   5.548  0.5089 -0.0380 -0.1608
    4FIC    C26 2704   3.683   3.417   5.529  0.7654  0.0851 -0.1497
    4FIC    C27 2705   3.599   3.434   5.417  0.5597  0.1801  0.0187
    4FIC    C28 2706   3.522   3.551   5.369  0.7350  0.3182  0.0759
    4FIC    C29 2707   3.518   3.676   5.428  1.1621  0.3853 -0.0318
    4FIC    C30 2708   3.591   3.708   5.547  1.5024  0.3275 -0.2196
    4FIC    C31 2709   3.442   3.784   5.374  1.3015  0.5189  0.0354
    5FIC     F1 2710   3.051   2.025   4.256  0.2410 -0.0215 -0.5147
    5FIC     F2 2711   2.815   1.900   4.202  0.0820  0.0697 -0.0379
    5FIC     O1 2712   2.903   2.544   4.220  0.4133  0.0356 -0.3989
    5FIC     N5 2713   2.370   2.092   4.099 -0.0237  0.2415  0.7303
    5FIC     N6 2714   2.302   2.523   4.083  0.1430  0.2677  0.7246
    5FIC    C19 2715   2.625   2.610   4.156  0.3226  0.1430  0.0979
    5FIC    C20 2716   2.672   2.484   4.167  0.2856  0.1251  0.0501
    5FIC    C21 2717   2.816   2.458   4.201  0.3363  0.0694 -0.2103
    5FIC    C22 2718   2.832   2.312   4.205  0.2769  0.0630 -0.1961
    5FIC    C23 2719   2.949   2.240   4.232  0.2947  0.0181 -0.3903
    5FIC    C24 2720   2.940   2.102   4.230  0.2279  0.0215 -0.3316
    5FIC    C25 2721   2.818   2.038   4.202  0.1460  0.0685 -0.0859
    5FIC    C26 2722   2.702   2.109   4.175  0.1278  0.1135  0.1088
    5FIC    C27 2723   2.709   2.249   4.177  0.1947  0.1107  0.0532
    5FIC    C28 2724   2.605   2.353   4.152  0.1967  0.1509  0.2141
    5FIC    C29 2725   2.473   2.330   4.122  0.1291  0.2019  0.4671
    5FIC    C30 2726   2.417   2.199   4.110  0.0454  0.2235  0.6109
    5FIC    C31 2727   2.380   2.437   4.101  0.1372  0.2379  0.6073
    1BTD     S2 2728   7.305   8.995  10.575 -0.7108 -0.4763 -0.2119
    1BTD     N1 2729   7.456   9.000  10.478 -0.6670 -0.1249 -0.1299
    1BTD     N2 2730   7.207   9.083  10.453 -0.8318 -0.6442 -0.2363
    1BTD     N3 2731   7.280   9.271  10.028 -0.9986 -0.3529 -0.1366
    1BTD     N4 2732   7.588   9.168  10.060 -0.7956  0.2873 -0.0052
    1BTD     C5 2733   7.521   9.089  10.259 -0.7367  0.0827 -0.0663
    1BTD     C6 2734   7.428   9.063  10.365 -0.7409 -0.1497 -0.1247
    1BTD     C7 2735   7.288   9.110  10.351 -0.8332 -0.4406 -0.1843
    1BTD     C8 2736   7.249   9.180  10.232 -0.9165 -0.4845 -0.1826
    1BTD    C15 2737   7.344   9.202  10.130 -0.9090 -0.2504 -0.1245
    1BTD    C16 2738   7.479   9.157  10.144 -0.8200  0.0295 -0.0671
    1BTD    C43 2739   7.609   9.262   9.947  1.5401 -0.5673 -0.4008
    1BTD    C44 2740   7.732   9.355   9.935  0.9884  1.3486  0.0183
    1BTD    C45 2741   7.769   9.427  10.065  0.6273  0.7504  0.2706
    1BTD    C46 2742   7.913   9.477  10.084 -0.3776  0.6505  0.0493
    1BTD    C47 2743   7.755   9.447   9.809  1.8228  0.6938 -0.9415
    1BTD    C48 2744   7.729   9.386   9.668  0.2014 -0.3792 -1.2914
    1BTD    C49 2745   7.857   9.418   9.580  0.5078  0.8421 -1.2740
    1BTD    C50 2746   7.853   9.386   9.437 -1.3578  1.1070 -0.3415
    1BTD    C75 2747   7.301   9.226   9.881 -0.5178 -0.2195 -0.5521
    1BTD    C76 2748   7.214   9.275   9.755 -0.3931  0.2530  0.7244
    1BTD    C77 2749   7.316   9.303   9.625 -0.6056 -0.7833  0.9265
    1BTD    C78 2750   7.415   9.210   9.558 -0.4973 -0.8534  0.6465
    1BTD    C79 2751   7.084   9.189   9.703  0.2903 -2.5115  0.2500
    1BTD    C80 2752   7.030   9.178   9.559  0.5848 -0.6418 -0.6005
    1BTD    C81 2753   6.980   9.279   9.452 -0.5167 -0.1501  1.1000
    1BTD    C82 2754   6.966   9.414   9.513 -0.2274 -1.9241  0.3494
    2TTP     S1 2755   7.795   8.972  10.341 -0.0180  0.4268  0.3345
    2TTP     S5 2756   7.941   9.077   9.951  0.3401 -1.0679  0.0517
    2TTP     C1 2757   8.075   8.993  10.042  0.3015 -0.5991  0.5504
    2TTP     C2 2758   8.037   8.956  10.168  0.1886 -0.1101  0.6669
    2TTP     C3 2759   7.902   8.992  10.197  0.1285 -0.0877  0.3669
    2TTP     C4 2760   7.662   9.056  10.250  0.0206 -0.0417 -0.1640
    2TTP    C17 2761   7.699   9.093  10.124  0.1334 -0.5312 -0.2805
    2TTP    C18 2762   7.834   9.057  10.095  0.1935 -0.5534  0.0193
    2TTP    C32 2763   8.124   8.892  10.276 -0.0670  0.2284 -0.5377
    2TTP    C33 2764   8.096   8.733  10.272 -0.3846 -0.1612  1.3133
    2TTP    C34 2765   8.186   8.647  10.184 -0.0573 -0.6794 -0.8909
    2TTP    C35 2766   8.333   8.651  10.213  0.4831 -1.4254 -0.4200
    2TTP    C36 2767   8.365   8.593  10.349  0.8606 -0.2655  0.1147
    2TTP    C37 2768   8.514   8.573  10.370 -0.9107  0.2235  1.3769
    2TTP    C38 2769   8.613   8.677  10.408  0.9754 -0.9986  0.1597
    2TTP    C39 2770   8.739   8.725  10.313  1.6702  0.2210 -1.0013
    2TTP    C40 2771   8.853   8.814  10.372  0.7568  0.4866  0.3661
    2TTP    C41 2772   8.981   8.808  10.279  0.9781 -0.4432  0.0517
    2TTP    C42 2773   9.023   8.941  10.247  0.6424 -0.2675  0.8349
    3TTP     S1 2774   6.971   9.261  10.268  0.4531 -0.2034  0.2512
    3TTP     S5 2775   6.997   9.496   9.909 -0.2512 -0.3488  0.1020
    3TTP     C1 2776   6.833   9.522   9.984 -0.3529 -0.8391  0.0525
    3TTP     C2 2777   6.815   9.451  10.099 -0.1415 -0.8233  0.0956
    3TTP     C3 2778   6.930   9.373  10.133  0.1086 -0.4230  0.1695
    3TTP     C4 2779   7.135   9.236  10.194  0.5550  0.2868  0.3009
    3TTP    C17 2780   7.153   9.307  10.079  0.3435  0.2707  0.2579
    3TTP    C18 2781   7.037   9.384  10.045  0.0935 -0.1292  0.1841
    3TTP    C32 2782   6.699   9.464  10.196  1.2512  0.9047 -0.4889
    3TTP    C33 2783   6.600   9.350  10.202 -0.8215 -0.4361 -1.0146
    3TTP    C34 2784   6.542   9.299  10.333  0.8409  0.5282  0.6543
    3TTP    C35 2785   6.541   9.138  10.344  0.4523 -0.5399 -0.8733
    3TTP    C36 2786   6.615   9.091  10.475  0.3595 -0.2236  0.4683
    3TTP    C37 2787   6.522   9.137  10.599 -0.5878 -0.2683 -1.0961
    3TTP    C38 2788   6.529   9.037  10.714  0.5449 -1.2543 -0.0001
    3TTP    C39 2789   6.631   9.040  10.827  0.6149  0.8286  0.2534
    3TTP    C40 2790   6.597   8.899  10.885 -0.3248 -0.9271 -0.8054
    3TTP    C41 2791   6.708   8.822  10.969 -0.1551  0.0894 -1.0765
    3TTP    C42 2792   6.814   8.898  11.040 -0.7419 -0.2598  0.2045
    4FIC     F1 2793   8.328   8.823   9.285 -0.0911  0.6216 -0.3967
    4FIC     F2 2794   8.584   8.826   9.377 -0.0951  0.4215 -0.3793
    4FIC     O1 2795   8.055   8.928   9.741 -0.0918 -0.0041 -0.2515
    4FIC     N5 2796   8.758   8.903   9.833 -0.1018 -0.3123 -0.2508
    4FIC     N6 2797   8.493   8.984  10.171 -0.1020 -0.7613 -0.1409
    4FIC    C19 2798   8.202   8.967   9.990 -0.0964 -0.4179 -0.1833
    4FIC    C20 2799   8.261   8.941   9.872 -0.0958 -0.2525 -0.2205
    4FIC    C21 2800   8.178   8.922   9.748 -0.0935 -0.0448 -0.2542
    4FIC    C22 2801   8.273   8.895   9.638 -0.0939  0.0989 -0.2899
    4FIC    C23 2802   8.243   8.871   9.504 -0.0918  0.3090 -0.3283
    4FIC    C24 2803   8.350   8.848   9.418 -0.0926  0.4135 -0.3579
    4FIC    C25 2804   8.482   8.849   9.466 -0.0946  0.3102 -0.3488
    4FIC    C26 2805   8.512   8.873   9.599 -0.0963  0.1009 -0.3107
    4FIC    C27 2806   8.406   8.896   9.688 -0.0958 -0.0079 -0.2804
    4FIC    C28 2807   8.404   8.924   9.833 -0.0973 -0.2279 -0.2372
    4FIC    C29 2808   8.513   8.934   9.916 -0.0994 -0.3800 -0.2167
    4FIC    C30 2809   8.647   8.917   9.870 -0.1009 -0.3424 -0.2358
    4FIC    C31 2810   8.501   8.961  10.056 -0.1009 -0.5889 -0.1752
    5FIC     F1 2811   6.702   9.885   9.259  0.1415  0.6354 -0.1132
    5FIC     F2 2812   6.447   9.938   9.339  0.0924  0.3757 -0.0985
    5FIC     O1 2813   6.899   9.640   9.700  0.2500  0.3364 -0.3271
    5FIC     N5 2814   6.221   9.838   9.767  0.0991 -0.2108 -0.2301
    5FIC     N6 2815   6.426   9.636  10.096  0.1937 -0.3915 -0.3998
    5FIC    C19 2816   6.725   9.603   9.933  0.2416 -0.0175 -0.3890
    5FIC    C20 2817   6.685   9.662   9.819  0.2162  0.0677 -0.3357
    5FIC    C21 2818   6.781   9.678   9.703  0.2224  0.2496 -0.3066
    5FIC    C22 2819   6.706   9.746   9.596  0.1897  0.3028 -0.2499
    5FIC    C23 2820   6.752   9.782   9.470  0.1830  0.4613 -0.2074
    5FIC    C24 2821   6.663   9.847   9.386  0.1500  0.4818 -0.1570
    5FIC    C25 2822   6.532   9.874   9.427  0.1247  0.3482 -0.1493
    5FIC    C26 2823   6.485   9.838   9.552  0.1314  0.1898 -0.1915
    5FIC    C27 2824   6.574   9.773   9.639  0.1645  0.1664 -0.2429
    5FIC    C28 2825   6.556   9.722   9.778  0.1798  0.0165 -0.2954
    5FIC    C29 2826   6.441   9.729   9.853  0.1633 -0.1397 -0.3049
    5FIC    C30 2827   6.320   9.789   9.806  0.1278 -0.1781 -0.2637
    5FIC    C31 2828   6.433   9.678   9.986  0.1800 -0.2775 -0.3572
    1BTD     S2 2829   1.044   5.410   2.021 -0.6040 -0.0428 -0.5686
    1BTD     N1 2830   1.059   5.244   2.087 -0.7122 -0.4773 -1.6081
    1BTD     N2 2831   0.868   5.424   2.057 -0.2750  0.4990  0.9880
    1BTD     N3 2832   0.537   5.151   2.249  0.2001  0.8186  2.2827
    1BTD     N4 2833   0.772   4.929   2.285 -0.3386 -0.3846 -0.9162
    1BTD     C5 2834   0.906   5.082   2.190 -0.5106 -0.4144 -1.2082
    1BTD     C6 2835   0.938   5.209   2.130 -0.5081 -0.2099 -0.7841
    1BTD     C7 2836   0.832   5.310   2.113 -0.2633  0.3364  0.6689
    1BTD     C8 2837   0.698   5.279   2.157 -0.0334  0.6512  1.6253
    1BTD    C15 2838   0.672   5.154   2.216 -0.0451  0.4347  1.1638
    1BTD    C16 2839   0.775   5.056   2.232 -0.2808 -0.0918 -0.2363
    1BTD    C43 2840   0.661   4.837   2.317 -0.9214 -0.1999  0.1012
    1BTD    C44 2841   0.664   4.689   2.294 -0.2743  0.2532 -0.0311
    1BTD    C45 2842   0.677   4.665   2.137 -0.4577  0.6231 -0.6280
    1BTD    C46 2843   0.757   4.556   2.090  0.6208 -0.4506  1.0047
    1BTD    C47 2844   0.557   4.622   2.352  0.2492 -0.4255  0.7219
    1BTD    C48 2845   0.419   4.652   2.317  0.0042  0.3761  0.9151
    1BTD    C49 2846   0.356   4.571   2.199  1.1548 -0.0889 -1.5016
    1BTD    C50 2847   0.281   4.668   2.111 -0.4943  0.0787 -0.1063
    1BTD    C75 2848   0.465   5.104   2.366  1.5382  0.3624  0.3393
    1BTD    C76 2849   0.535   5.095   2.502 -0.1763 -0.2376  0.7094
    1BTD    C77 2850   0.451   5.051   2.638  1.0565  0.1110  0.3997
    1BTD    C78 2851   0.501   4.926   2.696 -0.5891 -0.0919 -0.3389
    1BTD    C79 2852   0.684   5.126   2.518  1.4305 -0.3422 -0.6608
    1BTD    C80 2853   0.788   5.101   2.635  0.1368  0.4964  1.0344
    1BTD    C81 2854   0.774   5.162   2.762  1.0435  0.4591 -1.6753
    1BTD    C82 2855   0.705   5.296   2.810 -0.7627 -0.8057 -0.4970
    2TTP     S1 2856   1.169   4.958   2.267  0.0809 -0.0032  0.1968
    2TTP     S5 2857   0.954   4.667   2.500  0.3270 -0.4226 -0.0982
    2TTP     C1 2858   1.132   4.649   2.533  0.3229 -0.1213  0.0939
    2TTP     C2 2859   1.209   4.738   2.464  0.2467  0.0260  0.1964
    2TTP     C3 2860   1.130   4.823   2.381  0.1887 -0.0938  0.1268
    2TTP     C4 2861   0.991   4.977   2.233  0.0849 -0.3047  0.0048
    2TTP    C17 2862   0.914   4.888   2.303  0.1612 -0.4520 -0.0977
    2TTP    C18 2863   0.993   4.802   2.386  0.2191 -0.3320 -0.0281
    2TTP    C32 2864   1.361   4.755   2.490  0.3460  0.0578 -0.4510
    2TTP    C33 2865   1.458   4.742   2.370  1.0776  0.9579  0.6577
    2TTP    C34 2866   1.489   4.874   2.302 -0.8535  0.2417  1.0674
    2TTP    C35 2867   1.599   4.876   2.191  0.7284  0.5419 -1.1560
    2TTP    C36 2868   1.628   5.000   2.095 -0.5496  0.3387 -0.8567
    2TTP    C37 2869   1.685   5.131   2.143  0.7327 -1.6385  0.0194
    2TTP    C38 2870   1.570   5.239   2.119 -0.4253 -1.4845  0.2736
    2TTP    C39 2871   1.618   5.388   2.088  0.4057  0.1008  0.5705
    2TTP    C40 2872   1.669   5.404   1.950 -0.5780 -0.2229  0.5941
    2TTP    C41 2873   1.688   5.547   1.910  0.7558 -0.5681 -0.2089
    2TTP    C42 2874   1.742   5.597   1.770  0.7086  1.7578  0.5418
    3TTP     S1 2875   0.513   5.458   2.012 -0.2731 -0.0707  0.1002
    3TTP     S5 2876   0.175   5.221   2.132 -0.0775 -0.2654  0.2691
    3TTP     C1 2877   0.119   5.346   2.013 -0.2382 -0.1926  0.4214
    3TTP     C2 2878   0.220   5.427   1.969 -0.3080 -0.1284  0.3783
    3TTP     C3 2879   0.345   5.392   2.028 -0.2372 -0.1340  0.2233
    3TTP     C4 2880   0.570   5.332   2.131 -0.1125 -0.1434 -0.0522
    3TTP    C17 2881   0.469   5.251   2.175 -0.0426 -0.2076 -0.0090
    3TTP    C18 2882   0.343   5.286   2.116 -0.1134 -0.2019  0.1460
    3TTP    C32 2883   0.232   5.519   1.837  1.0944 -0.3574 -0.2663
    3TTP    C33 2884   0.343   5.632   1.823  0.1990 -0.6690 -0.3974
    3TTP    C34 2885   0.363   5.686   1.678 -0.3116 -0.9384 -0.4015
    3TTP    C35 2886   0.241   5.746   1.614 -0.2790  0.2134 -0.5289
    3TTP    C36 2887   0.251   5.819   1.482 -0.4801  0.3661 -0.2893
    3TTP    C37 2888   0.163   5.937   1.459 -0.0615 -0.6561  0.8139
    3TTP    C38 2889   0.220   6.068   1.506  0.2179  0.4196 -0.3329
    3TTP    C39 2890   0.167   6.107   1.645  0.9820  1.2679 -0.3481
    3TTP    C40 2891   0.226   6.223   1.725 -0.8741 -0.3184  1.1096
    3TTP    C41 2892   0.231   6.368   1.651  0.4423 -0.3987 -0.1282
    3TTP    C42 2893   0.177   6.382   1.495 -0.0621  0.8258  0.6501
    4FIC     F1 2894   0.978   3.865   2.728 -0.3714  0.1600 -0.0525
    4FIC     F2 2895   1.176   3.880   2.914 -0.1252  0.0049 -0.3013
    4FIC     O1 2896   0.994   4.366   2.521 -0.3569  0.2010  0.0476
    4FIC     N5 2897   1.473   4.257   3.034  0.2390 -0.1889 -0.5878
    4FIC     N6 2898   1.446   4.645   2.835  0.2008 -0.1256 -0.4594
    4FIC    C19 2899   1.190   4.557   2.625 -0.1165  0.0674 -0.1546
    4FIC    C20 2900   1.178   4.431   2.670 -0.1298  0.0632 -0.1701
    4FIC    C21 2901   1.075   4.338   2.612 -0.2565  0.1343 -0.0616
    4FIC    C22 2902   1.089   4.210   2.683 -0.2374  0.1093 -0.1106
    4FIC    C23 2903   1.015   4.093   2.663 -0.3276  0.1550 -0.0450
    4FIC    C24 2904   1.047   3.984   2.742 -0.2872  0.1184 -0.1115
    4FIC    C25 2905   1.149   3.991   2.838 -0.1603  0.0383 -0.2398
    4FIC    C26 2906   1.223   4.107   2.858 -0.0698 -0.0075 -0.3058
    4FIC    C27 2907   1.192   4.219   2.779 -0.1089  0.0285 -0.2401
    4FIC    C28 2908   1.251   4.355   2.775 -0.0378 -0.0031 -0.2817
    4FIC    C29 2909   1.354   4.402   2.853  0.0892 -0.0790 -0.4008
    4FIC    C30 2910   1.419   4.322   2.952  0.1711 -0.1394 -0.5033
    4FIC    C31 2911   1.404   4.536   2.843  0.1498 -0.1042 -0.4324
    5FIC     F1 2912  -0.593   4.937   2.024 -0.3512  0.3799  0.7727
    5FIC     F2 2913  -0.706   5.138   1.881  0.0355 -0.1801 -0.3394
    5FIC     O1 2914  -0.088   5.123   2.084 -0.4425  0.4951  1.1894
    5FIC     N5 2915  -0.508   5.561   1.716  0.5269 -0.9032 -1.6411
    5FIC     N6 2916  -0.091   5.667   1.792  0.3777 -0.7004 -1.0913
    5FIC    C19 2917  -0.017   5.382   1.967 -0.1051  0.0009  0.2751
    5FIC    C20 2918  -0.139   5.328   1.958 -0.0973 -0.0062  0.2136
    5FIC    C21 2919  -0.168   5.194   2.021 -0.2770  0.2569  0.7037
    5FIC    C22 2920  -0.310   5.164   1.992 -0.2174  0.1750  0.4924
    5FIC    C23 2921  -0.382   5.051   2.029 -0.3338  0.3471  0.7924
    5FIC    C24 2922  -0.515   5.045   1.991 -0.2445  0.2219  0.5017
    5FIC    C25 2923  -0.573   5.149   1.917 -0.0454 -0.0666 -0.0712
    5FIC    C26 2924  -0.501   5.262   1.879  0.0715 -0.2397 -0.3732
    5FIC    C27 2925  -0.367   5.270   1.917 -0.0160 -0.1167 -0.0860
    5FIC    C28 2926  -0.264   5.375   1.893  0.0658 -0.2394 -0.2801
    5FIC    C29 2927  -0.282   5.492   1.825  0.2561 -0.5167 -0.8153
    5FIC    C30 2928  -0.406   5.530   1.765  0.4044 -0.7284 -1.2675
    5FIC    C31 2929  -0.177   5.588   1.807  0.3219 -0.6161 -0.9640
    1BTD     S2 2930   6.501   3.057   3.462 -0.0902  0.1442  0.0586
    1BTD     N1 2931   6.430   2.900   3.412  0.4194  0.0182 -0.2788
    1BTD     N2 2932   6.566   2.996   3.618 -0.5496  0.2127  0.2807
    1BTD     N3 2933   6.571   2.585   3.846 -0.5654  0.1252  0.1239
    1BTD     N4 2934   6.404   2.467   3.592  0.6284 -0.1144 -0.5656
    1BTD     C5 2935   6.419   2.675   3.509  0.5140 -0.0482 -0.4203
    1BTD     C6 2936   6.458   2.814   3.510  0.2307  0.0331 -0.2121
    1BTD     C7 2937   6.533   2.867   3.625 -0.3116  0.1419  0.1012
    1BTD     C8 2938   6.567   2.780   3.734 -0.5434  0.1641  0.1906
    1BTD    C15 2939   6.527   2.645   3.730 -0.2511  0.0821 -0.0210
    1BTD    C16 2940   6.453   2.593   3.619  0.2715 -0.0227 -0.3228
    1BTD    C43 2941   6.454   2.331   3.629  0.0668  0.0318  0.0997
    1BTD    C44 2942   6.424   2.190   3.558 -0.5672  0.8079 -0.3725
    1BTD    C45 2943   6.504   2.074   3.645  0.6046  0.3311  0.4148
    1BTD    C46 2944   6.644   2.035   3.593 -0.3922  0.2151  0.3251
    1BTD    C47 2945   6.449   2.186   3.405 -0.9469  1.2894  0.6508
    1BTD    C48 2946   6.447   2.032   3.344  0.7004  1.4010 -0.4439
    1BTD    C49 2947   6.448   2.025   3.193  1.5359 -0.2193  0.6258
    1BTD    C50 2948   6.404   1.884   3.139  1.1081 -1.1619 -0.0419
    1BTD    C75 2949   6.562   2.446   3.897 -0.6075  1.1840  1.1134
    1BTD    C76 2950   6.458   2.401   4.009  0.1752 -0.5184  0.4729
    1BTD    C77 2951   6.329   2.475   4.041  0.7964 -0.5000 -0.0989
    1BTD    C78 2952   6.216   2.513   3.933 -1.4457  0.8059 -0.1760
    1BTD    C79 2953   6.453   2.258   3.984 -0.2935  0.3238  1.4162
    1BTD    C80 2954   6.353   2.163   4.052  0.1244  0.5135  0.4212
    1BTD    C81 2955   6.316   2.040   3.974  0.4486 -0.9575 -0.3949
    1BTD    C82 2956   6.404   1.934   4.040 -0.0248 -0.7150  0.5056
    2TTP     S1 2957   6.198   2.649   3.310  0.2222 -0.0268 -0.3322
    2TTP     S5 2958   6.104   2.263   3.474 -0.8334  0.2850 -0.1929
    2TTP     C1 2959   5.970   2.312   3.360 -0.4364  0.3715 -0.6277
    2TTP     C2 2960   5.992   2.434   3.303 -0.0870  0.2802 -0.6963
    2TTP     C3 2961   6.114   2.493   3.347 -0.1202  0.1389 -0.4079
    2TTP     C4 2962   6.332   2.600   3.424 -0.1746 -0.1131  0.1026
    2TTP    C17 2963   6.310   2.478   3.481 -0.5244 -0.0219  0.1714
    2TTP    C18 2964   6.188   2.419   3.437 -0.4910  0.1195 -0.1170
    2TTP    C32 2965   5.895   2.525   3.215  0.8242  0.2469 -0.8581
    2TTP    C33 2966   5.825   2.644   3.278 -0.9485  0.9965 -0.3244
    2TTP    C34 2967   5.679   2.634   3.285 -0.3624  0.7133 -0.2281
    2TTP    C35 2968   5.616   2.717   3.404 -0.1973  0.8730 -1.0412
    2TTP    C36 2969   5.570   2.637   3.521 -0.2529  0.4262 -0.8674
    2TTP    C37 2970   5.628   2.502   3.550 -0.7248  0.0037 -0.6469
    2TTP    C38 2971   5.739   2.489   3.654  0.0495 -0.4352  1.9603
    2TTP    C39 2972   5.674   2.461   3.783 -0.6172  0.1342  1.4066
    2TTP    C40 2973   5.699   2.335   3.870  0.4769 -1.9174 -0.4966
    2TTP    C41 2974   5.663   2.363   4.030  0.8270  0.1456 -1.1829
    2TTP    C42 2975   5.519   2.438   4.053 -0.9361  1.0809 -1.2542
    3TTP     S1 2976   6.770   2.915   3.910 -0.7223  0.3726  0.2410
    3TTP     S5 2977   6.869   2.528   4.067 -0.2893  0.2085 -0.4287
    3TTP     C1 2978   6.999   2.645   4.117 -0.3078  0.2210 -0.4097
    3TTP     C2 2979   6.976   2.772   4.071 -0.4426  0.2723 -0.2017
    3TTP     C3 2980   6.855   2.781   3.995 -0.5361  0.3037 -0.0499
    3TTP     C4 2981   6.640   2.798   3.860 -0.7037  0.3601  0.2220
    3TTP    C17 2982   6.663   2.671   3.906 -0.5689  0.3087  0.0140
    3TTP    C18 2983   6.784   2.662   3.982 -0.4754  0.2773 -0.1377
    3TTP    C32 2984   7.047   2.899   4.092 -0.5654  1.3394  0.4409
    3TTP    C33 2985   7.024   2.954   4.238 -0.6347 -0.0296  1.4532
    3TTP    C34 2986   6.888   3.006   4.278 -1.0442  0.8348  0.9902
    3TTP    C35 2987   6.804   3.137   4.202 -0.1904  2.6719 -1.3630
    3TTP    C36 2988   6.876   3.250   4.266  1.5025 -2.2903 -0.1957
    3TTP    C37 2989   6.815   3.317   4.394 -1.1198  1.0255 -1.1603
    3TTP    C38 2990   6.812   3.258   4.535 -1.2399  0.2709  0.0796
    3TTP    C39 2991   6.940   3.184   4.571  0.2359  0.7640  0.5195
    3TTP    C40 2992   6.976   3.223   4.718  0.0760  0.1434  0.0115
    3TTP    C41 2993   7.117   3.175   4.755 -0.1367 -0.3599  1.7464
    3TTP    C42 2994   7.244   3.179   4.670  0.3984  0.0902  0.2000
    4FIC     F1 2995   5.833   1.502   3.297 -0.4644  0.0105  0.0361
    4FIC     F2 2996   5.601   1.559   3.167 -0.0923  0.3062 -0.5038
    4FIC     O1 2997   6.016   2.000   3.404 -0.0954 -0.2215  0.4901
    4FIC     N5 2998   5.398   1.997   3.056  0.7054  0.5662 -0.9567
    4FIC     N6 2999   5.588   2.375   3.166  0.9187  0.3253 -0.4930
    4FIC    C19 3000   5.860   2.232   3.318  0.3909 -0.0213  0.1354
    4FIC    C20 3001   5.823   2.104   3.296  0.2837  0.0255  0.0423
    4FIC    C21 3002   5.909   1.990   3.344  0.0330 -0.0842  0.2375
    4FIC    C22 3003   5.840   1.866   3.304 -0.0283  0.0035  0.0696
    4FIC    C23 3004   5.881   1.735   3.326 -0.2418 -0.0494  0.1593
    4FIC    C24 3005   5.799   1.634   3.278 -0.2582  0.0550 -0.0383
    4FIC    C25 3006   5.679   1.664   3.211 -0.0665  0.2073 -0.3163
    4FIC    C26 3007   5.637   1.794   3.189  0.1471  0.2608 -0.4073
    4FIC    C27 3008   5.719   1.898   3.236  0.1671  0.1568 -0.2104
    4FIC    C28 3009   5.704   2.046   3.229  0.3664  0.1764 -0.2381
    4FIC    C29 3010   5.600   2.115   3.171  0.5858  0.3091 -0.4780
    4FIC    C30 3011   5.490   2.050   3.108  0.6509  0.4500 -0.7403
    4FIC    C31 3012   5.594   2.257   3.169  0.7676  0.3172 -0.4849
    5FIC     F1 3013   7.432   1.961   4.200  0.5430  0.2800 -0.7168
    5FIC     F2 3014   7.565   2.075   4.409 -0.3506 -0.3933  0.2381
    5FIC     O1 3015   7.106   2.368   4.052  0.9307  0.6434 -0.5763
    5FIC     N5 3016   7.523   2.528   4.603 -1.3592 -1.1021  1.7112
    5FIC     N6 3017   7.242   2.823   4.446 -0.8762 -0.6824  1.6288
    5FIC    C19 3018   7.117   2.621   4.199  0.2146  0.1293  0.3861
    5FIC    C20 3019   7.194   2.514   4.228  0.1520  0.0642  0.3135
    5FIC    C21 3020   7.183   2.387   4.148  0.5369  0.3420 -0.1926
    5FIC    C22 3021   7.279   2.293   4.206  0.3533  0.1852 -0.1404
    5FIC    C23 3022   7.305   2.162   4.165  0.5827  0.3421 -0.5089
    5FIC    C24 3023   7.402   2.091   4.235  0.3373  0.1412 -0.3709
    5FIC    C25 3024   7.470   2.150   4.343 -0.1229 -0.2056  0.1212
    5FIC    C26 3025   7.445   2.280   4.384 -0.3542 -0.3638  0.4909
    5FIC    C27 3026   7.347   2.353   4.314 -0.1112 -0.1646  0.3582
    5FIC    C28 3027   7.297   2.492   4.332 -0.2534 -0.2527  0.6567
    5FIC    C29 3028   7.339   2.582   4.427 -0.6791 -0.5678  1.1559
    5FIC    C30 3029   7.440   2.552   4.524 -1.0515 -0.8605  1.4594
    5FIC    C31 3030   7.285   2.714   4.437 -0.7851 -0.6290  1.4131
    1BTD     S2 3031   5.348   9.837   6.837 -0.0698 -0.0974 -0.0858
    1BTD     N1 3032   5.429   9.678   6.816 -0.3011 -0.2174 -0.0731
    1BTD     N2 3033   5.360   9.837   7.016  0.2617  0.0727 -0.1078
    1BTD     N3 3034   5.533   9.548   7.344  0.5188  0.2017 -0.1290
    1BTD     N4 3035   5.617   9.353   7.097 -0.1748 -0.1557 -0.0864
    1BTD     C5 3036   5.526   9.511   6.966 -0.2266 -0.1807 -0.0805
    1BTD     C6 3037   5.459   9.635   6.937 -0.1286 -0.1295 -0.0852
    1BTD     C7 3038   5.421   9.724   7.049  0.1864  0.0329 -0.1047
    1BTD     C8 3039   5.452   9.684   7.184  0.3875  0.1357 -0.1184
    1BTD    C15 3040   5.517   9.561   7.207  0.2815  0.0802 -0.1133
    1BTD    C16 3041   5.553   9.476   7.099 -0.0221 -0.0764 -0.0944
    1BTD    C43 3042   5.598   9.221   7.165  1.9008  0.2953 -0.0780
    1BTD    C44 3043   5.470   9.146   7.159  1.4926 -0.8519  0.6415
    1BTD    C45 3044   5.357   9.229   7.240  0.8754 -0.2217  0.7334
    1BTD    C46 3045   5.221   9.147   7.279 -1.3078  0.6593  1.7276
    1BTD    C47 3046   5.451   9.092   7.015  0.3080 -0.1185 -0.6370
    1BTD    C48 3047   5.520   8.981   6.946  0.2580  0.6021  0.0024
    1BTD    C49 3048   5.528   8.854   7.020  0.0277 -0.4975  0.0493
    1BTD    C50 3049   5.601   8.754   6.940  0.7189  0.0851  0.0586
    1BTD    C75 3050   5.637   9.493   7.431  0.9724  0.8662 -0.4952
    1BTD    C76 3051   5.774   9.443   7.388  0.0555 -0.7530 -0.3843
    1BTD    C77 3052   5.863   9.558   7.341  1.4587  0.3317 -1.0820
    1BTD    C78 3053   6.004   9.544   7.337  0.4520  0.7152 -0.1479
    1BTD    C79 3054   5.830   9.343   7.504 -1.2509 -2.1342  0.2659
    1BTD    C80 3055   5.763   9.220   7.528  0.1170  0.5205  1.4220
    1BTD    C81 3056   5.678   9.216   7.643  0.6414 -0.4188 -0.5836
    1BTD    C82 3057   5.571   9.113   7.610  1.1585  0.2166  0.1290
    2TTP     S1 3058   5.608   9.385   6.716  0.2884  0.1602 -0.1415
    2TTP     S5 3059   5.904   9.165   6.938 -0.2916 -0.4039  0.0778
    2TTP     C1 3060   5.941   9.150   6.760 -0.1858 -0.4697  0.1057
    2TTP     C2 3061   5.852   9.217   6.681 -0.0002 -0.2990  0.0396
    2TTP     C3 3062   5.751   9.282   6.758  0.0647 -0.1109 -0.0353
    2TTP     C4 3063   5.571   9.400   6.893  0.1824  0.2258 -0.1692
    2TTP    C17 3064   5.660   9.333   6.972 -0.0029  0.0553 -0.1032
    2TTP    C18 3065   5.761   9.267   6.895 -0.0681 -0.1330 -0.0281
    2TTP    C32 3066   5.824   9.221   6.531  0.1348 -1.9644  0.1836
    2TTP    C33 3067   5.704   9.140   6.480  0.5210 -1.0255 -0.0224
    2TTP    C34 3068   5.630   9.224   6.364  0.0430 -0.0681  0.3933
    2TTP    C35 3069   5.483   9.194   6.402 -0.3370 -1.0879  1.6690
    2TTP    C36 3070   5.409   9.261   6.292  0.5838 -0.0397 -0.4866
    2TTP    C37 3071   5.255   9.248   6.304 -0.2067 -0.0498 -0.7379
    2TTP    C38 3072   5.203   9.301   6.176 -1.2026 -0.1170  0.4245
    2TTP    C39 3073   5.048   9.266   6.143  1.0531 -1.8128  1.4681
    2TTP    C40 3074   4.987   9.360   6.024  2.4367  1.3069  1.2969
    2TTP    C41 3075   4.963   9.497   6.053  0.8679  0.4674 -0.5656
    2TTP    C42 3076   4.844   9.582   6.046  2.2920  0.0959  1.2775
    3TTP     S1 3077   5.402   9.915   7.375  0.6376  0.1469 -0.1481
    3TTP     S5 3078   5.518   9.670   7.709 -0.0191 -0.0403 -0.0558
    3TTP     C1 3079   5.471   9.834   7.771  0.3422  0.0857 -0.1092
    3TTP     C2 3080   5.432   9.920   7.672  0.5661  0.1509 -0.1408
    3TTP     C3 3081   5.439   9.859   7.543  0.4607  0.1037 -0.1241
    3TTP     C4 3082   5.450   9.751   7.313  0.2764  0.0212 -0.0948
    3TTP    C17 3083   5.488   9.666   7.412  0.0524 -0.0441 -0.0630
    3TTP    C18 3084   5.482   9.727   7.541  0.1580  0.0033 -0.0799
    3TTP    C32 3085   5.356  10.059   7.666  0.0351  0.0586  0.6628
    3TTP    C33 3086   5.202  10.071   7.617 -0.4229  0.7226 -0.4477
    3TTP    C34 3087   5.088  10.001   7.693 -0.4542  0.7094  0.2789
    3TTP    C35 3088   4.961  10.013   7.630  1.0335 -0.2602  0.5360
    3TTP    C36 3089   4.833   9.989   7.727 -0.1582 -0.0898  0.8403
    3TTP    C37 3090   4.776  10.123   7.787 -0.2818  0.8671 -0.2562
    3TTP    C38 3091   4.743  10.097   7.939  0.4027 -0.7113  1.6899
    3TTP    C39 3092   4.853  10.065   8.046  1.3037  1.0643  1.1848
    3TTP    C40 3093   4.785  10.020   8.185 -0.7208  0.9809  1.5693
    3TTP    C41 3094   4.690   9.893   8.170  0.1040  0.1755 -1.3099
    3TTP    C42 3095   4.757   9.761   8.118 -0.0914  0.3303 -0.7611
    4FIC     F1 3096   6.349   8.468   6.972 -0.3704 -0.4120 -0.4618
    4FIC     F2 3097   6.467   8.474   6.726  0.1371 -0.0486 -0.2139
    4FIC     O1 3098   6.033   8.907   6.944 -0.1854 -0.2747 -0.4046
    4FIC     N5 3099   6.410   8.795   6.354  0.9983  0.5724  0.1832
    4FIC     N6 3100   6.139   9.137   6.382  1.0405  0.6063  0.1780
    4FIC    C19 3101   6.033   9.068   6.700  0.3650  0.1216 -0.1473
    4FIC    C20 3102   6.108   8.958   6.717  0.2987  0.0727 -0.1715
    4FIC    C21 3103   6.102   8.880   6.845  0.0110 -0.1340 -0.3064
    4FIC    C22 3104   6.195   8.767   6.830  0.0103 -0.1361 -0.2983
    4FIC    C23 3105   6.224   8.667   6.922 -0.2102 -0.2952 -0.3984
    4FIC    C24 3106   6.316   8.570   6.885 -0.1615 -0.2615 -0.3673
    4FIC    C25 3107   6.376   8.573   6.758  0.1000 -0.0738 -0.2395
    4FIC    C26 3108   6.348   8.672   6.665  0.3208  0.0854 -0.1391
    4FIC    C27 3109   6.255   8.771   6.701  0.2755  0.0541 -0.1688
    4FIC    C28 3110   6.204   8.889   6.627  0.4632  0.1903 -0.0858
    4FIC    C29 3111   6.239   8.927   6.499  0.7371  0.3865  0.0455
    4FIC    C30 3112   6.333   8.854   6.420  0.8796  0.4878  0.1208
    4FIC    C31 3113   6.184   9.042   6.436  0.9023  0.5064  0.1177
    5FIC     F1 3114   5.678   9.484   8.480 -0.0480 -0.4544 -0.4137
    5FIC     F2 3115   5.797   9.718   8.552 -0.1837 -0.4687 -0.1354
    5FIC     O1 3116   5.471   9.620   7.999 -0.1040 -0.0091 -0.2648
    5FIC     N5 3117   5.823  10.150   8.313 -0.4188 -0.1719  0.3707
    5FIC     N6 3118   5.637  10.209   7.922 -0.4351  0.1791  0.4311
    5FIC    C19 3119   5.512   9.892   7.897 -0.2535  0.1352  0.0538
    5FIC    C20 3120   5.559   9.848   8.015 -0.2341  0.0238  0.0055
    5FIC    C21 3121   5.534   9.707   8.060 -0.1560 -0.0448 -0.1605
    5FIC    C22 3122   5.599   9.694   8.192 -0.1541 -0.1619 -0.1733
    5FIC    C23 3123   5.602   9.581   8.274 -0.0936 -0.2558 -0.3045
    5FIC    C24 3124   5.670   9.592   8.394 -0.1052 -0.3579 -0.2886
    5FIC    C25 3125   5.732   9.712   8.432 -0.1754 -0.3652 -0.1448
    5FIC    C26 3126   5.728   9.825   8.351 -0.2358 -0.2718 -0.0134
    5FIC    C27 3127   5.661   9.816   8.228 -0.2252 -0.1676 -0.0272
    5FIC    C28 3128   5.639   9.916   8.121 -0.2770 -0.0536  0.0882
    5FIC    C29 3129   5.684  10.046   8.119 -0.3508 -0.0257  0.2425
    5FIC    C30 3130   5.760  10.103   8.226 -0.3879 -0.1063  0.3123
    5FIC    C31 3131   5.658  10.135   8.011 -0.3967  0.0868  0.3450
    1BTD     S2 3132   0.991   3.331   1.103 -0.2053  0.0157  0.0310
    1BTD     N1 3133   1.000   3.496   1.175 -0.1935  0.0411 -0.0288
    1BTD     N2 3134   0.934   3.252   1.254 -0.1728  0.0679  0.0706
    1BTD     N3 3135   0.832   3.390   1.692 -0.0854  0.2201  0.0433
    1BTD     N4 3136   0.914   3.689   1.594 -0.1110  0.1871 -0.0791
    1BTD     C5 3137   0.954   3.593   1.395 -0.1501  0.1177 -0.0536
    1BTD     C6 3138   0.961   3.484   1.301 -0.1674  0.0849 -0.0168
    1BTD     C7 3139   0.924   3.348   1.346 -0.1557  0.0999  0.0389
    1BTD     C8 3140   0.882   3.328   1.482 -0.1275  0.1469  0.0549
    1BTD    C15 3141   0.876   3.437   1.570 -0.1114  0.1778  0.0175
    1BTD    C16 3142   0.911   3.569   1.527 -0.1226  0.1635 -0.0361
    1BTD    C43 3143   0.835   3.730   1.714 -0.0716  0.9661 -0.1011
    1BTD    C44 3144   0.885   3.832   1.815 -0.5615  1.1506 -0.4370
    1BTD    C45 3145   0.765   3.860   1.914  0.8458  1.9420  0.1662
    1BTD    C46 3146   0.699   3.992   1.884  0.1627  0.0892  0.0306
    1BTD    C47 3147   1.038   3.821   1.856  0.2844  1.0697  0.0256
    1BTD    C48 3148   1.102   3.885   1.976 -0.9669 -0.2818 -0.7576
    1BTD    C49 3149   1.064   4.048   1.977 -1.6933  0.4766 -0.6206
    1BTD    C50 3150   1.041   4.120   2.105  1.2396 -1.7137  0.1828
    1BTD    C75 3151   0.856   3.443   1.830 -0.7315  0.2029  0.6104
    1BTD    C76 3152   0.988   3.400   1.911  0.5308 -0.8609  0.7721
    1BTD    C77 3153   1.124   3.381   1.826  1.1023  1.2602 -0.7320
    1BTD    C78 3154   1.155   3.261   1.740  0.7869 -0.2499  0.4950
    1BTD    C79 3155   1.010   3.445   2.040 -0.2661  0.1630 -0.4417
    1BTD    C80 3156   0.905   3.502   2.149  1.0157  0.5012 -0.2398
    1BTD    C81 3157   0.817   3.403   2.202  0.2237  1.7853  0.2610
    1BTD    C82 3158   0.877   3.308   2.307  0.3703 -0.9526  0.3743
    2TTP     S1 3159   1.034   3.843   1.252 -0.6549  0.0727 -0.1355
    2TTP     S5 3160   1.054   4.049   1.629 -0.3462 -0.2575  0.0286
    2TTP     C1 3161   1.121   4.158   1.500  0.0054 -0.3309  0.1476
    2TTP     C2 3162   1.119   4.101   1.376 -0.0693 -0.2333  0.1039
    2TTP     C3 3163   1.064   3.969   1.378 -0.4068 -0.0969 -0.0251
    2TTP     C4 3164   0.966   3.734   1.381 -1.0064  0.1461 -0.2545
    2TTP    C17 3165   0.969   3.791   1.505 -0.9318  0.0485 -0.2108
    2TTP    C18 3166   1.024   3.923   1.503 -0.5943 -0.0877 -0.0818
    2TTP    C32 3167   1.151   4.199   1.255  0.5810  1.0320 -0.4438
    2TTP    C33 3168   1.169   4.141   1.121 -1.1895 -0.3751  0.5114
    2TTP    C34 3169   1.280   4.053   1.101  1.6431 -0.0018  0.6151
    2TTP    C35 3170   1.295   4.000   0.969 -0.0756 -0.6522  0.2811
    2TTP    C36 3171   1.247   3.864   0.952 -0.1359 -0.0683  0.2564
    2TTP    C37 3172   1.294   3.771   0.847  0.0738 -0.0431  0.3621
    2TTP    C38 3173   1.255   3.801   0.703 -1.6862 -0.7726 -0.3911
    2TTP    C39 3174   1.233   3.684   0.606 -1.5295  0.7970 -1.2931
    2TTP    C40 3175   1.311   3.701   0.471  2.3053  0.1937  0.0730
    2TTP    C41 3176   1.307   3.836   0.401  2.2903  1.3413  1.6661
    2TTP    C42 3177   1.200   3.845   0.302  0.8970 -0.4343  0.5469
    3TTP     S1 3178   0.787   3.041   1.518 -0.1881  0.3023 -0.2157
    3TTP     S5 3179   0.653   3.144   1.914  0.1311  0.8909 -0.2587
    3TTP     C1 3180   0.591   2.978   1.873  0.0629  0.8467  0.0219
    3TTP     C2 3181   0.629   2.936   1.749 -0.0397  0.6623  0.0517
    3TTP     C3 3182   0.708   3.034   1.681 -0.0682  0.5494 -0.1460
    3TTP     C4 3183   0.848   3.207   1.559 -0.1199  0.3465 -0.4964
    3TTP    C17 3184   0.810   3.249   1.683 -0.0173  0.5309 -0.5262
    3TTP    C18 3185   0.731   3.151   1.751  0.0111  0.6440 -0.3285
    3TTP    C32 3186   0.603   2.798   1.678 -0.3183  0.3563 -0.2387
    3TTP    C33 3187   0.689   2.680   1.720  0.6534 -0.4733 -1.0758
    3TTP    C34 3188   0.632   2.545   1.668 -0.3446  0.2988  0.1273
    3TTP    C35 3189   0.693   2.415   1.713  1.3322 -0.2536  0.4836
    3TTP    C36 3190   0.781   2.329   1.618  0.2782 -0.4453 -0.3700
    3TTP    C37 3191   0.887   2.384   1.519  0.6638  1.6900  1.7150
    3TTP    C38 3192   0.919   2.288   1.400 -0.1647 -0.2425  0.2935
    3TTP    C39 3193   0.953   2.392   1.278  0.1804  0.4461 -0.6378
    3TTP    C40 3194   0.819   2.422   1.189  0.8526  0.5157  0.3567
    3TTP    C41 3195   0.830   2.325   1.066  1.2442 -1.1387  0.1032
    3TTP    C42 3196   0.705   2.328   0.972 -0.9915  0.4923 -0.5936
    4FIC     F1 3197   1.318   4.593   2.161 -0.2752 -0.1831  0.2310
    4FIC     F2 3198   1.231   4.815   2.031  0.2549 -0.2183 -0.1906
    4FIC     O1 3199   1.250   4.216   1.779 -0.5582 -0.6336  0.7229
    4FIC     N5 3200   1.056   4.866   1.570  0.8153 -0.5898 -0.4460
    4FIC     N6 3201   1.021   4.526   1.298  0.4873 -0.9348  0.0234
    4FIC    C19 3202   1.142   4.294   1.518 -0.1523 -0.8274  0.4949
    4FIC    C20 3203   1.163   4.380   1.620 -0.1018 -0.7125  0.3876
    4FIC    C21 3204   1.218   4.333   1.751 -0.3210 -0.6181  0.5165
    4FIC    C22 3205   1.228   4.451   1.838 -0.1984 -0.5044  0.3497
    4FIC    C23 3206   1.274   4.456   1.969 -0.3226 -0.3916  0.3891
    4FIC    C24 3207   1.274   4.580   2.032 -0.1652 -0.2970  0.2041
    4FIC    C25 3208   1.229   4.695   1.964  0.1079 -0.3153 -0.0128
    4FIC    C26 3209   1.183   4.690   1.833  0.2332 -0.4275 -0.0534
    4FIC    C27 3210   1.182   4.565   1.768  0.0770 -0.5244  0.1317
    4FIC    C28 3211   1.140   4.527   1.631  0.1472 -0.6533  0.1464
    4FIC    C29 3212   1.090   4.610   1.534  0.3956 -0.7068 -0.0299
    4FIC    C30 3213   1.072   4.750   1.555  0.6255 -0.6423 -0.2581
    4FIC    C31 3214   1.052   4.564   1.405  0.4446 -0.8320  0.0004
    5FIC     F1 3215   0.567   2.908   2.697  0.1338 -0.0998 -0.1164
    5FIC     F2 3216   0.403   2.693   2.664 -0.4578  0.3536 -0.1652
    5FIC     O1 3217   0.659   3.045   2.181  0.6275 -0.3186 -0.0881
    5FIC     N5 3218   0.233   2.482   2.250 -0.9565  0.8494 -0.2151
    5FIC     N6 3219   0.338   2.633   1.854 -0.4514  0.5870 -0.1831
    5FIC    C19 3220   0.535   2.889   1.967  0.2377  0.0368 -0.1246
    5FIC    C20 3221   0.518   2.863   2.098  0.1366  0.0741 -0.1298
    5FIC    C21 3222   0.585   2.948   2.202  0.3510 -0.1173 -0.1101
    5FIC    C22 3223   0.546   2.892   2.333  0.1679 -0.0185 -0.1220
    5FIC    C23 3224   0.584   2.937   2.459  0.2670 -0.1299 -0.1110
    5FIC    C24 3225   0.534   2.868   2.569  0.0515 -0.0005 -0.1260
    5FIC    C25 3226   0.450   2.757   2.552 -0.2532  0.2330 -0.1511
    5FIC    C26 3227   0.412   2.712   2.426 -0.3536  0.3453 -0.1621
    5FIC    C27 3228   0.461   2.780   2.314 -0.1387  0.2171 -0.1473
    5FIC    C28 3229   0.441   2.758   2.169 -0.1701  0.2833 -0.1531
    5FIC    C29 3230   0.364   2.659   2.112 -0.4332  0.4976 -0.1758
    5FIC    C30 3231   0.292   2.562   2.188 -0.7200  0.6903 -0.1973
    5FIC    C31 3232   0.350   2.645   1.970 -0.4417  0.5455 -0.1797
    1BTD     S2 3233   2.082   8.793   8.884 -0.3098 -0.0723 -0.1840
    1BTD     N1 3234   1.922   8.803   8.965  0.2127  0.6516  0.8025
    1BTD     N2 3235   2.138   8.652   8.980 -0.5906 -0.7689 -1.0083
    1BTD     N3 3236   1.964   8.383   9.324 -0.2190 -0.8817 -0.9072
    1BTD     N4 3237   1.697   8.569   9.304  0.7707  0.8686  1.3239
    1BTD     C5 3238   1.808   8.679   9.142  0.4921  0.7436  1.0478
    1BTD     C6 3239   1.919   8.706   9.055  0.1541  0.3521  0.4830
    1BTD     C7 3240   2.040   8.621   9.064 -0.2955 -0.4430 -0.5305
    1BTD     C8 3241   2.044   8.514   9.159 -0.3847 -0.8068 -0.9284
    1BTD    C15 3242   1.933   8.491   9.243 -0.0434 -0.4012 -0.3487
    1BTD    C16 3243   1.816   8.572   9.234  0.3897  0.3653  0.6280
    1BTD    C43 3244   1.614   8.437   9.323  0.7602  0.5655  0.3359
    1BTD    C44 3245   1.486   8.454   9.406  1.4934  0.1942  1.6545
    1BTD    C45 3246   1.355   8.358   9.387 -1.5480  0.1665  1.0180
    1BTD    C46 3247   1.380   8.210   9.422  0.1515 -0.8696  0.0466
    1BTD    C47 3248   1.515   8.496   9.548  0.0553  0.3683 -1.3389
    1BTD    C48 3249   1.522   8.409   9.673  1.1321  0.6944 -0.7413
    1BTD    C49 3250   1.581   8.424   9.826  0.9981 -0.0907  0.8282
    1BTD    C50 3251   1.544   8.325   9.932 -0.0181 -0.7267 -0.2486
    1BTD    C75 3252   1.885   8.340   9.447  0.0846 -0.1042 -0.2698
    1BTD    C76 3253   1.849   8.195   9.486 -0.5425 -0.3021  0.2903
    1BTD    C77 3254   1.760   8.117   9.391  0.5922  0.2306 -0.4061
    1BTD    C78 3255   1.816   8.054   9.271 -0.4084 -1.2164  0.0067
    1BTD    C79 3256   1.846   8.162   9.637 -0.0481 -0.1065 -1.5713
    1BTD    C80 3257   1.960   8.219   9.718  0.5681  0.6316 -0.4134
    1BTD    C81 3258   1.904   8.256   9.865  1.7505 -1.1590  0.1229
    1BTD    C82 3259   1.987   8.362   9.941 -0.0797 -0.2966  0.3114
    2TTP     S1 3260   1.607   8.894   9.100 -0.4167  0.0477 -0.0807
    2TTP     S5 3261   1.478   8.811   9.502 -0.1361  0.4373  0.0923
    2TTP     C1 3262   1.406   8.970   9.449  0.0345  0.5117  0.0822
    2TTP     C2 3263   1.441   9.005   9.322 -0.0421  0.3958  0.0279
    2TTP     C3 3264   1.527   8.907   9.262 -0.2383  0.2444 -0.0074
    2TTP     C4 3265   1.679   8.735   9.152 -0.5873 -0.0269 -0.0706
    2TTP    C17 3266   1.643   8.700   9.280 -0.5108  0.0892 -0.0166
    2TTP    C18 3267   1.558   8.798   9.340 -0.3145  0.2408  0.0188
    2TTP    C32 3268   1.373   9.122   9.251 -1.3009 -0.1369 -0.7225
    2TTP    C33 3269   1.280   9.098   9.142  0.5625  0.3652 -0.2859
    2TTP    C34 3270   1.216   9.229   9.110  0.3657  1.0600  0.3938
    2TTP    C35 3271   1.081   9.213   9.039  0.1066  0.3391  0.2912
    2TTP    C36 3272   0.954   9.276   9.098 -0.5654  0.2786 -1.0794
    2TTP    C37 3273   0.828   9.285   9.020 -0.4059 -0.2041  0.3665
    2TTP    C38 3274   0.697   9.314   9.102  0.9200 -0.0041 -0.2286
    2TTP    C39 3275   0.618   9.205   9.177 -0.0030  0.3246 -0.3890
    2TTP    C40 3276   0.509   9.292   9.256 -0.4636 -0.4094 -1.1969
    2TTP    C41 3277   0.409   9.201   9.338 -1.4448  0.0955 -0.9958
    2TTP    C42 3278   0.409   9.215   9.487 -2.0997  0.4084 -0.0304
    3TTP     S1 3279   2.323   8.380   9.166 -0.1617 -0.0308  0.2288
    3TTP     S5 3280   2.173   8.096   9.452 -0.2099 -0.2077  0.0293
    3TTP     C1 3281   2.348   8.058   9.419 -0.1308 -0.0242  0.2341
    3TTP     C2 3282   2.404   8.144   9.329 -0.1112  0.0412  0.3078
    3TTP     C3 3283   2.312   8.242   9.282 -0.1581 -0.0513  0.2048
    3TTP     C4 3284   2.148   8.418   9.199 -0.2410 -0.2141  0.0238
    3TTP    C17 3285   2.091   8.332   9.289 -0.2604 -0.2796 -0.0500
    3TTP    C18 3286   2.184   8.234   9.335 -0.2136 -0.1874  0.0529
    3TTP    C32 3287   2.554   8.143   9.274  0.8781  0.0438  0.3822
    3TTP    C33 3288   2.583   8.087   9.127 -0.4739 -1.2555 -0.3125
    3TTP    C34 3289   2.488   8.062   9.024  0.4624 -1.1470  0.0723
    3TTP    C35 3290   2.473   7.902   9.002  0.8369  0.9135  0.1753
    3TTP    C36 3291   2.547   7.843   8.882  0.0350  0.4501  0.1862
    3TTP    C37 3292   2.546   7.688   8.868 -0.7995 -0.4999 -0.5754
    3TTP    C38 3293   2.689   7.641   8.810  0.7608 -0.1275  0.6963
    3TTP    C39 3294   2.730   7.492   8.816  1.3568  0.0271 -0.1076
    3TTP    C40 3295   2.865   7.445   8.764  0.8567 -0.9011  0.2872
    3TTP    C41 3296   2.864   7.420   8.610 -0.9104  0.6491  0.0886
    3TTP    C42 3297   3.010   7.458   8.558  0.3878 -0.7325 -0.1983
    4FIC     F1 3298   1.002   8.855  10.160 -0.6342 -0.1645 -0.4785
    4FIC     F2 3299   0.930   9.118  10.157  0.4141  0.1426  0.2894
    4FIC     O1 3300   1.292   8.824   9.704 -0.8624 -0.0207 -0.6344
    4FIC     N5 3301   1.034   9.473   9.828  1.7585  0.6866  1.2829
    4FIC     N6 3302   1.275   9.396   9.473  1.3689  0.7372  1.0064
    4FIC    C19 3303   1.327   9.064   9.539  0.0580  0.3237  0.0443
    4FIC    C20 3304   1.256   9.061   9.654  0.0744  0.2751  0.0532
    4FIC    C21 3305   1.243   8.934   9.733 -0.4156  0.0961 -0.3078
    4FIC    C22 3306   1.161   8.967   9.851 -0.2592  0.0873 -0.1960
    4FIC    C23 3307   1.122   8.881   9.954 -0.5786 -0.0534 -0.4327
    4FIC    C24 3308   1.044   8.935  10.055 -0.3414 -0.0309 -0.2614
    4FIC    C25 3309   1.008   9.070  10.054  0.1988  0.1271  0.1345
    4FIC    C26 3310   1.046   9.156   9.952  0.5198  0.2680  0.3724
    4FIC    C27 3311   1.125   9.104   9.848  0.2868  0.2480  0.2041
    4FIC    C28 3312   1.182   9.167   9.727  0.5133  0.3700  0.3731
    4FIC    C29 3313   1.168   9.299   9.689  1.0308  0.5381  0.7532
    4FIC    C30 3314   1.095   9.394   9.766  1.4291  0.6192  1.0428
    4FIC    C31 3315   1.227   9.351   9.570  1.2138  0.6466  0.8903
    5FIC     F1 3316   2.178   7.447   9.936  0.1463 -0.1591 -0.1245
    5FIC     F2 3317   2.397   7.316   9.841  0.0962 -0.0861 -0.3431
    5FIC     O1 3318   2.199   7.903   9.645  0.0068  0.0781  0.2372
    5FIC     N5 3319   2.727   7.453   9.499 -0.0755  0.1881 -0.4001
    5FIC     N6 3320   2.699   7.836   9.291 -0.1744  0.3587 -0.0732
    5FIC    C19 3321   2.416   7.941   9.452 -0.0906  0.2323  0.1571
    5FIC    C20 3322   2.402   7.831   9.529 -0.0536  0.1696  0.0744
    5FIC    C21 3323   2.288   7.819   9.626 -0.0046  0.0924  0.1230
    5FIC    C22 3324   2.302   7.688   9.693  0.0269  0.0376  0.0088
    5FIC    C23 3325   2.220   7.633   9.790  0.0758 -0.0411  0.0057
    5FIC    C24 3326   2.255   7.508   9.839  0.0980 -0.0811 -0.1144
    5FIC    C25 3327   2.368   7.440   9.790  0.0722 -0.0435 -0.2266
    5FIC    C26 3328   2.450   7.495   9.692  0.0235  0.0349 -0.2244
    5FIC    C27 3329   2.417   7.622   9.642  0.0003  0.0764 -0.1037
    5FIC    C28 3330   2.482   7.707   9.540 -0.0502  0.1591 -0.0682
    5FIC    C29 3331   2.596   7.676   9.469 -0.0871  0.2153 -0.1509
    5FIC    C30 3332   2.668   7.554   9.486 -0.0805  0.2004 -0.2875
    5FIC    C31 3333   2.652   7.764   9.372 -0.1348  0.2940 -0.1073
    1BTD     S2 3334   0.426   4.930   1.479  0.2932 -0.2316 -0.1366
    1BTD     N1 3335   0.444   5.106   1.443  0.5684 -0.4234 -0.9631
    1BTD     N2 3336   0.260   4.919   1.411 -0.1414 -0.0706  0.8670
    1BTD     N3 3337  -0.046   5.211   1.208 -0.5302 -0.0888  1.4199
    1BTD     N4 3338   0.181   5.441   1.246  0.3445 -0.5234 -0.8351
    1BTD     C5 3339   0.304   5.278   1.340  0.4409 -0.4704 -0.8691
    1BTD     C6 3340   0.331   5.144   1.385  0.3343 -0.3607 -0.4737
    1BTD     C7 3341   0.228   5.040   1.367 -0.0630 -0.1632  0.5507
    1BTD     C8 3342   0.103   5.074   1.305 -0.3338 -0.0854  1.1285
    1BTD    C15 3343   0.081   5.206   1.263 -0.2166 -0.1979  0.7107
    1BTD    C16 3344   0.180   5.307   1.279  0.1662 -0.3882 -0.2764
    1BTD    C43 3345   0.068   5.536   1.283 -1.3096 -0.2372 -0.3062
    1BTD    C44 3346  -0.035   5.482   1.388  0.3734  0.1214 -0.5398
    1BTD    C45 3347   0.035   5.447   1.527  0.3939 -0.1457  0.1703
    1BTD    C46 3348  -0.045   5.357   1.619 -0.5796 -0.1629  1.4315
    1BTD    C47 3349  -0.174   5.557   1.388  0.0595 -0.0719 -0.6797
    1BTD    C48 3350  -0.155   5.713   1.431 -1.5737 -1.1325  0.5353
    1BTD    C49 3351  -0.271   5.786   1.507 -0.1363  0.0028 -0.9987
    1BTD    C50 3352  -0.257   5.935   1.550 -1.2813  0.5680 -0.5775
    1BTD    C75 3353  -0.077   5.297   1.080 -0.3865 -0.6903 -0.7302
    1BTD    C76 3354  -0.208   5.291   0.997 -0.1030  1.0832  0.3936
    1BTD    C77 3355  -0.271   5.157   0.963  0.1949 -0.0418  0.0032
    1BTD    C78 3356  -0.198   5.043   0.892  0.3144 -1.8235  0.3857
    1BTD    C79 3357  -0.287   5.399   1.050 -0.3771  0.0029  0.7560
    1BTD    C80 3358  -0.424   5.426   0.968  0.3115  0.2541  1.8771
    1BTD    C81 3359  -0.533   5.531   0.995 -0.6360  1.5846  0.4298
    1BTD    C82 3360  -0.622   5.519   1.125  1.0659 -0.0164  1.0725
    2TTP     S1 3361   0.537   5.467   1.420  0.0593 -0.1195  0.0893
    2TTP     S5 3362   0.361   5.775   1.177  0.5898 -0.1789 -0.3745
    2TTP     C1 3363   0.517   5.837   1.245  0.3762 -0.1135  0.0664
    2TTP     C2 3364   0.581   5.746   1.324  0.1998 -0.0913  0.2357
    2TTP     C3 3365   0.508   5.623   1.333  0.2270 -0.1252  0.0232
    2TTP     C4 3366   0.380   5.405   1.352  0.2728 -0.1850 -0.3516
    2TTP    C17 3367   0.316   5.496   1.273  0.4492 -0.2072 -0.5209
    2TTP    C18 3368   0.389   5.619   1.263  0.4221 -0.1733 -0.3084
    2TTP    C32 3369   0.711   5.768   1.398  0.7322 -0.5026 -0.9401
    2TTP    C33 3370   0.850   5.742   1.339  0.8550  1.2607  1.6508
    2TTP    C34 3371   0.967   5.726   1.434  0.0433  0.8395 -0.4764
    2TTP    C35 3372   1.023   5.851   1.487 -0.5445 -1.1154  0.3641
    2TTP    C36 3373   1.132   5.875   1.591 -0.4586 -0.7177  1.6717
    2TTP    C37 3374   1.205   6.012   1.579 -0.3065 -0.1037 -0.2269
    2TTP    C38 3375   1.153   6.134   1.649  0.3700 -0.9840  0.8576
    2TTP    C39 3376   1.205   6.135   1.787  1.3708  0.5629  0.5997
    2TTP    C40 3377   1.340   6.166   1.807 -1.6324  0.0119  0.2617
    2TTP    C41 3378   1.407   6.084   1.921 -1.4232 -1.4742 -0.2064
    2TTP    C42 3379   1.355   6.126   2.063  0.5239  0.7339 -0.0628
    3TTP     S1 3380  -0.076   4.852   1.357 -0.4180  0.2556  0.1935
    3TTP     S5 3381  -0.395   5.135   1.300 -0.3750  0.2787  0.0657
    3TTP     C1 3382  -0.460   4.991   1.391 -0.4599  0.2128 -0.0996
    3TTP     C2 3383  -0.365   4.895   1.413 -0.4783  0.2018 -0.0699
    3TTP     C3 3384  -0.238   4.932   1.360 -0.4258  0.2450  0.0845
    3TTP     C4 3385  -0.010   4.996   1.266 -0.3330  0.3215  0.3589
    3TTP    C17 3386  -0.105   5.092   1.244 -0.3147  0.3325  0.3292
    3TTP    C18 3387  -0.233   5.055   1.297 -0.3672  0.2891  0.1747
    3TTP    C32 3388  -0.393   4.758   1.471 -0.7387  0.3018  0.4395
    3TTP    C33 3389  -0.276   4.712   1.566 -0.4033 -0.9224  0.6886
    3TTP    C34 3390  -0.302   4.594   1.660 -0.2913 -1.0536 -0.1762
    3TTP    C35 3391  -0.190   4.568   1.750  0.2223 -0.2836  0.9042
    3TTP    C36 3392  -0.182   4.450   1.838  0.3397  0.1361  0.3387
    3TTP    C37 3393  -0.177   4.302   1.786  0.0535  0.5879  0.6973
    3TTP    C38 3394  -0.151   4.196   1.899  0.1734 -0.9589 -1.6745
    3TTP    C39 3395  -0.220   4.058   1.875 -0.0419 -0.1177 -0.3747
    3TTP    C40 3396  -0.155   3.938   1.943  0.3674 -0.4995  0.1662
    3TTP    C41 3397  -0.094   3.971   2.077 -0.5604  0.0409 -0.6390
    3TTP    C42 3398  -0.183   3.977   2.194 -1.0553 -0.2647 -0.0440
    4FIC     F1 3399   0.445   6.357   0.618 -0.2485  0.0020  0.3263
    4FIC     F2 3400   0.580   6.543   0.764 -0.1107 -0.0147  0.2203
    4FIC     O1 3401   0.445   5.938   0.961 -0.5207  0.1817  0.5476
    4FIC     N5 3402   0.775   6.511   1.218 -0.1065  0.0895  0.2258
    4FIC     N6 3403   0.748   6.146   1.456 -0.3469  0.2334  0.4201
    4FIC    C19 3404   0.575   5.966   1.222 -0.4857  0.2296  0.5251
    4FIC    C20 3405   0.569   6.065   1.130 -0.4226  0.1851  0.4735
    4FIC    C21 3406   0.501   6.042   0.998 -0.4457  0.1628  0.4892
    4FIC    C22 3407   0.513   6.168   0.923 -0.3623  0.1147  0.4219
    4FIC    C23 3408   0.465   6.196   0.795 -0.3504  0.0805  0.4101
    4FIC    C24 3409   0.489   6.323   0.744 -0.2650  0.0374  0.3417
    4FIC    C25 3410   0.559   6.418   0.819 -0.1941  0.0288  0.2872
    4FIC    C26 3411   0.607   6.392   0.947 -0.2055  0.0628  0.2987
    4FIC    C27 3412   0.584   6.264   1.000 -0.2914  0.1067  0.3675
    4FIC    C28 3413   0.621   6.204   1.131 -0.3257  0.1497  0.3971
    4FIC    C29 3414   0.690   6.265   1.232 -0.2769  0.1556  0.3605
    4FIC    C30 3415   0.736   6.400   1.224 -0.1834  0.1193  0.2866
    4FIC    C31 3416   0.722   6.199   1.355 -0.3157  0.1984  0.3935
    5FIC     F1 3417  -1.217   5.246   1.208 -0.3188  0.2043  0.1481
    5FIC     F2 3418  -1.310   5.116   1.428 -0.1805  0.1041  0.1471
    5FIC     O1 3419  -0.691   5.121   1.229 -0.2494  0.4592 -0.0598
    5FIC     N5 3420  -1.068   4.840   1.760  0.0677  0.1417 -0.0024
    5FIC     N6 3421  -0.638   4.768   1.731  0.0937  0.3608 -0.1646
    5FIC    C19 3422  -0.592   4.952   1.446 -0.0929  0.4539 -0.1345
    5FIC    C20 3423  -0.721   4.989   1.433 -0.1156  0.3936 -0.0821
    5FIC    C21 3424  -0.764   5.076   1.318 -0.1972  0.4008 -0.0463
    5FIC    C22 3425  -0.909   5.096   1.333 -0.2027  0.3253  0.0076
    5FIC    C23 3426  -0.994   5.170   1.251 -0.2666  0.3041  0.0542
    5FIC    C24 3427  -1.128   5.175   1.285 -0.2576  0.2293  0.1005
    5FIC    C25 3428  -1.175   5.108   1.399 -0.1864  0.1776  0.0999
    5FIC    C26 3429  -1.092   5.034   1.481 -0.1218  0.1986  0.0536
    5FIC    C27 3430  -0.956   5.028   1.448 -0.1299  0.2742  0.0063
    5FIC    C28 3431  -0.842   4.959   1.514 -0.0739  0.3140 -0.0489
    5FIC    C29 3432  -0.847   4.883   1.628  0.0024  0.2830 -0.0659
    5FIC    C30 3433  -0.968   4.859   1.700  0.0379  0.2054 -0.0309
    5FIC    C31 3434  -0.732   4.820   1.684  0.0525  0.3262 -0.1200
    1BTD     S2 3435   9.352   1.973   8.543 -0.1572  0.2249  0.4835
    1BTD     N1 3436   9.254   1.825   8.572  0.1073 -0.1369 -0.3860
    1BTD     N2 3437   9.223   2.058   8.452 -0.2656  0.4820  0.8738
    1BTD     N3 3438   8.782   1.967   8.319 -0.0088  0.3530  0.1001
    1BTD     N4 3439   8.820   1.679   8.467  0.4511 -0.4096 -1.4524
    1BTD     C5 3440   9.027   1.752   8.515  0.2813 -0.2701 -0.9243
    1BTD     C6 3441   9.136   1.846   8.515  0.1016 -0.0517 -0.3426
    1BTD     C7 3442   9.119   1.977   8.448 -0.1075  0.2947  0.3624
    1BTD     C8 3443   8.994   2.007   8.384 -0.1259  0.4055  0.4508
    1BTD    C15 3444   8.890   1.912   8.387  0.0540  0.1830 -0.1332
    1BTD    C16 3445   8.906   1.786   8.452  0.2554 -0.1508 -0.8129
    1BTD    C43 3446   8.672   1.682   8.459  0.6245  1.1585 -1.1833
    1BTD    C44 3447   8.587   1.695   8.590 -0.0238 -0.1152  0.1968
    1BTD    C45 3448   8.451   1.620   8.568  0.3229  0.3506 -0.5742
    1BTD    C46 3449   8.398   1.565   8.695  0.9908 -0.8246  1.4073
    1BTD    C47 3450   8.562   1.841   8.657 -0.5938  0.6561  0.5157
    1BTD    C48 3451   8.515   1.949   8.554 -0.1894 -0.0643 -1.0703
    1BTD    C49 3452   8.575   2.093   8.570 -0.0417  0.9687 -1.0572
    1BTD    C50 3453   8.617   2.155   8.708 -0.8606  0.6046  0.8713
    1BTD    C75 3454   8.709   1.906   8.203  0.6145 -1.1364  0.0106
    1BTD    C76 3455   8.743   1.779   8.129  0.2622  2.0548 -0.2621
    1BTD    C77 3456   8.637   1.718   8.020 -0.8565  0.3906  1.9113
    1BTD    C78 3457   8.484   1.720   8.056 -0.2056 -0.3388 -0.0594
    1BTD    C79 3458   8.893   1.745   8.110  1.3013  1.6068  0.5999
    1BTD    C80 3459   8.996   1.801   8.025  0.2792 -1.5411 -0.7971
    1BTD    C81 3460   8.970   1.784   7.886  0.7336 -0.1183  0.5216
    1BTD    C82 3461   8.857   1.892   7.835 -0.9908  0.0799  0.8220
    2TTP     S1 3462   9.116   1.492   8.654  0.2583 -0.0782 -0.6237
    2TTP     S5 3463   8.713   1.348   8.609  0.2496 -0.2811  0.0861
    2TTP     C1 3464   8.811   1.220   8.693  0.4535 -0.2173 -0.0532
    2TTP     C2 3465   8.941   1.257   8.712  0.4680 -0.1509 -0.2806
    2TTP     C3 3466   8.968   1.388   8.661  0.3190 -0.1481 -0.3531
    2TTP     C4 3467   9.018   1.620   8.570  0.0544 -0.1421 -0.4845
    2TTP    C17 3468   8.888   1.583   8.551  0.0394 -0.2085 -0.2570
    2TTP    C18 3469   8.861   1.453   8.602  0.1888 -0.2114 -0.1845
    2TTP    C32 3470   9.071   1.183   8.751  0.5643 -0.8578  0.4430
    2TTP    C33 3471   9.089   1.061   8.661  0.8075 -0.9717 -0.5267
    2TTP    C34 3472   9.110   1.081   8.513 -0.0871  0.9353 -0.4547
    2TTP    C35 3473   9.050   0.980   8.413  1.5621 -0.4342  0.8417
    2TTP    C36 3474   9.113   0.844   8.394 -0.3190  0.0769  0.9385
    2TTP    C37 3475   9.062   0.795   8.253  0.2173  0.9573  0.4205
    2TTP    C38 3476   9.113   0.651   8.243  0.7518  1.0908  2.0958
    2TTP    C39 3477   9.057   0.529   8.332 -0.5506 -1.0688  0.2759
    2TTP    C40 3478   8.914   0.479   8.294  0.3753 -0.0450 -0.6691
    2TTP    C41 3479   8.808   0.550   8.232  0.1772 -1.5071  0.2637
    2TTP    C42 3480   8.714   0.450   8.167 -0.5563 -0.4312  0.0533
    3TTP     S1 3481   9.000   2.290   8.306 -0.1793  0.2561  0.5317
    3TTP     S5 3482   8.577   2.262   8.232 -0.0803  0.2711 -0.0460
    3TTP     C1 3483   8.624   2.438   8.235 -0.1708  0.2889  0.5544
    3TTP     C2 3484   8.757   2.457   8.258 -0.2069  0.2854  0.7679
    3TTP     C3 3485   8.827   2.333   8.274 -0.1638  0.2684  0.4659
    3TTP     C4 3486   8.953   2.114   8.303 -0.0887  0.2383 -0.0687
    3TTP    C17 3487   8.820   2.095   8.280 -0.0527  0.2419 -0.2818
    3TTP    C18 3488   8.750   2.219   8.264 -0.0954  0.2588  0.0207
    3TTP    C32 3489   8.814   2.599   8.252 -0.3864 -0.7371 -1.2023
    3TTP    C33 3490   8.938   2.655   8.345  0.1411 -0.1458  0.3219
    3TTP    C34 3491   8.980   2.796   8.305 -0.9505 -1.9307  0.2490
    3TTP    C35 3492   8.879   2.902   8.358  0.6651 -0.1260  0.1978
    3TTP    C36 3493   8.877   3.025   8.264 -1.0509  0.9233  0.2335
    3TTP    C37 3494   8.832   3.151   8.323  0.7252  0.3856 -0.8303
    3TTP    C38 3495   8.686   3.144   8.380 -0.1804 -1.1294 -0.0788
    3TTP    C39 3496   8.660   3.158   8.531 -0.7368  0.1693 -0.6635
    3TTP    C40 3497   8.522   3.122   8.587 -0.5864  0.2512  1.4496
    3TTP    C41 3498   8.451   2.983   8.578  0.1686 -0.4288  0.0532
    3TTP    C42 3499   8.524   2.846   8.582  0.5593 -0.0378  0.3155
    4FIC     F1 3500   8.158   0.743   8.540  0.1378 -0.4932  0.3607
    4FIC     F2 3501   8.265   0.557   8.708  0.3438 -0.5902  0.1233
    4FIC     O1 3502   8.533   1.133   8.567 -0.0458 -0.3242  0.4680
    4FIC     N5 3503   8.686   0.569   8.968  0.5093 -0.6093 -0.1416
    4FIC     N6 3504   8.957   0.911   8.955  0.3240 -0.4578 -0.0100
    4FIC    C19 3505   8.768   1.095   8.737  0.0859 -0.3570  0.2791
    4FIC    C20 3506   8.670   1.004   8.723  0.1240 -0.3956  0.2613
    4FIC    C21 3507   8.552   1.031   8.634  0.0513 -0.3755  0.3629
    4FIC    C22 3508   8.465   0.912   8.643  0.1180 -0.4284  0.3133
    4FIC    C23 3509   8.343   0.891   8.578  0.0861 -0.4317  0.3734
    4FIC    C24 3510   8.279   0.771   8.602  0.1639 -0.4867  0.3071
    4FIC    C25 3511   8.334   0.675   8.688  0.2696 -0.5367  0.1849
    4FIC    C26 3512   8.455   0.696   8.753  0.3023 -0.5337  0.1242
    4FIC    C27 3513   8.522   0.817   8.731  0.2251 -0.4783  0.1895
    4FIC    C28 3514   8.650   0.869   8.784  0.2325 -0.4602  0.1531
    4FIC    C29 3515   8.735   0.805   8.871  0.3233 -0.4964  0.0403
    4FIC    C30 3516   8.708   0.675   8.924  0.4253 -0.5584 -0.0594
    4FIC    C31 3517   8.856   0.864   8.917  0.3233 -0.4749  0.0134
    5FIC     F1 3518   7.859   2.571   8.528  0.1221 -0.3570 -0.6030
    5FIC     F2 3519   7.862   2.815   8.406  0.1799  0.1639  0.4168
    5FIC     O1 3520   8.355   2.391   8.405  0.1905  0.1666 -1.1094
    5FIC     N5 3521   8.218   3.036   8.143  0.3121  1.2860  1.5216
    5FIC     N6 3522   8.605   2.845   8.072  0.3538  1.5901  0.9208
    5FIC    C19 3523   8.533   2.559   8.245  0.2699  0.8502 -0.3149
    5FIC    C20 3524   8.408   2.595   8.281  0.2503  0.6981 -0.2275
    5FIC    C21 3525   8.323   2.503   8.363  0.2096  0.3461 -0.6559
    5FIC    C22 3526   8.194   2.572   8.384  0.1974  0.2585 -0.4296
    5FIC    C23 3527   8.083   2.527   8.454  0.1616 -0.0420 -0.6771
    5FIC    C24 3528   7.973   2.610   8.460  0.1566 -0.0668 -0.3828
    5FIC    C25 3529   7.974   2.736   8.397  0.1865  0.2020  0.1421
    5FIC    C26 3530   8.085   2.782   8.326  0.2222  0.5024  0.3920
    5FIC    C27 3531   8.197   2.699   8.319  0.2282  0.5322  0.1001
    5FIC    C28 3532   8.329   2.717   8.254  0.2620  0.8131  0.2453
    5FIC    C29 3533   8.370   2.827   8.182  0.2968  1.1209  0.7262
    5FIC    C30 3534   8.286   2.942   8.161  0.3052  1.2105  1.1621
    5FIC    C31 3535   8.499   2.837   8.122  0.3278  1.3772  0.8302
    1BTD     S2 3536   5.668   8.104   0.384  0.1167 -0.5322 -0.3299
    1BTD     N1 3537   5.506   8.160   0.329  0.0876 -0.5240 -0.2370
    1BTD     N2 3538   5.758   8.198   0.260  0.0695 -0.2680 -0.1662
    1BTD     N3 3539   5.651   8.490  -0.091 -0.0789  0.2859  0.3350
    1BTD     N4 3540   5.340   8.443  -0.006 -0.0565 -0.0300  0.2477
    1BTD     C5 3541   5.423   8.309   0.153  0.0122 -0.2625  0.0172
    1BTD     C6 3542   5.527   8.242   0.227  0.0465 -0.3345 -0.0961
    1BTD     C7 3543   5.668   8.263   0.188  0.0362 -0.1910 -0.0565
    1BTD     C8 3544   5.698   8.350   0.078 -0.0077  0.0174  0.0944
    1BTD    C15 3545   5.593   8.413   0.008 -0.0404  0.0813  0.2016
    1BTD    C16 3546   5.457   8.393   0.046 -0.0306 -0.0570  0.1634
    1BTD    C43 3547   5.320   8.457  -0.158 -0.5596 -0.7785 -0.9203
    1BTD    C44 3548   5.220   8.374  -0.230  0.0142 -0.5169  0.1294
    1BTD    C45 3549   5.132   8.432  -0.341 -0.2196  0.2759  0.6744
    1BTD    C46 3550   5.070   8.560  -0.305  3.0014  0.2890 -0.5421
    1BTD    C47 3551   5.225   8.214  -0.254  0.0796 -0.9445  0.1014
    1BTD    C48 3552   5.318   8.129  -0.183  1.3462  0.0996 -0.1468
    1BTD    C49 3553   5.271   8.035  -0.075  0.0079  0.3031  1.2459
    1BTD    C50 3554   5.143   8.058   0.005  0.0682  0.9568  0.5020
    1BTD    C75 3555   5.600   8.601  -0.174  0.9401  0.0334  0.2645
    1BTD    C76 3556   5.609   8.755  -0.142 -0.7517  1.6925  0.3018
    1BTD    C77 3557   5.585   8.833  -0.272 -0.3882 -0.2134 -1.3486
    1BTD    C78 3558   5.670   8.811  -0.391 -1.3447  0.2712 -0.0618
    1BTD    C79 3559   5.527   8.792  -0.019 -1.1372  0.7207  0.0224
    1BTD    C80 3560   5.374   8.825  -0.052 -0.9340 -0.2201 -0.6500
    1BTD    C81 3561   5.276   8.814   0.066  0.9765  0.6032 -1.3166
    1BTD    C82 3562   5.302   8.865   0.206  1.1373 -0.0399  0.1665
    2TTP     S1 3563   5.170   8.292   0.314  0.3269 -0.1549 -0.2371
    2TTP     S5 3564   5.017   8.605   0.063 -0.0807  0.1395  0.3721
    2TTP     C1 3565   4.912   8.593   0.210  0.0161 -0.1930  0.4148
    2TTP     C2 3566   4.953   8.495   0.297  0.1475 -0.3035  0.2292
    2TTP     C3 3567   5.069   8.427   0.249  0.1768 -0.1297  0.0466
    2TTP     C4 3568   5.276   8.304   0.167  0.2302  0.1776 -0.2797
    2TTP    C17 3569   5.235   8.402   0.080  0.0988  0.2879 -0.0941
    2TTP    C18 3570   5.119   8.470   0.128  0.0695  0.1140  0.0885
    2TTP    C32 3571   4.866   8.424   0.393  0.7041 -1.1841 -0.0707
    2TTP    C33 3572   4.951   8.468   0.525  0.1486  0.5880  1.9805
    2TTP    C34 3573   4.857   8.483   0.643 -0.1803 -0.6641  0.1793
    2TTP    C35 3574   4.946   8.513   0.768 -2.0911  0.3106 -0.8096
    2TTP    C36 3575   4.876   8.528   0.905  0.2804  0.1686  0.1468
    2TTP    C37 3576   4.803   8.659   0.912  1.7354  0.3192  0.1835
    2TTP    C38 3577   4.889   8.791   0.893 -2.0508  0.1164 -0.6010
    2TTP    C39 3578   4.820   8.921   0.913  0.8892  0.9441 -0.7215
    2TTP    C40 3579   4.814   8.980   1.053  0.6714 -1.6753  1.1028
    2TTP    C41 3580   4.916   8.938   1.141  0.3479  1.1822  0.0272
    2TTP    C42 3581   4.887   8.969   1.286  0.0346 -0.2487  0.9879
    3TTP     S1 3582   5.990   8.315  -0.004 -0.1506 -0.2958 -0.0816
    3TTP     S5 3583   5.912   8.547  -0.357 -0.7544  0.2968  0.4368
    3TTP     C1 3584   6.077   8.471  -0.373 -0.7480  0.3853  0.0630
    3TTP     C2 3585   6.111   8.395  -0.265 -0.5611  0.2074 -0.1192
    3TTP     C3 3586   6.008   8.394  -0.166 -0.4163 -0.0050  0.0298
    3TTP     C4 3587   5.826   8.391   0.012 -0.1568 -0.3843  0.2923
    3TTP    C17 3588   5.792   8.467  -0.096 -0.3437 -0.2065  0.4744
    3TTP    C18 3589   5.895   8.468  -0.196 -0.4886  0.0060  0.3252
    3TTP    C32 3590   6.253   8.345  -0.231 -0.2074 -0.0604  0.3041
    3TTP    C33 3591   6.333   8.394  -0.110  0.9516  0.9501  0.4075
    3TTP    C34 3592   6.457   8.309  -0.081 -0.4597 -0.2444 -0.1557
    3TTP    C35 3593   6.524   8.370   0.042 -1.0996 -0.8207  1.1236
    3TTP    C36 3594   6.657   8.311   0.055 -0.2635  1.2829  0.1055
    3TTP    C37 3595   6.759   8.361   0.152  0.9896 -0.6587  0.2415
    3TTP    C38 3596   6.891   8.311   0.097 -0.4180 -1.2585  0.5724
    3TTP    C39 3597   6.999   8.372   0.183 -0.6022 -0.9204 -0.4822
    3TTP    C40 3598   7.090   8.274   0.262 -0.5171  0.2499  0.4580
    3TTP    C41 3599   7.038   8.158   0.344  1.5738  0.4181 -0.2567
    3TTP    C42 3600   7.111   8.124   0.473  0.0729 -0.2635 -0.4200
    4FIC     F1 3601   4.717   9.373   0.007 -0.4964 -0.1321 -0.3676
    4FIC     F2 3602   4.498   9.354   0.167 -0.0317  0.1221  0.3058
    4FIC     O1 3603   4.931   8.879   0.066 -0.4812 -0.1330 -0.4288
    4FIC     N5 3604   4.336   8.974   0.440  0.6475  0.4873  1.2303
    4FIC     N6 3605   4.547   8.592   0.454  0.5658  0.4356  1.0467
    4FIC    C19 3606   4.797   8.685   0.240 -0.0318  0.1100  0.1928
    4FIC    C20 3607   4.752   8.810   0.219 -0.0538  0.1001  0.1819
    4FIC    C21 3608   4.826   8.904   0.128 -0.2909 -0.0281 -0.1475
    4FIC    C22 3609   4.750   9.031   0.127 -0.2517 -0.0045 -0.0691
    4FIC    C23 3610   4.780   9.147   0.057 -0.4193 -0.0942 -0.2934
    4FIC    C24 3611   4.693   9.254   0.073 -0.3401 -0.0490 -0.1601
    4FIC    C25 3612   4.581   9.244   0.155 -0.1007  0.0824  0.1869
    4FIC    C26 3613   4.550   9.128   0.225  0.0676  0.1724  0.4121
    4FIC    C27 3614   4.637   9.019   0.211 -0.0092  0.1280  0.2819
    4FIC    C28 3615   4.634   8.883   0.271  0.1220  0.1976  0.4500
    4FIC    C29 3616   4.539   8.834   0.357  0.3607  0.3276  0.7892
    4FIC    C30 3617   4.427   8.911   0.402  0.5176  0.4151  1.0305
    4FIC    C31 3618   4.544   8.701   0.410  0.4721  0.3865  0.9289
    5FIC     F1 3619   6.163   9.070  -0.931  0.5713 -0.0265 -0.0253
    5FIC     F2 3620   6.348   8.917  -1.058  0.4996 -0.0949 -0.0482
    5FIC     O1 3621   6.044   8.756  -0.506  0.2536 -0.1371 -0.1950
    5FIC     N5 3622   6.529   8.472  -0.939  0.1702 -0.2716 -0.2022
    5FIC     N6 3623   6.399   8.257  -0.581 -0.0637 -0.3443 -0.3304
    5FIC    C19 3624   6.179   8.498  -0.477  0.0723 -0.2413 -0.2776
    5FIC    C20 3625   6.202   8.583  -0.579  0.1551 -0.2110 -0.2339
    5FIC    C21 3626   6.128   8.714  -0.587  0.2452 -0.1574 -0.1931
    5FIC    C22 3627   6.176   8.781  -0.709  0.3210 -0.1354 -0.1512
    5FIC    C23 3628   6.138   8.905  -0.758  0.4171 -0.0863 -0.1054
    5FIC    C24 3629   6.197   8.948  -0.876  0.4755 -0.0740 -0.0714
    5FIC    C25 3630   6.292   8.869  -0.942  0.4383 -0.1090 -0.0831
    5FIC    C26 3631   6.332   8.745  -0.893  0.3427 -0.1578 -0.1290
    5FIC    C27 3632   6.273   8.700  -0.774  0.2825 -0.1712 -0.1640
    5FIC    C28 3633   6.292   8.575  -0.696  0.1789 -0.2191 -0.2153
    5FIC    C29 3634   6.377   8.471  -0.728  0.1171 -0.2627 -0.2403
    5FIC    C30 3635   6.460   8.472  -0.844  0.1465 -0.2675 -0.2193
    5FIC    C31 3636   6.389   8.354  -0.647  0.0180 -0.3076 -0.2899
    1BTD     S2 3637   5.523   0.882   0.478  0.1154 -0.4434  0.3128
    1BTD     N1 3638   5.518   0.817   0.645  0.1163  0.0212  0.4981
    1BTD     N2 3639   5.357   0.951   0.484 -0.0473 -0.8004 -0.0333
    1BTD     N3 3640   5.009   0.972   0.798 -0.3774 -0.6891 -0.4043
    1BTD     N4 3641   5.207   0.807   0.997 -0.1758  0.3232  0.2505
    1BTD     C5 3642   5.353   0.813   0.826 -0.0385  0.1667  0.3609
    1BTD     C6 3643   5.399   0.848   0.694  0.0012 -0.1071  0.3025
    1BTD     C7 3644   5.309   0.923   0.604 -0.0904 -0.5670  0.0050
    1BTD     C8 3645   5.178   0.960   0.650 -0.2172 -0.7301 -0.2191
    1BTD    C15 3646   5.138   0.924   0.780 -0.2520 -0.4501 -0.1519
    1BTD    C16 3647   5.224   0.852   0.867 -0.1637 -0.0071  0.1347
    1BTD    C43 3648   5.143   0.888   1.091  1.1410  0.1998 -2.2948
    1BTD    C44 3649   5.096   0.828   1.239 -1.2879  0.8212  0.9211
    1BTD    C45 3650   5.148   0.887   1.365 -1.5640 -0.3819 -0.5334
    1BTD    C46 3651   5.151   1.032   1.366  0.5463 -0.6328 -0.8223
    1BTD    C47 3652   4.961   0.759   1.251  0.0290 -0.0891 -0.0837
    1BTD    C48 3653   4.904   0.695   1.377  1.0972  0.0149  0.0722
    1BTD    C49 3654   4.747   0.662   1.369 -0.8650  0.7354  1.7444
    1BTD    C50 3655   4.661   0.785   1.390 -0.4001  0.5587  0.1383
    1BTD    C75 3656   4.908   0.890   0.844  0.2566  0.4198 -0.3773
    1BTD    C76 3657   4.766   0.931   0.878 -0.6406 -0.8872  0.5274
    1BTD    C77 3658   4.662   0.846   0.834  0.6363 -0.7795  0.5506
    1BTD    C78 3659   4.658   0.701   0.873 -0.9340  0.0374  0.9206
    1BTD    C79 3660   4.765   1.023   1.019 -0.3807  0.2851  0.3219
    1BTD    C80 3661   4.670   1.140   1.022 -0.0789  0.2438 -1.1025
    1BTD    C81 3662   4.696   1.245   1.129 -0.9627 -0.8024 -0.3089
    1BTD    C82 3663   4.577   1.305   1.199 -1.2737  1.3700 -0.2961
    2TTP     S1 3664   5.504   0.590   0.911 -0.2249 -0.0096 -0.1445
    2TTP     S5 3665   5.211   0.516   1.217  0.4530  0.6918  0.6844
    2TTP     C1 3666   5.305   0.363   1.189 -0.0977  0.4184  0.2989
    2TTP     C2 3667   5.401   0.377   1.093 -0.3396  0.1857  0.0203
    2TTP     C3 3668   5.404   0.509   1.038 -0.0987  0.2149  0.1011
    2TTP     C4 3669   5.410   0.743   0.939  0.3256  0.2638  0.2410
    2TTP    C17 3670   5.314   0.729   1.035  0.5676  0.4965  0.5196
    2TTP    C18 3671   5.311   0.597   1.090  0.3266  0.4673  0.4388
    2TTP    C32 3672   5.500   0.277   1.045 -0.7531 -0.0646 -0.0780
    2TTP    C33 3673   5.446   0.218   0.920  1.1247  1.0922 -0.1784
    2TTP    C34 3674   5.547   0.203   0.793  1.1380  0.2667  0.1355
    2TTP    C35 3675   5.637   0.087   0.793 -1.2548  0.3869 -0.3088
    2TTP    C36 3676   5.775   0.096   0.871  0.1660 -0.6444  0.0261
    2TTP    C37 3677   5.877   0.158   0.779  1.0642  0.1643 -0.8576
    2TTP    C38 3678   5.992   0.206   0.857 -0.5206 -0.0941  0.1761
    2TTP    C39 3679   6.072   0.296   0.755  0.4750  0.5287  0.4622
    2TTP    C40 3680   6.045   0.443   0.732  0.5802  0.3797 -0.1695
    2TTP    C41 3681   6.036   0.549   0.841  0.0892 -0.4219 -2.1462
    2TTP    C42 3682   6.019   0.672   0.764 -0.0474 -0.0870  0.1190
    3TTP     S1 3683   5.047   1.149   0.456 -0.1583 -0.1588  0.2283
    3TTP     S5 3684   4.695   1.173   0.703 -0.1788 -0.4267  0.2258
    3TTP     C1 3685   4.666   1.267   0.550 -0.1540 -0.2329  0.3394
    3TTP     C2 3686   4.772   1.265   0.465 -0.1462 -0.1388  0.3468
    3TTP     C3 3687   4.882   1.189   0.517 -0.1595 -0.2163  0.2631
    3TTP     C4 3688   5.077   1.055   0.609 -0.1831 -0.3526  0.1147
    3TTP    C17 3689   4.970   1.057   0.694 -0.1907 -0.4467  0.1073
    3TTP    C18 3690   4.861   1.133   0.642 -0.1775 -0.3692  0.1910
    3TTP    C32 3691   4.775   1.326   0.317 -0.6588  0.5736 -0.8303
    3TTP    C33 3692   4.775   1.225   0.206 -0.5450  0.6045 -1.6837
    3TTP    C34 3693   4.916   1.179   0.160  0.0425 -0.9465 -1.2606
    3TTP    C35 3694   4.911   1.038   0.097  1.2719 -0.7943 -0.1640
    3TTP    C36 3695   5.030   1.027  -0.001 -0.5630  0.2651 -0.7158
    3TTP    C37 3696   5.013   1.033  -0.155 -0.2084 -0.7561  0.3428
    3TTP    C38 3697   5.115   1.135  -0.199  0.4336  0.2513  0.6331
    3TTP    C39 3698   5.130   1.129  -0.352  0.8234 -0.2239 -0.8964
    3TTP    C40 3699   5.195   0.989  -0.412  0.2919 -0.1208  0.2538
    3TTP    C41 3700   5.229   1.013  -0.564  0.0450  1.1827  1.5187
    3TTP    C42 3701   5.316   1.142  -0.599  0.4760 -0.6552 -0.0815
    4FIC     F1 3702   4.780   0.082   1.748  0.0832  0.2633 -0.0436
    4FIC     F2 3703   4.945  -0.130   1.789 -0.4557 -0.2520 -0.4966
    4FIC     O1 3704   5.043   0.340   1.352  0.6340  0.3300  0.3637
    4FIC     N5 3705   5.370  -0.252   1.567 -0.8389 -0.9458 -0.8576
    4FIC     N6 3706   5.543  -0.007   1.249 -0.2998 -0.7896 -0.4480
    4FIC    C19 3707   5.295   0.229   1.251  0.3145 -0.1388  0.0756
    4FIC    C20 3708   5.222   0.173   1.349  0.1968 -0.1354 -0.0092
    4FIC    C21 3709   5.094   0.236   1.395  0.3752  0.1133  0.1500
    4FIC    C22 3710   5.040   0.149   1.502  0.1823  0.0482  0.0023
    4FIC    C23 3711   4.924   0.166   1.575  0.2501  0.2154  0.0716
    4FIC    C24 3712   4.894   0.071   1.671  0.0309  0.1090 -0.1000
    4FIC    C25 3713   4.979  -0.038   1.693 -0.2465 -0.1567 -0.3332
    4FIC    C26 3714   5.096  -0.057   1.620 -0.3158 -0.3247 -0.4037
    4FIC    C27 3715   5.128   0.039   1.522 -0.0970 -0.2203 -0.2324
    4FIC    C28 3716   5.242   0.049   1.429 -0.0988 -0.3438 -0.2488
    4FIC    C29 3717   5.348  -0.039   1.419 -0.3308 -0.6020 -0.4479
    4FIC    C30 3718   5.359  -0.155   1.500 -0.6093 -0.7899 -0.6724
    4FIC    C31 3719   5.454  -0.021   1.325 -0.3123 -0.7036 -0.4468
    5FIC     F1 3720   4.135   1.606   1.074 -0.0486 -0.6172  0.0251
    5FIC     F2 3721   3.951   1.617   0.874  0.3565  0.5430 -0.3008
    5FIC     O1 3722   4.563   1.409   0.808 -0.0108 -0.7032  0.1491
    5FIC     N5 3723   3.991   1.493   0.397  0.9660  2.1498 -0.6810
    5FIC     N6 3724   4.363   1.337   0.229  0.9139  1.8488 -0.5184
    5FIC    C19 3725   4.539   1.350   0.522  0.3896  0.3748 -0.1183
    5FIC    C20 3726   4.439   1.399   0.597  0.3643  0.3511 -0.1367
    5FIC    C21 3727   4.459   1.427   0.743  0.1535 -0.2198  0.0066
    5FIC    C22 3728   4.330   1.479   0.794  0.1812 -0.0899 -0.0558
    5FIC    C23 3729   4.300   1.519   0.924  0.0297 -0.4805  0.0318
    5FIC    C24 3730   4.172   1.565   0.948  0.0931 -0.2553 -0.0539
    5FIC    C25 3731   4.077   1.570   0.845  0.3020  0.3426 -0.2217
    5FIC    C26 3732   4.106   1.531   0.715  0.4539  0.7349 -0.3099
    5FIC    C27 3733   4.236   1.484   0.688  0.3927  0.5150 -0.2253
    5FIC    C28 3734   4.299   1.435   0.563  0.5136  0.8098 -0.2817
    5FIC    C29 3735   4.238   1.425   0.440  0.7236  1.3957 -0.4384
    5FIC    C30 3736   4.102   1.462   0.417  0.8562  1.8083 -0.5712
    5FIC    C31 3737   4.307   1.376   0.325  0.8271  1.6416 -0.4815
    1BTD     S2 3738   3.970   3.738   1.636  0.2707  0.0349 -0.2527
    1BTD     N1 3739   3.991   3.791   1.806  0.0898  0.1233 -0.2575
    1BTD     N2 3740   3.791   3.730   1.645  0.2714 -0.1550 -0.3796
    1BTD     N3 3741   3.463   3.812   1.972 -0.0536 -0.3827 -0.6469
    1BTD     N4 3742   3.711   3.887   2.170 -0.2771 -0.0399 -0.4965
    1BTD     C5 3743   3.842   3.840   1.994 -0.0990  0.0340 -0.3841
    1BTD     C6 3744   3.870   3.800   1.859  0.0419  0.0123 -0.3487
    1BTD     C7 3745   3.758   3.766   1.769  0.1434 -0.1434 -0.4171
    1BTD     C8 3746   3.623   3.773   1.818  0.0990 -0.2697 -0.5174
    1BTD    C15 3747   3.600   3.813   1.951 -0.0400 -0.2432 -0.5487
    1BTD    C16 3748   3.708   3.846   2.038 -0.1379 -0.0930 -0.4828
    1BTD    C43 3749   3.606   3.938   2.271 -0.9138  0.4482  0.5866
    1BTD    C44 3750   3.566   4.094   2.270  0.6360  0.2923 -0.4142
    1BTD    C45 3751   3.435   4.086   2.346 -0.9620  0.8592 -0.2280
    1BTD    C46 3752   3.359   4.207   2.372 -0.3960 -0.1073 -0.2068
    1BTD    C47 3753   3.596   4.190   2.154  0.8689 -0.8161  0.7735
    1BTD    C48 3754   3.556   4.155   2.000  1.4037  0.7582 -0.5926
    1BTD    C49 3755   3.392   4.141   1.992 -0.1001 -0.4055 -0.5666
    1BTD    C50 3756   3.350   4.290   1.971  0.1213 -0.3098  0.9388
    1BTD    C75 3757   3.412   3.741   2.096 -0.0857  0.8679 -0.4133
    1BTD    C76 3758   3.269   3.726   2.166 -0.0580 -0.4138  0.2822
    1BTD    C77 3759   3.268   3.576   2.236  0.3212  0.0405  0.0350
    1BTD    C78 3760   3.285   3.444   2.165  1.1482 -0.4478 -0.3197
    1BTD    C79 3761   3.210   3.837   2.247  0.8250  0.1283 -1.0088
    1BTD    C80 3762   3.060   3.812   2.317  0.7689  0.5108  0.3069
    1BTD    C81 3763   2.986   3.934   2.367  0.3235 -1.1830  1.1101
    1BTD    C82 3764   2.996   4.070   2.282 -0.2504 -0.8645 -0.4111
    2TTP     S1 3765   4.089   3.972   2.132 -0.2211 -0.2940  0.3176
    2TTP     S5 3766   3.843   4.083   2.467 -0.5398  0.3419 -0.1202
    2TTP     C1 3767   4.006   4.161   2.486 -0.6415  0.5831 -0.2408
    2TTP     C2 3768   4.092   4.132   2.384 -0.5490  0.4008 -0.1125
    2TTP     C3 3769   4.031   4.046   2.286 -0.3946  0.0643  0.0853
    2TTP     C4 3770   3.926   3.894   2.113 -0.1193 -0.5351  0.4382
    2TTP    C17 3771   3.840   3.923   2.215 -0.2119 -0.3530  0.3099
    2TTP    C18 3772   3.901   4.009   2.312 -0.3663 -0.0163  0.1120
    2TTP    C32 3773   4.242   4.189   2.371  0.4124 -1.1211 -0.8120
    2TTP    C33 3774   4.371   4.138   2.318 -0.2267 -0.3982  0.3478
    2TTP    C34 3775   4.401   3.994   2.326 -1.1956  0.0125 -0.4999
    2TTP    C35 3776   4.545   3.981   2.273 -0.3066 -0.1610  0.5088
    2TTP    C36 3777   4.664   3.945   2.372 -0.7098 -0.4977 -0.3003
    2TTP    C37 3778   4.797   3.892   2.328 -1.7633 -1.4994 -0.2996
    2TTP    C38 3779   4.882   3.896   2.457 -0.6243 -0.9400 -1.2571
    2TTP    C39 3780   5.030   3.847   2.413  0.9524 -1.1794 -1.1455
    2TTP    C40 3781   5.130   3.840   2.541  0.3610  0.3045 -0.8114
    2TTP    C41 3782   5.124   3.958   2.635 -0.4654  0.3024  0.4977
    2TTP    C42 3783   5.020   3.941   2.747 -0.6295  0.0524  1.3481
    3TTP     S1 3784   3.439   3.673   1.601  0.4454 -0.0757  0.1381
    3TTP     S5 3785   3.113   3.706   1.879  0.2561  0.2896 -0.1247
    3TTP     C1 3786   3.050   3.634   1.724  0.3916 -0.0525 -0.0243
    3TTP     C2 3787   3.147   3.620   1.629  0.4579 -0.1855  0.0627
    3TTP     C3 3788   3.274   3.665   1.675  0.4042 -0.0220  0.0533
    3TTP     C4 3789   3.502   3.744   1.756  0.3099  0.2664  0.0377
    3TTP    C17 3790   3.405   3.759   1.851  0.2435  0.3994 -0.0494
    3TTP    C18 3791   3.277   3.714   1.805  0.2971  0.2359 -0.0399
    3TTP    C32 3792   3.118   3.573   1.476  0.1561 -0.2413 -1.1257
    3TTP    C33 3793   3.221   3.490   1.412 -0.3329  0.9107  0.4240
    3TTP    C34 3794   3.162   3.338   1.376 -0.5804 -2.3320 -0.2769
    3TTP    C35 3795   3.058   3.336   1.273 -0.4300 -0.0347 -0.5779
    3TTP    C36 3796   3.059   3.211   1.217 -0.1076  0.5280  1.5307
    3TTP    C37 3797   2.950   3.191   1.102 -0.0980  0.8280 -0.3316
    3TTP    C38 3798   2.959   3.054   1.009  0.0320 -0.3689 -0.3688
    3TTP    C39 3799   2.921   2.918   1.086  0.1485 -0.5824  0.7787
    3TTP    C40 3800   2.833   2.918   1.205  1.0623 -0.1168  0.3911
    3TTP    C41 3801   2.762   2.800   1.234  0.7890  0.7486 -1.3715
    3TTP    C42 3802   2.841   2.687   1.304 -0.4792 -0.2998  0.1642
    4FIC     F1 3803   3.591   4.614   3.016  0.7276  1.2552 -0.7563
    4FIC     F2 3804   3.814   4.635   3.171  0.4582  0.0494 -0.1764
    4FIC     O1 3805   3.781   4.316   2.605  0.3221  0.6708 -0.5219
    4FIC     N5 3806   4.269   4.454   3.101 -0.2182 -2.1006  0.8247
    4FIC     N6 3807   4.372   4.217   2.749 -0.4809 -2.3141  0.8910
    4FIC    C19 3808   4.061   4.230   2.608 -0.0795 -0.6885  0.1156
    4FIC    C20 3809   4.004   4.304   2.705  0.0330 -0.4946  0.0340
    4FIC    C21 3810   3.860   4.344   2.697  0.2382  0.2134 -0.2987
    4FIC    C22 3811   3.831   4.424   2.817  0.3185  0.2533 -0.3059
    4FIC    C23 3812   3.710   4.482   2.854  0.5040  0.8092 -0.5629
    4FIC    C24 3813   3.707   4.553   2.973  0.5470  0.7259 -0.5125
    4FIC    C25 3814   3.822   4.564   3.053  0.4078  0.1043 -0.2134
    4FIC    C26 3815   3.943   4.506   3.017  0.2226 -0.4524  0.0441
    4FIC    C27 3816   3.948   4.434   2.897  0.1764 -0.3779 -0.0024
    4FIC    C28 3817   4.059   4.361   2.831 -0.0045 -0.8621  0.2183
    4FIC    C29 3818   4.188   4.348   2.877 -0.1744 -1.5247  0.5332
    4FIC    C30 3819   4.232   4.407   3.000 -0.1978 -1.8389  0.6924
    4FIC    C31 3820   4.288   4.276   2.806 -0.3419 -1.9550  0.7282
    5FIC     F1 3821   2.384   3.561   2.223 -0.0259  0.1864 -0.0087
    5FIC     F2 3822   2.241   3.476   2.008  0.1342 -0.5447  0.1684
    5FIC     O1 3823   2.870   3.643   1.998 -0.2241  0.8117 -0.2145
    5FIC     N5 3824   2.381   3.412   1.538  0.2233 -1.1502  0.2766
    5FIC     N6 3825   2.790   3.492   1.405  0.0362 -0.5142  0.0800
    5FIC    C19 3826   2.905   3.590   1.712 -0.1415  0.3353 -0.1183
    5FIC    C20 3827   2.789   3.573   1.777 -0.0979  0.2065 -0.0734
    5FIC    C21 3828   2.778   3.602   1.924 -0.1449  0.4689 -0.1278
    5FIC    C22 3829   2.639   3.573   1.963 -0.0786  0.2387 -0.0579
    5FIC    C23 3830   2.582   3.585   2.089 -0.0911  0.3579 -0.0747
    5FIC    C24 3831   2.447   3.552   2.101 -0.0183  0.0880  0.0027
    5FIC    C25 3832   2.374   3.508   1.990  0.0642 -0.2884  0.0940
    5FIC    C26 3833   2.431   3.496   1.864  0.0771 -0.4092  0.1113
    5FIC    C27 3834   2.566   3.529   1.850  0.0042 -0.1402  0.0337
    5FIC    C28 3835   2.655   3.527   1.731 -0.0044 -0.1749  0.0278
    5FIC    C29 3836   2.621   3.490   1.603  0.0617 -0.4988  0.1020
    5FIC    C30 3837   2.489   3.447   1.568  0.1503 -0.8558  0.1977
    5FIC    C31 3838   2.714   3.491   1.495  0.0473 -0.5054  0.0895
    1BTD     S2 3839   1.497   8.090   3.927 -0.0632  0.3516  0.4725
    1BTD     N1 3840   1.362   7.987   3.988 -0.1213  0.2633  0.1954
    1BTD     N2 3841   1.507   8.009   3.767  0.0666  0.6044  0.3502
    1BTD     N3 3842   1.285   7.656   3.551  0.2262  0.9602 -0.3994
    1BTD     N4 3843   1.107   7.630   3.822 -0.0053  0.5399 -0.5901
    1BTD     C5 3844   1.231   7.801   3.898 -0.0579  0.4127 -0.2123
    1BTD     C6 3845   1.334   7.902   3.891 -0.0449  0.4188  0.0344
    1BTD     C7 3846   1.415   7.914   3.767  0.0603  0.6098  0.1209
    1BTD     C8 3847   1.389   7.824   3.658  0.1471  0.7851 -0.0435
    1BTD    C15 3848   1.288   7.727   3.669  0.1307  0.7722 -0.2834
    1BTD    C16 3849   1.210   7.716   3.788  0.0294  0.5882 -0.3669
    1BTD    C43 3850   1.052   7.511   3.753 -0.1530 -0.2800 -1.1300
    1BTD    C44 3851   1.022   7.364   3.812  2.2198 -1.3149 -0.3869
    1BTD    C45 3852   1.136   7.295   3.849 -1.8315  1.0679  0.0942
    1BTD    C46 3853   1.218   7.350   3.956  0.9982  1.1175 -0.5279
    1BTD    C47 3854   0.908   7.298   3.734  0.8684  1.0138  0.2363
    1BTD    C48 3855   0.901   7.289   3.581  1.2522  0.3716 -0.1222
    1BTD    C49 3856   0.855   7.159   3.529  0.7245 -0.5109  0.9519
    1BTD    C50 3857   0.881   7.147   3.371  0.7854 -0.3936  1.0308
    1BTD    C75 3858   1.288   7.496   3.530 -0.5780 -1.1190 -0.4796
    1BTD    C76 3859   1.392   7.403   3.570 -0.3836  0.2893  1.3761
    1BTD    C77 3860   1.419   7.279   3.488  0.3290  0.2761 -0.7245
    1BTD    C78 3861   1.547   7.231   3.479  0.4891  0.6273 -0.1507
    1BTD    C79 3862   1.437   7.416   3.713 -0.5378 -0.0609 -1.2693
    1BTD    C80 3863   1.577   7.469   3.742 -0.4215  0.8528 -0.0149
    1BTD    C81 3864   1.641   7.434   3.878  0.2178 -0.0514 -0.4574
    1BTD    C82 3865   1.779   7.476   3.930  0.6988  0.9890  0.3310
    2TTP     S1 3866   1.091   7.815   4.170  0.2869  0.0518  0.1125
    2TTP     S5 3867   0.821   7.514   4.021  0.2302  0.0819  0.1540
    2TTP     C1 3868   0.772   7.558   4.190  0.5451 -0.2519  0.3337
    2TTP     C2 3869   0.852   7.653   4.246  0.5811 -0.2810  0.3314
    2TTP     C3 3870   0.956   7.695   4.157  0.3614 -0.0404  0.1879
    2TTP     C4 3871   1.140   7.772   4.000 -0.0280  0.3855 -0.0669
    2TTP    C17 3872   1.060   7.676   3.944 -0.0641  0.4146 -0.0647
    2TTP    C18 3873   0.956   7.634   4.033  0.1557  0.1743  0.0788
    2TTP    C32 3874   0.831   7.752   4.368  0.2087 -0.0740  0.6826
    2TTP    C33 3875   0.803   7.679   4.508 -0.0282 -0.9814  0.7253
    2TTP    C34 3876   0.761   7.761   4.626  0.4869 -1.7835 -0.0519
    2TTP    C35 3877   0.816   7.727   4.768 -1.2290  0.6276  1.0537
    2TTP    C36 3878   0.967   7.743   4.787  0.4604  0.0688  1.3101
    2TTP    C37 3879   1.021   7.893   4.792 -0.4976 -1.1588 -1.1509
    2TTP    C38 3880   1.164   7.927   4.802 -0.4164  0.3854  0.3514
    2TTP    C39 3881   1.201   7.915   4.942 -0.3412 -0.2240 -1.2359
    2TTP    C40 3882   1.340   7.887   4.914  0.6693  1.2022 -1.2038
    2TTP    C41 3883   1.438   7.822   5.024 -0.1741  0.1606  0.9401
    2TTP    C42 3884   1.511   7.957   5.057  0.1569  1.3804  0.7075
    3TTP     S1 3885   1.548   7.902   3.408  0.3803  0.0437  0.1015
    3TTP     S5 3886   1.377   7.563   3.207 -0.4299  0.6369 -0.2173
    3TTP     C1 3887   1.484   7.652   3.090  0.0580  0.2963 -0.0334
    3TTP     C2 3888   1.543   7.762   3.145  0.3370  0.0930  0.0759
    3TTP     C3 3889   1.506   7.780   3.282  0.1754  0.1990  0.0183
    3TTP     C4 3890   1.441   7.814   3.525 -0.1076  0.3842 -0.0824
    3TTP    C17 3891   1.381   7.704   3.470 -0.3866  0.5875 -0.1917
    3TTP    C18 3892   1.419   7.686   3.333 -0.2250  0.4817 -0.1341
    3TTP    C32 3893   1.648   7.851   3.079  0.3734 -0.6288  0.3189
    3TTP    C33 3894   1.612   7.991   3.065  0.7762 -0.1987 -0.1145
    3TTP    C34 3895   1.716   8.061   2.963 -0.2787 -0.3054 -1.5012
    3TTP    C35 3896   1.836   8.140   3.015 -0.1021  0.3007  1.1918
    3TTP    C36 3897   1.925   8.209   2.903  1.2877  0.9391 -0.6196
    3TTP    C37 3898   1.946   8.132   2.774 -0.5947 -0.1181  1.1808
    3TTP    C38 3899   2.050   8.180   2.664  0.3197 -0.1997 -0.4774
    3TTP    C39 3900   2.101   8.335   2.671 -0.1242 -1.0159  1.5338
    3TTP    C40 3901   2.229   8.347   2.584 -0.0544  0.4702 -0.2758
    3TTP    C41 3902   2.342   8.239   2.605 -0.0080  0.2357 -0.4385
    3TTP    C42 3903   2.379   8.188   2.753 -0.0047 -1.7934  1.5021
    4FIC     F1 3904   0.508   6.783   4.321  0.4233  0.0341  0.3569
    4FIC     F2 3905   0.317   6.881   4.488 -0.2809  0.0275 -0.4232
    4FIC     O1 3906   0.759   7.239   4.172  0.3261  0.1533  0.5579
    4FIC     N5 3907   0.223   7.348   4.624 -1.3625  0.1029 -1.4018
    4FIC     N6 3908   0.458   7.684   4.474 -1.2965  0.1975 -1.0874
    4FIC    C19 3909   0.667   7.495   4.279 -0.3811  0.1896 -0.1164
    4FIC    C20 3910   0.611   7.376   4.310 -0.3292  0.1596 -0.1363
    4FIC    C21 3911   0.664   7.249   4.251  0.0427  0.1426  0.2232
    4FIC    C22 3912   0.581   7.140   4.305  0.0026  0.1111  0.0987
    4FIC    C23 3913   0.592   7.003   4.279  0.2730  0.0868  0.3295
    4FIC    C24 3914   0.502   6.919   4.342  0.1697  0.0591  0.1461
    4FIC    C25 3915   0.404   6.970   4.428 -0.1933  0.0555 -0.2559
    4FIC    C26 3916   0.393   7.106   4.455 -0.4644  0.0796 -0.4880
    4FIC    C27 3917   0.483   7.193   4.392 -0.3651  0.1080 -0.3076
    4FIC    C28 3918   0.497   7.340   4.399 -0.5834  0.1379 -0.4679
    4FIC    C29 3919   0.420   7.427   4.473 -0.9509  0.1439 -0.8506
    4FIC    C30 3920   0.312   7.383   4.556 -1.1759  0.1215 -1.1523
    4FIC    C31 3921   0.442   7.568   4.473 -1.1389  0.1736 -0.9787
    5FIC     F1 3922   1.560   6.926   2.733 -0.1433  0.2106  0.0782
    5FIC     F2 3923   1.627   7.052   2.502 -0.2869  0.2131  0.0380
    5FIC     O1 3924   1.498   7.348   3.067 -0.1138  0.2173  0.0755
    5FIC     N5 3925   1.679   7.535   2.407 -0.4722  0.2217 -0.0219
    5FIC     N6 3926   1.617   7.839   2.714 -0.4201  0.2263 -0.0160
    5FIC    C19 3927   1.540   7.619   2.964 -0.2403  0.2220  0.0360
    5FIC    C20 3928   1.553   7.507   2.889 -0.2422  0.2203  0.0383
    5FIC    C21 3929   1.529   7.372   2.949 -0.1748  0.2180  0.0591
    5FIC    C22 3930   1.552   7.274   2.841 -0.1958  0.2164  0.0561
    5FIC    C23 3931   1.542   7.135   2.849 -0.1517  0.2140  0.0709
    5FIC    C24 3932   1.568   7.063   2.733 -0.1838  0.2130  0.0644
    5FIC    C25 3933   1.602   7.129   2.614 -0.2578  0.2144  0.0436
    5FIC    C26 3934   1.612   7.267   2.606 -0.3021  0.2167  0.0287
    5FIC    C27 3935   1.587   7.341   2.722 -0.2706  0.2178  0.0350
    5FIC    C28 3936   1.588   7.488   2.747 -0.3020  0.2202  0.0233
    5FIC    C29 3937   1.618   7.586   2.655 -0.3730  0.2221  0.0025
    5FIC    C30 3938   1.651   7.558   2.519 -0.4272  0.2217 -0.0108
    5FIC    C31 3939   1.617   7.725   2.688 -0.3985  0.2244 -0.0075
    1BTD     S2 3940   7.509   7.391   3.292 -0.2170 -0.1409 -0.1540
    1BTD     N1 3941   7.621   7.530   3.310 -0.8363  0.3772 -0.2470
    1BTD     N2 3942   7.574   7.341   3.131  0.5437 -0.4584  0.2417
    1BTD     N3 3943   7.909   7.493   2.839  0.9754 -0.1701  0.8798
    1BTD     N4 3944   7.966   7.726   3.059 -0.7249  0.8594  0.2777
    1BTD     C5 3945   7.801   7.630   3.177 -0.7577  0.6164  0.0342
    1BTD     C6 3946   7.697   7.533   3.202 -0.4634  0.2911  0.0083
    1BTD     C7 3947   7.671   7.427   3.102  0.3089 -0.1765  0.2819
    1BTD     C8 3948   7.750   7.423   2.981  0.7486 -0.2955  0.5675
    1BTD    C15 3949   7.850   7.520   2.961  0.4375  0.0343  0.5821
    1BTD    C16 3950   7.875   7.622   3.057 -0.3071  0.4848  0.3186
    1BTD    C43 3951   7.994   7.814   2.951 -0.4839  0.8112  0.7281
    1BTD    C44 3952   8.141   7.864   2.928  0.4951  0.3786 -1.6145
    1BTD    C45 3953   8.239   7.744   2.952  0.3639  0.1873 -0.2292
    1BTD    C46 3954   8.380   7.742   3.005 -0.3489  0.3992 -1.1751
    1BTD    C47 3955   8.187   7.986   2.844 -0.7077 -0.1403 -1.2627
    1BTD    C48 3956   8.088   8.097   2.831  1.1462 -0.8976  0.9566
    1BTD    C49 3957   8.095   8.187   2.706  0.0690  0.1594  0.4130
    1BTD    C50 3958   8.165   8.321   2.706 -0.5828  0.9289  0.9237
    1BTD    C75 3959   8.029   7.558   2.781  1.3190 -0.2245 -0.3439
    1BTD    C76 3960   8.116   7.477   2.695 -0.5806 -0.5822  0.2770
    1BTD    C77 3961   8.170   7.366   2.777  0.9774  0.3524  0.4984
    1BTD    C78 3962   8.281   7.412   2.867  0.2962 -1.7938  0.0146
    1BTD    C79 3963   8.197   7.554   2.590 -1.1380  0.5307  0.7094
    1BTD    C80 3964   8.300   7.494   2.478 -0.1185  1.4825  1.3373
    1BTD    C81 3965   8.292   7.591   2.367 -0.4075 -0.0195  0.5556
    1BTD    C82 3966   8.411   7.563   2.291 -0.0632 -2.2213  0.2836
    2TTP     S1 3967   7.843   7.831   3.416  0.4217 -0.4045 -0.3041
    2TTP     S5 3968   8.183   7.997   3.211  0.0708  1.1991  0.3860
    2TTP     C1 3969   8.159   8.088   3.367 -0.4094  0.8022  0.5485
    2TTP     C2 3970   8.053   8.042   3.440 -0.3293  0.2840  0.3449
    2TTP     C3 3971   7.986   7.933   3.374  0.1140  0.1810  0.0534
    2TTP     C4 3972   7.866   7.741   3.260  0.9019 -0.0079 -0.4666
    2TTP    C17 3973   7.973   7.787   3.187  0.8219  0.5105 -0.2630
    2TTP    C18 3974   8.039   7.895   3.252  0.3784  0.6135  0.0286
    2TTP    C32 3975   7.995   8.077   3.571  1.3269  1.5098  0.1877
    2TTP    C33 3976   8.020   8.006   3.710  0.2300 -0.0134  0.6353
    2TTP    C34 3977   8.186   8.011   3.744  0.3294 -0.1803 -0.0608
    2TTP    C35 3978   8.301   7.925   3.678  0.9629 -0.1552 -0.0486
    2TTP    C36 3979   8.378   7.870   3.799  0.7560 -0.5883 -1.4569
    2TTP    C37 3980   8.457   7.968   3.874 -0.1779  0.2669  0.2388
    2TTP    C38 3981   8.574   8.021   3.810  0.4442 -1.3978  1.0020
    2TTP    C39 3982   8.606   8.160   3.866 -0.1486  0.7820  1.4935
    2TTP    C40 3983   8.734   8.240   3.824  0.1633 -0.5905  0.0816
    2TTP    C41 3984   8.878   8.197   3.796 -0.5587  0.0878 -0.3456
    2TTP    C42 3985   8.974   8.323   3.784  0.8334  0.0803 -0.8180
    3TTP     S1 3986   7.579   7.292   2.789  0.6296 -0.4342 -0.2423
    3TTP     S5 3987   7.818   7.469   2.478 -0.0527  0.7790 -0.0909
    3TTP     C1 3988   7.660   7.415   2.406  0.0370  0.4886 -0.0764
    3TTP     C2 3989   7.577   7.358   2.498  0.2530  0.0968 -0.1223
    3TTP     C3 3990   7.635   7.354   2.628  0.3554  0.0120 -0.1706
    3TTP     C4 3991   7.738   7.345   2.861  0.5398 -0.1436 -0.2569
    3TTP    C17 3992   7.821   7.403   2.769  0.3239  0.2481 -0.2110
    3TTP    C18 3993   7.763   7.407   2.639  0.2214  0.3331 -0.1627
    3TTP    C32 3994   7.429   7.294   2.473  0.4929 -0.2252 -0.4026
    3TTP    C33 3995   7.422   7.141   2.517 -1.2732 -0.1462 -0.3671
    3TTP    C34 3996   7.320   7.103   2.627  0.9024 -1.3060  0.3968
    3TTP    C35 3997   7.183   7.163   2.665  0.0678  1.2548 -0.2564
    3TTP    C36 3998   7.200   7.236   2.808  0.1975  0.4127 -0.2847
    3TTP    C37 3999   7.148   7.365   2.800  1.0687  1.0558  0.1121
    3TTP    C38 4000   7.008   7.376   2.861  0.9366 -0.0728 -1.5173
    3TTP    C39 4001   6.871   7.338   2.805 -0.0546  1.1535  0.7833
    3TTP    C40 4002   6.845   7.333   2.635  0.5876 -0.7419 -2.4820
    3TTP    C41 4003   6.715   7.265   2.574 -0.3827 -0.5192 -1.0034
    3TTP    C42 4004   6.700   7.131   2.627  1.1388  0.8482 -0.3439
    4FIC     F1 4005   8.970   8.069   3.243  0.1407  0.0525  0.4940
    4FIC     F2 4006   8.991   8.299   3.387 -0.2067  0.1633  0.3693
    4FIC     O1 4007   8.438   7.976   3.275  0.1299 -0.1795 -0.3163
    4FIC     N5 4008   8.641   8.563   3.617 -0.7136  0.1569 -0.3877
    4FIC     N6 4009   8.221   8.444   3.613 -0.6523 -0.0470 -0.9957
    4FIC    C19 4010   8.268   8.163   3.424 -0.2058 -0.1564 -0.7232
    4FIC    C20 4011   8.401   8.177   3.410 -0.1895 -0.1025 -0.5146
    4FIC    C21 4012   8.482   8.077   3.332 -0.0122 -0.1187 -0.3135
    4FIC    C22 4013   8.622   8.123   3.337 -0.0417 -0.0482 -0.1147
    4FIC    C23 4014   8.733   8.062   3.279  0.0834 -0.0353  0.1097
    4FIC    C24 4015   8.856   8.124   3.298  0.0242  0.0362  0.2689
    4FIC    C25 4016   8.866   8.242   3.372 -0.1551  0.0931  0.2042
    4FIC    C26 4017   8.756   8.303   3.430 -0.2806  0.0811 -0.0194
    4FIC    C27 4018   8.631   8.242   3.413 -0.2232  0.0088 -0.1829
    4FIC    C28 4019   8.496   8.280   3.461 -0.3209 -0.0224 -0.4312
    4FIC    C29 4020   8.464   8.390   3.537 -0.4995  0.0160 -0.5593
    4FIC    C30 4021   8.562   8.485   3.581 -0.6166  0.0937 -0.4645
    4FIC    C31 4022   8.330   8.419   3.578 -0.5825 -0.0188 -0.7986
    5FIC     F1 4023   7.930   7.938   1.854 -0.3523 -0.2227 -0.1422
    5FIC     F2 4024   7.912   7.738   1.671  0.5003 -0.5326  0.1060
    5FIC     O1 4025   7.709   7.701   2.288 -0.6008 -0.1523 -0.2301
    5FIC     N5 4026   7.729   7.280   1.717  1.5484 -0.9279  0.4002
    5FIC     N6 4027   7.560   7.135   2.092  1.1822 -0.8106  0.2815
    5FIC    C19 4028   7.613   7.425   2.267  0.1252 -0.4236 -0.0243
    5FIC    C20 4029   7.670   7.493   2.165  0.1544 -0.4293 -0.0118
    5FIC    C21 4030   7.716   7.634   2.183 -0.2332 -0.2849 -0.1221
    5FIC    C22 4031   7.772   7.677   2.054 -0.0895 -0.3319 -0.0762
    5FIC    C23 4032   7.827   7.801   2.022 -0.3355 -0.2379 -0.1443
    5FIC    C24 4033   7.874   7.819   1.892 -0.1285 -0.3088 -0.0806
    5FIC    C25 4034   7.865   7.715   1.798  0.3109 -0.4684  0.0473
    5FIC    C26 4035   7.809   7.591   1.829  0.5579 -0.5627  0.1159
    5FIC    C27 4036   7.762   7.572   1.960  0.3541 -0.4930  0.0530
    5FIC    C28 4037   7.699   7.454   2.024  0.5214 -0.5593  0.0976
    5FIC    C29 4038   7.672   7.333   1.965  0.9372 -0.7120  0.2175
    5FIC    C30 4039   7.704   7.304   1.829  1.2717 -0.8303  0.3175
    5FIC    C31 4040   7.611   7.225   2.035  1.0698 -0.7656  0.2520
    1BTD     S2 4041   3.685   2.399   0.727 -0.4288  0.0789 -0.4767
    1BTD     N1 4042   3.814   2.394   0.602 -0.4540  0.2022 -0.5071
    1BTD     N2 4043   3.800   2.409   0.866 -0.4005 -0.0766 -0.4882
    1BTD     N3 4044   4.266   2.422   0.921 -0.3886 -0.1705 -0.5666
    1BTD     N4 4045   4.283   2.404   0.596 -0.4545  0.1729 -0.5898
    1BTD     C5 4046   4.059   2.400   0.603 -0.4535  0.1827 -0.5500
    1BTD     C6 4047   3.930   2.401   0.666 -0.4408  0.1251 -0.5234
    1BTD     C7 4048   3.922   2.409   0.814 -0.4109 -0.0308 -0.5128
    1BTD     C8 4049   4.043   2.416   0.890 -0.3952 -0.1215 -0.5294
    1BTD    C15 4050   4.168   2.415   0.824 -0.4085 -0.0604 -0.5553
    1BTD    C16 4051   4.175   2.407   0.682 -0.4372  0.0900 -0.5655
    1BTD    C43 4052   4.421   2.346   0.617  1.1744 -0.0476 -1.1531
    1BTD    C44 4053   4.462   2.201   0.651  1.4093 -0.8627 -0.5292
    1BTD    C45 4054   4.611   2.160   0.641 -1.0935 -0.6210 -0.4312
    1BTD    C46 4055   4.718   2.181   0.525  1.0705 -0.8729  0.9754
    1BTD    C47 4056   4.404   2.110   0.756  0.0875 -1.0215 -1.3507
    1BTD    C48 4057   4.262   2.052   0.757  2.0903  0.2252 -0.1673
    1BTD    C49 4058   4.230   1.974   0.619  1.4025  1.1980  0.9876
    1BTD    C50 4059   4.112   1.866   0.599  1.1454  0.0414 -0.2896
    1BTD    C75 4060   4.407   2.461   0.916 -0.2727  0.0270 -0.2284
    1BTD    C76 4061   4.475   2.595   0.955  0.0327 -0.7949 -0.6567
    1BTD    C77 4062   4.611   2.610   0.886  0.8378  1.0826 -0.1964
    1BTD    C78 4063   4.640   2.557   0.751  0.3229 -0.2893 -0.7567
    1BTD    C79 4064   4.466   2.648   1.097 -0.6350 -0.4513 -0.1606
    1BTD    C80 4065   4.471   2.782   1.144 -0.4034  0.2871 -0.2288
    1BTD    C81 4066   4.431   2.776   1.291 -0.2918  0.7576  0.1020
    1BTD    C82 4067   4.512   2.699   1.400  1.4801 -0.0697  0.4457
    2TTP     S1 4068   4.015   2.450   0.310  0.0071  0.6467  0.1859
    2TTP     S5 4069   4.441   2.495   0.265  0.1258 -0.5749  0.0213
    2TTP     C1 4070   4.359   2.556   0.114  0.2394 -0.3203  0.0617
    2TTP     C2 4071   4.223   2.545   0.119  0.2095  0.0720  0.1149
    2TTP     C3 4072   4.178   2.489   0.242  0.0954  0.1855  0.1257
    2TTP     C4 4073   4.097   2.389   0.461 -0.1067  0.3921  0.1455
    2TTP    C17 4074   4.233   2.399   0.456 -0.0769 -0.0002  0.0923
    2TTP    C18 4075   4.278   2.456   0.333  0.0368 -0.1138  0.0815
    2TTP    C32 4076   4.123   2.596   0.006 -0.5430  0.1194  0.4463
    2TTP    C33 4077   4.062   2.474  -0.074 -0.2104 -0.0283 -0.1468
    2TTP    C34 4078   4.152   2.371  -0.149  0.1346 -0.0346 -0.6851
    2TTP    C35 4079   4.185   2.395  -0.292 -1.2904 -0.4370  0.8701
    2TTP    C36 4080   4.193   2.544  -0.349 -0.9309 -0.4522 -0.0642
    2TTP    C37 4081   4.052   2.593  -0.423 -0.7268  0.2690  0.8227
    2TTP    C38 4082   3.938   2.495  -0.434 -1.1508 -0.9393 -0.3484
    2TTP    C39 4083   3.808   2.548  -0.490  0.4908  0.3352 -0.1224
    2TTP    C40 4084   3.722   2.471  -0.589 -0.5650  0.3065  0.2547
    2TTP    C41 4085   3.755   2.491  -0.733 -0.0181  0.3074  1.3146
    2TTP    C42 4086   3.673   2.607  -0.794 -0.9415  0.7795  0.9048
    3TTP     S1 4087   3.976   2.354   1.170 -0.1993  0.0130  0.3353
    3TTP     S5 4088   4.397   2.302   1.241 -0.2060 -0.1071  0.2878
    3TTP     C1 4089   4.305   2.230   1.381 -0.2117 -0.1156  0.2798
    3TTP     C2 4090   4.170   2.242   1.367 -0.2099 -0.0790  0.2940
    3TTP     C3 4091   4.134   2.308   1.246 -0.2041 -0.0431  0.3117
    3TTP     C4 4092   4.068   2.425   1.030 -0.1936  0.0215  0.3433
    3TTP    C17 4093   4.203   2.413   1.044 -0.1955 -0.0152  0.3291
    3TTP    C18 4094   4.240   2.347   1.165 -0.2012 -0.0512  0.3114
    3TTP    C32 4095   4.067   2.193   1.460  0.0551 -0.7076 -0.7256
    3TTP    C33 4096   3.977   2.083   1.426 -0.7211  0.3769  0.5933
    3TTP    C34 4097   3.868   2.023   1.505  0.4830  0.2468 -1.1158
    3TTP    C35 4098   3.861   1.872   1.466  1.9343 -0.5570  1.1150
    3TTP    C36 4099   3.933   1.796   1.352  0.5588 -0.1630  0.3376
    3TTP    C37 4100   3.930   1.650   1.401  0.0599  0.4338 -0.3493
    3TTP    C38 4101   3.847   1.553   1.310 -0.9778  0.0354  0.3696
    3TTP    C39 4102   3.711   1.552   1.333  1.5370  1.3660 -0.6844
    3TTP    C40 4103   3.660   1.441   1.240 -0.4711 -0.8972 -0.5829
    3TTP    C41 4104   3.515   1.451   1.190  1.0263 -0.7139 -0.8724
    3TTP    C42 4105   3.461   1.559   1.105  0.5469 -0.9489  0.2976
    4FIC     F1 4106   5.084   2.347  -0.201  0.0628 -0.6714 -0.1991
    4FIC     F2 4107   5.042   2.525  -0.404  0.5181  0.0625  0.3395
    4FIC     O1 4108   4.625   2.402   0.080 -0.2565 -1.1490 -0.6232
    4FIC     N5 4109   4.654   2.818  -0.493  0.9450  0.7772  0.8111
    4FIC     N6 4110   4.303   2.825  -0.232  0.6038  0.2563  0.3712
    4FIC    C19 4111   4.421   2.590  -0.013  0.0651 -0.6175 -0.2595
    4FIC    C20 4112   4.538   2.570  -0.076  0.1277 -0.5260 -0.1738
    4FIC    C21 4113   4.638   2.471  -0.022 -0.0477 -0.8149 -0.3734
    4FIC    C22 4114   4.753   2.473  -0.114  0.0775 -0.6229 -0.2131
    4FIC    C23 4115   4.870   2.399  -0.105 -0.0124 -0.7759 -0.3090
    4FIC    C24 4116   4.966   2.418  -0.204  0.1399 -0.5386 -0.1186
    4FIC    C25 4117   4.944   2.509  -0.308  0.3744 -0.1606  0.1589
    4FIC    C26 4118   4.827   2.584  -0.317  0.4652 -0.0062  0.2558
    4FIC    C27 4119   4.729   2.566  -0.218  0.3138 -0.2419  0.0660
    4FIC    C28 4120   4.597   2.629  -0.199  0.3538 -0.1674  0.1013
    4FIC    C29 4121   4.538   2.724  -0.280  0.5611  0.1698  0.3426
    4FIC    C30 4122   4.602   2.775  -0.397  0.7715  0.5026  0.5994
    4FIC    C31 4123   4.409   2.779  -0.253  0.5834  0.2154  0.3569
    5FIC     F1 4124   5.073   2.165   1.693 -0.0718 -0.1819  0.2829
    5FIC     F2 4125   4.971   2.012   1.893 -0.1972 -0.2394  0.1750
    5FIC     O1 4126   4.625   2.275   1.409  0.1183 -0.1732 -0.0144
    5FIC     N5 4127   4.504   1.870   1.979 -0.2420 -0.3158 -0.1921
    5FIC     N6 4128   4.175   1.987   1.716 -0.0679 -0.2974 -0.4027
    5FIC    C19 4129   4.368   2.168   1.499  0.0660 -0.2250 -0.2231
    5FIC    C20 4130   4.485   2.146   1.563  0.0231 -0.2249 -0.1441
    5FIC    C21 4131   4.613   2.205   1.510  0.0539 -0.1974 -0.0389
    5FIC    C22 4132   4.720   2.162   1.603 -0.0069 -0.2050  0.0283
    5FIC    C23 4133   4.856   2.192   1.595 -0.0050 -0.1866  0.1325
    5FIC    C24 4134   4.938   2.140   1.694 -0.0699 -0.1988  0.1799
    5FIC    C25 4135   4.885   2.061   1.797 -0.1344 -0.2284  0.1241
    5FIC    C26 4136   4.749   2.031   1.805 -0.1367 -0.2469  0.0201
    5FIC    C27 4137   4.665   2.083   1.706 -0.0716 -0.2350 -0.0292
    5FIC    C28 4138   4.518   2.070   1.686 -0.0558 -0.2484 -0.1374
    5FIC    C29 4139   4.430   2.000   1.766 -0.1048 -0.2771 -0.2161
    5FIC    C30 4140   4.471   1.929   1.882 -0.1799 -0.2982 -0.2026
    5FIC    C31 4141   4.290   1.993   1.738 -0.0843 -0.2880 -0.3183
    1BTD     S2 4142   6.685   0.299   1.918  0.0701  0.4645  0.3659
    1BTD     N1 4143   6.803   0.400   1.828  0.0694  0.4185  0.3126
    1BTD     N2 4144   6.550   0.417   1.905  0.0144  0.3779  0.1433
    1BTD     N3 4145   6.489   0.843   1.715 -0.1006  0.1186 -0.4067
    1BTD     N4 4146   6.800   0.822   1.621 -0.0331  0.1687 -0.1979
    1BTD     C5 4147   6.797   0.621   1.721  0.0150  0.2875  0.0435
    1BTD     C6 4148   6.739   0.512   1.794  0.0297  0.3449  0.1405
    1BTD     C7 4149   6.598   0.521   1.837 -0.0010  0.3221  0.0457
    1BTD     C8 4150   6.522   0.639   1.805 -0.0447  0.2431 -0.1414
    1BTD    C15 4151   6.583   0.743   1.733 -0.0575  0.1889 -0.2309
    1BTD    C16 4152   6.720   0.734   1.691 -0.0280  0.2108 -0.1395
    1BTD    C43 4153   6.763   0.921   1.521  0.5013  1.1421 -2.1016
    1BTD    C44 4154   6.807   0.932   1.373 -0.7872 -1.0028 -0.4973
    1BTD    C45 4155   6.731   1.064   1.321  0.3725  1.5911  0.4641
    1BTD    C46 4156   6.764   1.135   1.195 -0.0986 -0.4782 -0.4966
    1BTD    C47 4157   6.796   0.806   1.289  0.1499 -0.7689  1.5908
    1BTD    C48 4158   6.860   0.802   1.150 -0.3039  1.3764  1.5863
    1BTD    C49 4159   6.844   0.673   1.066 -0.8913  1.1555  0.5008
    1BTD    C50 4160   6.914   0.639   0.928 -0.5165  0.2252 -1.0142
    1BTD    C75 4161   6.483   0.973   1.644  1.6827 -0.4580  1.2311
    1BTD    C76 4162   6.530   1.096   1.721  1.4926  0.7610  1.6820
    1BTD    C77 4163   6.488   1.208   1.617  1.0839  0.7804 -0.5660
    1BTD    C78 4164   6.342   1.248   1.604  1.4432 -0.3563 -1.0184
    1BTD    C79 4165   6.475   1.106   1.869 -0.5172  0.6273  0.1900
    1BTD    C80 4166   6.533   1.225   1.943  1.0760  0.6312 -0.7000
    1BTD    C81 4167   6.449   1.262   2.060 -0.2175 -1.7438 -1.1003
    1BTD    C82 4168   6.479   1.411   2.102 -0.4084 -0.5221  0.7027
    2TTP     S1 4169   7.089   0.554   1.668  0.1631  0.4704  0.3328
    2TTP     S5 4170   7.110   0.911   1.428  0.7523  0.0840 -0.1990
    2TTP     C1 4171   7.263   0.816   1.405  0.8254  0.0565  0.3541
    2TTP     C2 4172   7.266   0.701   1.477  0.6477  0.1742  0.5509
    2TTP     C3 4173   7.147   0.683   1.554  0.4474  0.2904  0.2720
    2TTP     C4 4174   6.936   0.649   1.692  0.0900  0.4979 -0.2203
    2TTP    C17 4175   6.933   0.765   1.619  0.2678  0.3802 -0.4172
    2TTP    C18 4176   7.052   0.783   1.542  0.4680  0.2641 -0.1382
    2TTP    C32 4177   7.374   0.592   1.482  0.3177  0.5716  0.4468
    2TTP    C33 4178   7.399   0.482   1.585 -0.2724  0.7474 -1.1884
    2TTP    C34 4179   7.503   0.367   1.538 -0.4470 -0.5576 -0.4603
    2TTP    C35 4180   7.638   0.369   1.613  0.0949  0.3679 -1.5275
    2TTP    C36 4181   7.739   0.479   1.583 -0.2001 -0.3367  0.1011
    2TTP    C37 4182   7.746   0.518   1.427  0.0518  0.0283 -1.4610
    2TTP    C38 4183   7.885   0.499   1.367 -0.4821  0.6049  0.4563
    2TTP    C39 4184   7.900   0.621   1.281  0.5493 -0.2462  0.5331
    2TTP    C40 4185   8.045   0.619   1.232  0.3975  0.1961  0.7107
    2TTP    C41 4186   8.087   0.668   1.094  0.3523  0.8021 -0.3634
    2TTP    C42 4187   8.227   0.645   1.088 -0.4898  0.4929 -0.0873
    3TTP     S1 4188   6.239   0.620   1.925 -0.3437 -0.4895 -0.0047
    3TTP     S5 4189   6.134   1.006   1.768  0.2651 -0.0224  0.7239
    3TTP     C1 4190   5.995   0.944   1.867  0.0827 -0.0866  0.4277
    3TTP     C2 4191   6.019   0.821   1.921 -0.1161 -0.2347  0.1852
    3TTP     C3 4192   6.149   0.771   1.887 -0.1315 -0.3027  0.2246
    3TTP     C4 4193   6.379   0.682   1.827 -0.1613 -0.4252  0.2915
    3TTP    C17 4194   6.355   0.805   1.772  0.0374 -0.2772  0.5340
    3TTP    C18 4195   6.225   0.854   1.807  0.0529 -0.2092  0.4945
    3TTP    C32 4196   5.961   0.735   2.037 -0.0381  0.6514  0.8140
    3TTP    C33 4197   5.821   0.694   2.024 -0.2666 -0.6586 -0.5572
    3TTP    C34 4198   5.752   0.673   2.166 -1.0330  0.3488 -0.4352
    3TTP    C35 4199   5.806   0.574   2.275  0.3716 -0.0735 -0.6295
    3TTP    C36 4200   5.695   0.468   2.337 -1.1032 -0.0330  1.1474
    3TTP    C37 4201   5.720   0.401   2.476 -0.8953  0.4078  1.1181
    3TTP    C38 4202   5.607   0.302   2.516  0.4711  0.7316 -0.4052
    3TTP    C39 4203   5.549   0.193   2.414 -0.3758  0.2847  0.3130
    3TTP    C40 4204   5.447   0.103   2.477 -0.1023 -1.0250  0.0582
    3TTP    C41 4205   5.382   0.007   2.375  0.4951  0.9499  0.3541
    3TTP    C42 4206   5.494  -0.083   2.324 -1.0285  1.2914 -0.1244
    4FIC     F1 4207   7.583   1.540   1.205 -0.0950 -0.0642  0.4039
    4FIC     F2 4208   7.762   1.410   1.047  0.2117 -0.0390  0.7289
    4FIC     O1 4209   7.303   1.122   1.406 -0.3668 -0.1070 -0.0597
    4FIC     N5 4210   7.821   0.925   0.963  0.4590 -0.0332  0.8658
    4FIC     N6 4211   7.566   0.625   1.152  0.1850 -0.0717  0.4380
    4FIC    C19 4212   7.375   0.850   1.326 -0.1701 -0.0981  0.0862
    4FIC    C20 4213   7.438   0.960   1.282 -0.1137 -0.0883  0.1901
    4FIC    C21 4214   7.395   1.097   1.327 -0.2223 -0.0938  0.1051
    4FIC    C22 4215   7.485   1.193   1.260 -0.1233 -0.0803  0.2556
    4FIC    C23 4216   7.484   1.332   1.271 -0.1712 -0.0797  0.2440
    4FIC    C24 4217   7.578   1.402   1.198 -0.0559 -0.0657  0.4055
    4FIC    C25 4218   7.671   1.335   1.117  0.1021 -0.0527  0.5728
    4FIC    C26 4219   7.672   1.196   1.105  0.1508 -0.0532  0.5853
    4FIC    C27 4220   7.577   1.124   1.179  0.0358 -0.0673  0.4234
    4FIC    C28 4221   7.552   0.978   1.189  0.0478 -0.0717  0.3898
    4FIC    C29 4222   7.622   0.878   1.124  0.1830 -0.0622  0.5190
    4FIC    C30 4223   7.731   0.905   1.036  0.3344 -0.0463  0.7092
    4FIC    C31 4224   7.591   0.740   1.140  0.1833 -0.0675  0.4737
    5FIC     F1 4225   5.912   1.712   2.112  0.0050 -0.1646 -0.2698
    5FIC     F2 4226   5.642   1.681   2.092 -0.0122 -0.2774  0.1347
    5FIC     O1 4227   6.081   1.216   1.979 -0.0018 -0.1957 -0.1626
    5FIC     N5 4228   5.375   1.283   1.970 -0.0416 -0.4617  0.7928
    5FIC     N6 4229   5.562   0.901   1.871 -0.0434 -0.4631  0.7950
    5FIC    C19 4230   5.884   1.010   1.914 -0.0207 -0.3144  0.2620
    5FIC    C20 4231   5.852   1.136   1.948 -0.0182 -0.3022  0.2192
    5FIC    C21 4232   5.959   1.236   1.980 -0.0085 -0.2400 -0.0032
    5FIC    C22 4233   5.890   1.362   2.013 -0.0082 -0.2424  0.0064
    5FIC    C23 4234   5.947   1.484   2.049 -0.0006 -0.1957 -0.1603
    5FIC    C24 4235   5.861   1.589   2.075 -0.0022 -0.2088 -0.1124
    5FIC    C25 4236   5.722   1.573   2.065 -0.0109 -0.2669  0.0961
    5FIC    C26 4237   5.664   1.452   2.029 -0.0186 -0.3137  0.2632
    5FIC    C27 4238   5.750   1.344   2.002 -0.0172 -0.3014  0.2179
    5FIC    C28 4239   5.721   1.204   1.962 -0.0237 -0.3404  0.3570
    5FIC    C29 4240   5.597   1.149   1.941 -0.0329 -0.4005  0.5722
    5FIC    C30 4241   5.475   1.223   1.957 -0.0376 -0.4339  0.6928
    5FIC    C31 4242   5.578   1.013   1.903 -0.0386 -0.4346  0.6936
    1BTD     S2 4243   9.597  10.983   2.806 -0.1548 -0.3757  0.5726
    1BTD     N1 4244   9.702  11.070   2.922 -0.4263 -0.0908  0.6089
    1BTD     N2 4245   9.639  10.820   2.867  0.2480 -0.2642  0.5990
    1BTD     N3 4246   9.916  10.644   3.203  0.5782  0.4768  0.7184
    1BTD     N4 4247   9.994  10.953   3.271 -0.2520  0.6907  0.7306
    1BTD     C5 4248   9.854  11.005   3.103 -0.3254  0.3145  0.6723
    1BTD     C6 4249   9.761  10.978   2.997 -0.2139  0.0644  0.6374
    1BTD     C7 4250   9.725  10.837   2.966  0.1636 -0.0324  0.6318
    1BTD     C8 4251   9.784  10.731   3.043  0.4103  0.1254  0.6615
    1BTD    C15 4252   9.875  10.763   3.146  0.2893  0.3691  0.6952
    1BTD    C16 4253   9.909  10.898   3.176 -0.0744  0.4621  0.7005
    1BTD    C43 4254  10.054  10.906   3.404 -0.5055  1.7360  0.3630
    1BTD    C44 4255  10.007  10.947   3.546  0.0261 -0.1680 -0.4976
    1BTD    C45 4256   9.865  10.921   3.541  1.1196  0.8859 -0.1936
    1BTD    C46 4257   9.774  10.948   3.656  0.4992  0.3383 -0.3935
    1BTD    C47 4258  10.111  10.898   3.661  0.4148 -0.2672  0.7200
    1BTD    C48 4259  10.138  10.748   3.689  0.0774  0.6991 -0.0101
    1BTD    C49 4260  10.259  10.719   3.779  0.5694 -1.9514 -1.0521
    1BTD    C50 4261  10.372  10.649   3.706  0.0458  0.5627 -0.5024
    1BTD    C75 4262  10.031  10.599   3.288 -0.5076 -0.7969  0.2292
    1BTD    C76 4263  10.164  10.543   3.224  0.6249 -0.3396 -2.4567
    1BTD    C77 4264  10.259  10.472   3.332 -1.0046 -2.0212  0.2490
    1BTD    C78 4265  10.234  10.331   3.392  0.6231 -0.6213  0.1341
    1BTD    C79 4266  10.214  10.566   3.076 -0.0303 -0.0169 -0.2312
    1BTD    C80 4267  10.214  10.712   3.012 -0.1862  1.7529  0.3580
    1BTD    C81 4268  10.316  10.807   3.067 -1.5184  1.0031  0.1109
    1BTD    C82 4269  10.315  10.947   2.995 -0.4490  0.4142  0.2620
    2TTP     S1 4270   9.926  11.296   3.105  0.6456  0.0214 -0.3791
    2TTP     S5 4271  10.218  11.221   3.412 -0.2837 -0.0538  0.4972
    2TTP     C1 4272  10.227  11.396   3.365  0.5058 -0.2500 -0.1109
    2TTP     C2 4273  10.138  11.430   3.267  0.8390 -0.2384 -0.4174
    2TTP     C3 4274  10.058  11.318   3.226  0.4833 -0.0740 -0.1830
    2TTP     C4 4275   9.916  11.121   3.153 -0.1440  0.2176  0.2291
    2TTP    C17 4276  10.005  11.087   3.250 -0.4773  0.2059  0.5356
    2TTP    C18 4277  10.085  11.199   3.291 -0.1214  0.0416  0.3011
    2TTP    C32 4278  10.129  11.557   3.181  1.5898  0.1625 -0.1876
    2TTP    C33 4279  10.179  11.550   3.034 -1.5407  0.6520 -1.0560
    2TTP    C34 4280  10.169  11.675   2.961 -0.7587 -2.0870  0.7794
    2TTP    C35 4281  10.220  11.683   2.811 -2.1018  0.1691 -1.1441
    2TTP    C36 4282  10.362  11.618   2.797 -0.2195  1.0551  0.9628
    2TTP    C37 4283  10.417  11.629   2.665 -0.4143  0.0406  0.8571
    2TTP    C38 4284  10.459  11.770   2.637  0.3145 -1.0555 -0.4406
    2TTP    C39 4285  10.588  11.817   2.698  0.4086 -0.2511 -0.2525
    2TTP    C40 4286  10.708  11.750   2.631  0.1792  0.5706 -0.5568
    2TTP    C41 4287  10.755  11.616   2.669 -0.8445  0.2260  0.1415
    2TTP    C42 4288  10.866  11.573   2.569 -0.1080 -0.5609  0.2253
    3TTP     S1 4289   9.632  10.472   2.986 -0.1607 -0.0780 -0.5761
    3TTP     S5 4290   9.854  10.287   3.306 -0.4869 -0.0372 -0.3254
    3TTP     C1 4291   9.723  10.173   3.252 -0.2281 -0.1768 -0.6643
    3TTP     C2 4292   9.647  10.223   3.150 -0.1125 -0.1976 -0.7616
    3TTP     C3 4293   9.689  10.354   3.111 -0.2234 -0.1040 -0.5723
    3TTP     C4 4294   9.763  10.586   3.040 -0.4196  0.0620 -0.2371
    3TTP    C17 4295   9.839  10.536   3.142 -0.5353  0.0826 -0.1399
    3TTP    C18 4296   9.797  10.405   3.181 -0.4239 -0.0110 -0.3294
    3TTP    C32 4297   9.517  10.151   3.108 -0.4253  0.9163 -0.6025
    3TTP    C33 4298   9.389  10.233   3.110 -1.3443 -1.0937 -1.1407
    3TTP    C34 4299   9.313  10.182   3.002  0.8535 -0.0781 -1.2716
    3TTP    C35 4300   9.212  10.285   2.955  0.5107  1.4965 -0.0510
    3TTP    C36 4301   9.104  10.237   2.861  0.0072  0.2531  0.5359
    3TTP    C37 4302   8.993  10.333   2.895  0.5946  0.3393  0.8492
    3TTP    C38 4303   8.852  10.260   2.849 -0.2534 -1.8864 -0.6506
    3TTP    C39 4304   8.736  10.347   2.897  0.3311  0.0881  0.9413
    3TTP    C40 4305   8.695  10.338   3.033  0.0217  0.3298  0.7172
    3TTP    C41 4306   8.660  10.474   3.099 -0.6813  0.9166 -0.2716
    3TTP    C42 4307   8.667  10.459   3.260 -0.2491  0.4453  0.7116
    4FIC     F1 4308  10.881  11.439   3.858 -0.0565  0.3399  0.2180
    4FIC     F2 4309  10.839  11.708   3.875 -0.1478  0.3337  0.0967
    4FIC     O1 4310  10.480  11.294   3.524 -0.1061  0.0279  0.4125
    4FIC     N5 4311  10.493  11.990   3.663 -0.3150  0.1023  0.0612
    4FIC     N6 4312  10.188  11.823   3.398 -0.3357 -0.1402  0.2378
    4FIC    C19 4313  10.298  11.499   3.422 -0.2114 -0.0889  0.3658
    4FIC    C20 4314  10.400  11.525   3.505 -0.1953 -0.0101  0.3216
    4FIC    C21 4315  10.490  11.414   3.553 -0.1407  0.0462  0.3496
    4FIC    C22 4316  10.590  11.477   3.642 -0.1361  0.1266  0.2878
    4FIC    C23 4317  10.694  11.414   3.710 -0.0925  0.1983  0.2874
    4FIC    C24 4318  10.776  11.495   3.788 -0.0978  0.2670  0.2223
    4FIC    C25 4319  10.754  11.633   3.797 -0.1452  0.2636  0.1599
    4FIC    C26 4320  10.651  11.696   3.729 -0.1884  0.1924  0.1600
    4FIC    C27 4321  10.566  11.616   3.650 -0.1841  0.1221  0.2254
    4FIC    C28 4322  10.449  11.651   3.566 -0.2222  0.0380  0.2437
    4FIC    C29 4323  10.396  11.777   3.549 -0.2730  0.0100  0.1972
    4FIC    C30 4324  10.449  11.894   3.612 -0.2959  0.0609  0.1226
    4FIC    C31 4325  10.282  11.801   3.466 -0.3073 -0.0725  0.2198
    5FIC     F1 4326  10.214   9.685   3.684 -0.2108 -0.0660  0.0997
    5FIC     F2 4327   9.996   9.536   3.748 -0.4921  0.5074  0.4898
    5FIC     O1 4328   9.994  10.050   3.350  0.4084 -0.3033 -0.5739
    5FIC     N5 4329   9.525   9.582   3.603 -0.4544  1.1625  0.5708
    5FIC     N6 4330   9.397   9.897   3.329  0.0861  0.8616 -0.0342
    5FIC    C19 4331   9.708  10.037   3.293  0.3599  0.1601 -0.4403
    5FIC    C20 4332   9.771   9.951   3.374  0.2151  0.1974 -0.2862
    5FIC    C21 4333   9.919   9.964   3.399  0.2515 -0.0513 -0.3682
    5FIC    C22 4334   9.956   9.856   3.491  0.0641  0.0634 -0.1572
    5FIC    C23 4335  10.082   9.827   3.543  0.0260 -0.0861 -0.1451
    5FIC    C24 4336  10.093   9.719   3.629 -0.1624  0.0687  0.0749
    5FIC    C25 4337   9.980   9.642   3.662 -0.3071  0.3640  0.2757
    5FIC    C26 4338   9.854   9.670   3.611 -0.2697  0.5147  0.2649
    5FIC    C27 4339   9.841   9.779   3.524 -0.0796  0.3619  0.0437
    5FIC    C28 4340   9.723   9.835   3.453  0.0072  0.4556 -0.0275
    5FIC    C29 4341   9.594   9.788   3.459 -0.0873  0.7300  0.1184
    5FIC    C30 4342   9.557   9.675   3.538 -0.2887  0.9670  0.3666
    5FIC    C31 4343   9.487   9.848   3.388  0.0088  0.8008  0.0336
    1BTD     S2 4344   3.440   0.018   5.049 -0.6837  0.4934 -0.1766
    1BTD     N1 4345   3.513   0.001   4.885 -0.2083  0.5255  0.0288
    1BTD     N2 4346   3.351   0.169   5.010 -0.6979  0.4151 -0.4520
    1BTD     N3 4347   3.301   0.448   4.635  0.1317  0.3132 -0.6422
    1BTD     N4 4348   3.501   0.241   4.481  0.7351  0.4491 -0.0497
    1BTD     C5 4349   3.504   0.129   4.676  0.2769  0.4839 -0.0191
    1BTD     C6 4350   3.469   0.104   4.814 -0.0907  0.4784 -0.1111
    1BTD     C7 4351   3.379   0.198   4.883 -0.3647  0.4167 -0.3803
    1BTD     C8 4352   3.327   0.312   4.812 -0.2574  0.3636 -0.5441
    1BTD    C15 4353   3.364   0.332   4.678  0.1056  0.3711 -0.4459
    1BTD    C16 4354   3.451   0.242   4.611  0.3696  0.4306 -0.1866
    1BTD    C43 4355   3.543   0.357   4.415 -0.1349 -1.5338  0.4742
    1BTD    C44 4356   3.686   0.413   4.456  0.8132 -0.1330  1.1139
    1BTD    C45 4357   3.810   0.352   4.373  0.1464  0.8972 -0.4711
    1BTD    C46 4358   3.794   0.348   4.222  0.2760  0.2093  0.0671
    1BTD    C47 4359   3.714   0.499   4.579 -0.8096 -0.7538 -0.8082
    1BTD    C48 4360   3.823   0.628   4.581  0.5435  1.2119  0.2001
    1BTD    C49 4361   3.776   0.742   4.498  0.2801  0.1964  0.9871
    1BTD    C50 4362   3.825   0.871   4.559  0.7060 -1.2017 -0.2973
    1BTD    C75 4363   3.252   0.468   4.498 -0.6998  1.2473 -0.4353
    1BTD    C76 4364   3.222   0.597   4.445 -0.7023 -0.5687  0.6346
    1BTD    C77 4365   3.197   0.576   4.288 -0.2975  0.1400  0.5341
    1BTD    C78 4366   3.050   0.584   4.243  0.1259 -0.2650  0.1394
    1BTD    C79 4367   3.365   0.681   4.425  0.9969  1.1472 -0.8737
    1BTD    C80 4368   3.356   0.828   4.421 -0.0428  1.0890 -0.0003
    1BTD    C81 4369   3.471   0.904   4.377 -0.5033 -0.1012  0.5194
    1BTD    C82 4370   3.422   1.050   4.354  0.9899  0.4694  0.2347
    2TTP     S1 4371   3.610  -0.124   4.578  0.2878  0.5318 -0.1214
    2TTP     S5 4372   3.573   0.021   4.174 -0.1144  0.3035 -0.1680
    2TTP     C1 4373   3.605  -0.158   4.169 -0.1142  0.3014 -0.0987
    2TTP     C2 4374   3.618  -0.213   4.293  0.0100  0.3717 -0.0802
    2TTP     C3 4375   3.603  -0.116   4.397  0.1095  0.4301 -0.1202
    2TTP     C4 4376   3.578   0.055   4.583  0.2876  0.5343 -0.1909
    2TTP    C17 4377   3.564   0.110   4.459  0.1634  0.4638 -0.2093
    2TTP    C18 4378   3.579   0.013   4.355  0.0638  0.4055 -0.1693
    2TTP    C32 4379   3.615  -0.362   4.313  0.4354  0.6539  1.1340
    2TTP    C33 4380   3.721  -0.423   4.401 -0.2954 -0.3637  1.2480
    2TTP    C34 4381   3.862  -0.384   4.367 -1.0344 -1.0852  0.2307
    2TTP    C35 4382   3.965  -0.468   4.428 -0.3471  1.4269 -0.3105
    2TTP    C36 4383   4.033  -0.415   4.557  0.9211 -0.2259  2.2267
    2TTP    C37 4384   4.088  -0.278   4.547  0.0747 -0.1300 -1.2509
    2TTP    C38 4385   4.191  -0.233   4.658  0.3092  0.5549  0.4167
    2TTP    C39 4386   4.296  -0.329   4.705 -1.7657  0.8732 -0.6667
    2TTP    C40 4387   4.427  -0.369   4.617 -0.2877  1.2623 -0.4076
    2TTP    C41 4388   4.429  -0.410   4.474  0.5419  0.6488 -0.8561
    2TTP    C42 4389   4.553  -0.488   4.455 -0.1520 -0.3179  1.1533
    3TTP     S1 4390   3.203   0.494   5.011  0.2849  0.0403 -0.3052
    3TTP     S5 4391   3.120   0.774   4.696  0.6174  0.3864 -0.0864
    3TTP     C1 4392   3.074   0.850   4.854  0.6365  0.2884 -0.0338
    3TTP     C2 4393   3.097   0.768   4.961  0.5350  0.1758 -0.0982
    3TTP     C3 4394   3.152   0.642   4.921  0.4383  0.1628 -0.1915
    3TTP     C4 4395   3.249   0.418   4.852  0.2659  0.1383 -0.3579
    3TTP    C17 4396   3.226   0.500   4.746  0.3673  0.2510 -0.2933
    3TTP    C18 4397   3.172   0.626   4.785  0.4638  0.2640 -0.2000
    3TTP    C32 4398   3.103   0.810   5.116 -0.0005  0.3196  1.7246
    3TTP    C33 4399   3.236   0.863   5.152  0.0345  0.6199 -0.5893
    3TTP    C34 4400   3.321   0.920   5.043 -1.4841  0.1378  0.8721
    3TTP    C35 4401   3.468   0.962   5.082 -1.1235 -0.1954  0.7284
    3TTP    C36 4402   3.521   1.109   5.041  0.5044  0.7755  0.0053
    3TTP    C37 4403   3.486   1.221   5.134 -0.5971  0.3203  0.6370
    3TTP    C38 4404   3.353   1.224   5.229 -1.3565 -1.0217  1.2991
    3TTP    C39 4405   3.319   1.375   5.261 -0.0190  0.0541  0.8762
    3TTP    C40 4406   3.189   1.443   5.218 -0.0634 -1.1960 -0.8405
    3TTP    C41 4407   3.069   1.383   5.310 -0.5979 -0.3007  0.2217
    3TTP    C42 4408   2.962   1.472   5.369  0.6497 -0.0197  0.9575
    4FIC     F1 4409   3.178  -0.041   3.486 -1.0382 -0.7944  0.2403
    4FIC     F2 4410   3.366  -0.187   3.353 -0.3248  0.3612 -0.0499
    4FIC     O1 4411   3.356  -0.084   3.995 -0.7938 -0.8781  0.1487
    4FIC     N5 4412   3.763  -0.427   3.527  0.8751  1.9622 -0.5328
    4FIC     N6 4413   3.864  -0.430   3.952  0.9223  1.6637 -0.5460
    4FIC    C19 4414   3.599  -0.238   4.050 -0.0254  0.1959 -0.1613
    4FIC    C20 4415   3.547  -0.222   3.927 -0.1147  0.1719 -0.1269
    4FIC    C21 4416   3.421  -0.141   3.907 -0.5165 -0.3970  0.0352
    4FIC    C22 4417   3.393  -0.143   3.762 -0.5137 -0.2682  0.0321
    4FIC    C23 4418   3.287  -0.082   3.696 -0.8201 -0.6576  0.1552
    4FIC    C24 4419   3.280  -0.099   3.558 -0.7481 -0.4336  0.1240
    4FIC    C25 4420   3.377  -0.174   3.490 -0.3804  0.1619 -0.0256
    4FIC    C26 4421   3.483  -0.235   3.556 -0.0734  0.5527 -0.1490
    4FIC    C27 4422   3.491  -0.220   3.695 -0.1407  0.3343 -0.1196
    4FIC    C28 4423   3.590  -0.271   3.794  0.1191  0.6282 -0.2233
    4FIC    C29 4424   3.700  -0.348   3.767  0.5031  1.2119 -0.3790
    4FIC    C30 4425   3.734  -0.391   3.635  0.7061  1.6224 -0.4631
    4FIC    C31 4426   3.790  -0.393   3.869  0.7314  1.4570 -0.4699
    5FIC     F1 4427   2.806   1.420   4.332 -0.0098  0.0773  0.3008
    5FIC     F2 4428   2.746   1.578   4.544 -0.4222 -0.2255  0.4121
    5FIC     O1 4429   2.995   0.979   4.583  0.2789  0.0387  0.0174
    5FIC     N5 4430   2.793   1.493   5.029 -0.8093 -0.6885  0.3701
    5FIC     N6 4431   2.953   1.116   5.183 -0.5004 -0.6576  0.1262
    5FIC    C19 4432   3.005   0.974   4.876 -0.0124 -0.2644  0.0232
    5FIC    C20 4433   2.959   1.079   4.804 -0.0690 -0.2428  0.0900
    5FIC    C21 4434   2.958   1.074   4.654  0.0898 -0.0834  0.0821
    5FIC    C22 4435   2.903   1.203   4.608 -0.0234 -0.1015  0.1659
    5FIC    C23 4436   2.882   1.245   4.477  0.0581  0.0141  0.1898
    5FIC    C24 4437   2.829   1.372   4.459 -0.0798 -0.0311  0.2731
    5FIC    C25 4438   2.798   1.453   4.568 -0.2922 -0.1871  0.3301
    5FIC    C26 4439   2.818   1.412   4.699 -0.3744 -0.3030  0.3071
    5FIC    C27 4440   2.872   1.284   4.720 -0.2373 -0.2596  0.2230
    5FIC    C28 4441   2.906   1.211   4.845 -0.2738 -0.3527  0.1786
    5FIC    C29 4442   2.890   1.257   4.974 -0.4616 -0.5105  0.2130
    5FIC    C30 4443   2.837   1.386   5.004 -0.6521 -0.6078  0.2993
    5FIC    C31 4444   2.925   1.179   5.088 -0.4819 -0.5905  0.1652
    1BTD     S2 4445   1.035   8.794   1.950  0.1953  0.0151 -0.1010
    1BTD     N1 4446   1.087   8.637   2.020  0.2250 -0.0074 -0.1722
    1BTD     N2 4447   1.149   8.786   1.811  0.2886  0.1612 -0.0340
    1BTD     N3 4448   1.473   8.485   1.654  0.5323  0.4184 -0.0261
    1BTD     N4 4449   1.396   8.301   1.912  0.4539  0.2110 -0.1965
    1BTD     C5 4450   1.249   8.464   1.961  0.3455  0.1092 -0.1829
    1BTD     C6 4451   1.181   8.589   1.940  0.2991  0.0904 -0.1439
    1BTD     C7 4452   1.216   8.672   1.823  0.3347  0.1848 -0.0665
    1BTD     C8 4453   1.317   8.626   1.732  0.4149  0.2930 -0.0320
    1BTD    C15 4454   1.382   8.503   1.756  0.4581  0.3072 -0.0722
    1BTD    C16 4455   1.348   8.423   1.869  0.4238  0.2171 -0.1468
    1BTD    C43 4456   1.425   8.186   1.830 -0.0892 -1.1246  0.7466
    1BTD    C44 4457   1.334   8.173   1.699  0.2438  1.0023 -0.4182
    1BTD    C45 4458   1.426   8.115   1.580 -0.8276  0.8432  0.7703
    1BTD    C46 4459   1.376   8.153   1.452 -0.0229  0.1869 -0.5130
    1BTD    C47 4460   1.182   8.154   1.728 -0.1443  0.1146 -0.7003
    1BTD    C48 4461   1.071   8.213   1.643 -0.2153 -0.4943  0.1382
    1BTD    C49 4462   0.942   8.165   1.686 -0.5598  0.9801 -0.0282
    1BTD    C50 4463   0.862   8.201   1.809 -0.1627  0.0825 -0.1310
    1BTD    C75 4464   1.610   8.408   1.660  1.4701 -0.1530 -0.0084
    1BTD    C76 4465   1.736   8.490   1.624  1.9597  0.9176 -0.4604
    1BTD    C77 4466   1.738   8.619   1.724 -0.9708  0.7360 -0.0409
    1BTD    C78 4467   1.776   8.585   1.870 -1.1038 -0.0956 -1.1230
    1BTD    C79 4468   1.852   8.397   1.623  0.4222  0.1960 -1.0436
    1BTD    C80 4469   1.976   8.445   1.559 -1.0136 -0.0754 -0.7383
    1BTD    C81 4470   2.006   8.593   1.534  1.2891  0.4706 -0.2301
    1BTD    C82 4471   2.079   8.631   1.397  0.0882  1.0214 -0.6710
    2TTP     S1 4472   1.120   8.298   2.194  0.1774 -0.2370  0.5678
    2TTP     S5 4473   1.409   7.991   2.107 -0.0723 -0.4570  0.5146
    2TTP     C1 4474   1.301   7.933   2.242  0.3355 -0.1032  0.9980
    2TTP     C2 4475   1.206   8.025   2.277  0.4367 -0.0145  1.0428
    2TTP     C3 4476   1.214   8.144   2.198  0.1958 -0.2229  0.6972
    2TTP     C4 4477   1.228   8.356   2.059 -0.2304 -0.5910  0.0846
    2TTP    C17 4478   1.323   8.265   2.024 -0.3315 -0.6798  0.0397
    2TTP    C18 4479   1.315   8.146   2.103 -0.0906 -0.4716  0.3853
    2TTP    C32 4480   1.095   8.046   2.385 -0.5101  0.0277  0.6024
    2TTP    C33 4481   0.984   7.943   2.387  1.3236 -0.3618 -0.1854
    2TTP    C34 4482   0.900   7.920   2.257  0.3431 -0.4925 -0.0202
    2TTP    C35 4483   0.780   7.839   2.267  0.3806  1.7391  1.2208
    2TTP    C36 4484   0.792   7.673   2.271 -0.5678 -0.5306 -0.9820
    2TTP    C37 4485   0.888   7.599   2.376  1.6522 -0.9102 -0.2293
    2TTP    C38 4486   0.812   7.552   2.502 -0.9489 -0.8967 -0.9617
    2TTP    C39 4487   0.768   7.415   2.525 -1.1195  0.0861  0.6993
    2TTP    C40 4488   0.623   7.384   2.512 -0.6405  1.6365 -0.1210
    2TTP    C41 4489   0.601   7.227   2.511  0.4277 -0.5569  0.6067
    2TTP    C42 4490   0.649   7.170   2.366 -0.9868 -0.7768  0.6663
    3TTP     S1 4491   1.315   8.806   1.502 -0.2408 -0.0869 -0.1938
    3TTP     S5 4492   1.530   8.508   1.279  0.3076  0.1605  0.0012
    3TTP     C1 4493   1.466   8.632   1.163  0.1019 -0.0185 -0.0773
    3TTP     C2 4494   1.396   8.731   1.225 -0.0795 -0.1051 -0.1422
    3TTP     C3 4495   1.390   8.713   1.366 -0.0627 -0.0336 -0.1322
    3TTP     C4 4496   1.379   8.682   1.618 -0.0352  0.0923 -0.1154
    3TTP    C17 4497   1.450   8.582   1.557  0.1462  0.1787 -0.0505
    3TTP    C18 4498   1.455   8.601   1.415  0.1294  0.1073 -0.0605
    3TTP    C32 4499   1.317   8.854   1.173 -0.8287  1.7500  0.5501
    3TTP    C33 4500   1.175   8.803   1.124 -0.7967  0.5927 -1.4048
    3TTP    C34 4501   1.073   8.881   1.065 -2.0893  0.7281 -0.1795
    3TTP    C35 4502   1.037   9.018   1.119  0.4171  0.1422 -0.4684
    3TTP    C36 4503   1.083   9.071   1.249  1.0047  0.3552  0.2128
    3TTP    C37 4504   1.139   9.211   1.271  0.4215 -0.7692 -1.9804
    3TTP    C38 4505   1.047   9.340   1.240  1.3285  1.4888  0.8364
    3TTP    C39 4506   0.963   9.373   1.356  0.3740 -1.1214 -0.8351
    3TTP    C40 4507   0.894   9.516   1.351 -0.1633  0.9905  0.8650
    3TTP    C41 4508   0.963   9.622   1.438 -0.7136 -0.4993  1.1366
    3TTP    C42 4509   0.903   9.751   1.455  1.3150 -1.6649 -1.0797
    4FIC     F1 4510   1.528   7.185   1.996 -0.2618  0.0530  0.1618
    4FIC     F2 4511   1.437   7.087   2.233  1.0302  0.5903  0.8979
    4FIC     O1 4512   1.409   7.710   2.050 -1.0005  0.0007 -0.8845
    4FIC     N5 4513   1.223   7.320   2.613  2.3613  1.3258  1.2105
    4FIC     N6 4514   1.148   7.751   2.608  1.5236  1.1766  0.2446
    4FIC    C19 4515   1.281   7.803   2.296 -0.0285  0.4957 -0.5530
    4FIC    C20 4516   1.314   7.675   2.273  0.1069  0.4878 -0.3185
    4FIC    C21 4517   1.380   7.635   2.144 -0.4191  0.2257 -0.5116
    4FIC    C22 4518   1.402   7.489   2.152 -0.1076  0.2890 -0.1717
    4FIC    C23 4519   1.461   7.407   2.056 -0.3995  0.1107 -0.1988
    4FIC    C24 4520   1.471   7.272   2.086 -0.0048  0.2178  0.1662
    4FIC    C25 4521   1.424   7.222   2.209  0.6606  0.4946  0.5450
    4FIC    C26 4522   1.366   7.303   2.305  0.9552  0.6737  0.5744
    4FIC    C27 4523   1.355   7.440   2.276  0.5635  0.5691  0.2083
    4FIC    C28 4524   1.298   7.552   2.355  0.7218  0.7021  0.1331
    4FIC    C29 4525   1.243   7.544   2.481  1.3233  0.9727  0.4262
    4FIC    C30 4526   1.232   7.421   2.553  1.8919  1.1659  0.8565
    4FIC    C31 4527   1.191   7.658   2.550  1.4300  1.0833  0.3245
    5FIC     F1 4528   2.073   8.336   0.699 -0.0085 -0.5937  0.3034
    5FIC     F2 4529   2.013   8.520   0.507  0.9541 -0.0494  0.5097
    5FIC     O1 4530   1.697   8.448   1.072 -0.6778 -0.3769 -0.4307
    5FIC     N5 4531   1.658   8.865   0.499  1.8609  0.8876  0.2832
    5FIC     N6 4532   1.377   8.916   0.829  1.1438  0.9472 -0.3320
    5FIC    C19 4533   1.506   8.664   1.022  0.0040  0.2198 -0.4943
    5FIC    C20 4534   1.603   8.629   0.935  0.1348  0.1442 -0.3177
    5FIC    C21 4535   1.698   8.517   0.968 -0.2368 -0.1674 -0.2967
    5FIC    C22 4536   1.790   8.504   0.854  0.0262 -0.1731 -0.0870
    5FIC    C23 4537   1.895   8.414   0.838 -0.1648 -0.4139  0.0035
    5FIC    C24 4538   1.968   8.422   0.721  0.1559 -0.3655  0.2045
    5FIC    C25 4539   1.937   8.517   0.622  0.6517 -0.0847  0.3104
    5FIC    C26 4540   1.832   8.607   0.637  0.8447  0.1562  0.2212
    5FIC    C27 4541   1.757   8.601   0.755  0.5257  0.1116  0.0178
    5FIC    C28 4542   1.641   8.681   0.802  0.6121  0.3178 -0.1198
    5FIC    C29 4543   1.580   8.784   0.733  1.0508  0.6132 -0.0727
    5FIC    C30 4544   1.623   8.828   0.605  1.4947  0.7629  0.1228
    5FIC    C31 4545   1.469   8.856   0.786  1.0994  0.7954 -0.2156
    1BTD     S2 4546   0.288   8.008   6.754  0.1679  0.1827  0.0526
    1BTD     N1 4547   0.274   7.831   6.723  0.4597  0.1149  0.2983
    1BTD     N2 4548   0.401   8.038   6.617 -0.2004  0.2515 -0.2388
    1BTD     N3 4549   0.605   7.781   6.282 -0.4240  0.2691 -0.3895
    1BTD     N4 4550   0.449   7.526   6.412  0.3894  0.1006  0.2725
    1BTD     C5 4551   0.367   7.675   6.559  0.4131  0.1096  0.2768
    1BTD     C6 4552   0.350   7.805   6.618  0.2770  0.1456  0.1575
    1BTD     C7 4553   0.421   7.921   6.558 -0.0925  0.2218 -0.1429
    1BTD     C8 4554   0.506   7.901   6.444 -0.3073  0.2586 -0.3096
    1BTD    C15 4555   0.519   7.771   6.390 -0.1628  0.2213 -0.1839
    1BTD    C16 4556   0.451   7.660   6.447  0.1931  0.1476  0.1060
    1BTD    C43 4557   0.557   7.438   6.349  1.1480 -0.5288  1.9506
    1BTD    C44 4558   0.561   7.288   6.333  0.8154 -0.2842 -0.4284
    1BTD    C45 4559   0.680   7.217   6.399 -1.3817  0.8768 -0.8192
    1BTD    C46 4560   0.670   7.194   6.550  0.3655 -0.3070  0.4119
    1BTD    C47 4561   0.529   7.266   6.182  0.7449  0.6992  1.4260
    1BTD    C48 4562   0.500   7.121   6.122  0.3733  0.2620 -1.1307
    1BTD    C49 4563   0.464   7.105   5.985 -0.4456  0.4828  1.0121
    1BTD    C50 4564   0.580   7.147   5.896 -0.2533  1.1334  0.3979
    1BTD    C75 4565   0.608   7.689   6.166 -0.2115  0.8840  0.4875
    1BTD    C76 4566   0.534   7.699   6.038  0.9659 -0.0693 -0.7529
    1BTD    C77 4567   0.571   7.625   5.913  0.2150 -0.8870  0.6549
    1BTD    C78 4568   0.715   7.634   5.859  0.6882  1.4757  1.0250
    1BTD    C79 4569   0.374   7.706   6.051 -0.5821  0.9942  0.1939
    1BTD    C80 4570   0.288   7.589   6.121 -1.6044 -0.2798 -0.8514
    1BTD    C81 4571   0.150   7.588   6.052 -0.6024 -0.9855  0.3744
    1BTD    C82 4572   0.090   7.463   6.091 -1.2195 -0.0036  0.7558
    2TTP     S1 4573   0.159   7.496   6.676  0.0562  0.5482 -0.2250
    2TTP     S5 4574   0.219   7.227   6.346 -0.4531  0.0626  0.0756
    2TTP     C1 4575   0.070   7.176   6.436 -0.5794  0.4761  0.1044
    2TTP     C2 4576   0.042   7.256   6.543 -0.4296  0.6504  0.0134
    2TTP     C3 4577   0.139   7.360   6.558 -0.2096  0.4637 -0.0826
    2TTP     C4 4578   0.309   7.547   6.585  0.1824  0.1346 -0.2538
    2TTP    C17 4579   0.336   7.467   6.478  0.0326 -0.0397 -0.1628
    2TTP    C18 4580   0.240   7.362   6.464 -0.1873  0.1471 -0.0668
    2TTP    C32 4581  -0.055   7.218   6.647  0.6878 -0.2660  1.0308
    2TTP    C33 4582  -0.000   7.135   6.762  0.3669  0.4361 -0.4660
    2TTP    C34 4583   0.133   7.157   6.824 -0.2870 -0.3102 -0.4548
    2TTP    C35 4584   0.205   7.038   6.905  1.1207 -0.0769 -1.2426
    2TTP    C36 4585   0.271   6.940   6.812 -0.6754  0.3819  0.3628
    2TTP    C37 4586   0.405   6.869   6.851 -0.2450  0.2439  1.2699
    2TTP    C38 4587   0.445   6.810   6.715  0.5188  0.6918  0.0697
    2TTP    C39 4588   0.581   6.741   6.726 -0.1605  0.2560 -0.5186
    2TTP    C40 4589   0.706   6.805   6.659  1.1073  0.2286  0.1954
    2TTP    C41 4590   0.737   6.816   6.511  1.1913 -0.0087 -0.0193
    2TTP    C42 4591   0.871   6.880   6.483  0.2661  0.7746  0.1733
    3TTP     S1 4592   0.592   8.167   6.329  0.3024  0.0382 -0.0086
    3TTP     S5 4593   0.827   7.959   6.034  0.4531  0.1379  0.0410
    3TTP     C1 4594   0.850   8.138   6.012  0.4551  0.1456  0.1057
    3TTP     C2 4595   0.780   8.213   6.101  0.4087  0.1156  0.0941
    3TTP     C3 4596   0.704   8.131   6.191  0.3699  0.0846  0.0340
    3TTP     C4 4597   0.569   7.988   6.352  0.3004  0.0306 -0.0732
    3TTP    C17 4598   0.639   7.913   6.262  0.3469  0.0607 -0.0617
    3TTP    C18 4599   0.715   7.994   6.172  0.3857  0.0912 -0.0014
    3TTP    C32 4600   0.765   8.368   6.088 -0.3746 -0.5720 -0.7452
    3TTP    C33 4601   0.812   8.447   6.210  1.3577  1.8313  1.0240
    3TTP    C34 4602   0.952   8.497   6.241 -0.2390 -0.7682 -0.5177
    3TTP    C35 4603   1.046   8.383   6.295  1.3050 -0.1228  0.1658
    3TTP    C36 4604   0.996   8.269   6.394 -0.3551  0.6288  0.8679
    3TTP    C37 4605   1.016   8.315   6.546  1.3255 -0.4073  0.3173
    3TTP    C38 4606   1.014   8.195   6.640  0.2120  0.0103  0.7098
    3TTP    C39 4607   1.128   8.113   6.602  0.0144  1.0841  0.8163
    3TTP    C40 4608   1.158   8.022   6.713 -0.4193 -1.2740 -0.0339
    3TTP    C41 4609   1.172   7.882   6.671 -2.4774  0.5437 -1.2286
    3TTP    C42 4610   1.314   7.867   6.606  0.4219 -1.9121 -0.1823
    4FIC     F1 4611  -0.103   6.771   5.738 -0.3092 -0.0854  0.0761
    4FIC     F2 4612  -0.333   6.684   5.855 -0.0374 -0.3437  0.4225
    4FIC     O1 4613   0.112   7.063   6.140 -0.1593  0.3779 -0.3384
    4FIC     N5 4614  -0.510   6.767   6.310  0.4601 -0.3855  0.6251
    4FIC     N6 4615  -0.295   7.013   6.600  0.5224  0.0285  0.2314
    4FIC    C19 4616  -0.031   7.084   6.395  0.1533  0.2952 -0.1547
    4FIC    C20 4617  -0.076   7.014   6.289  0.1049  0.1888 -0.0639
    4FIC    C21 4618   0.003   7.008   6.162 -0.0575  0.2404 -0.1682
    4FIC    C22 4619  -0.074   6.924   6.068 -0.0713  0.0962 -0.0284
    4FIC    C23 4620  -0.041   6.890   5.937 -0.2007  0.0845 -0.0584
    4FIC    C24 4621  -0.130   6.809   5.868 -0.1859 -0.0651  0.0956
    4FIC    C25 4622  -0.248   6.764   5.929 -0.0459 -0.1981  0.2740
    4FIC    C26 4623  -0.282   6.798   6.059  0.0837 -0.1873  0.3052
    4FIC    C27 4624  -0.193   6.880   6.131  0.0710 -0.0368  0.1508
    4FIC    C28 4625  -0.199   6.933   6.269  0.1853  0.0148  0.1360
    4FIC    C29 4626  -0.299   6.912   6.361  0.3362 -0.0806  0.2800
    4FIC    C30 4627  -0.415   6.832   6.332  0.4039 -0.2480  0.4692
    4FIC    C31 4628  -0.297   6.968   6.492  0.4380 -0.0201  0.2524
    5FIC     F1 4629   1.330   7.851   5.413  0.6424 -0.0020  0.3755
    5FIC     F2 4630   1.369   8.107   5.331  0.1317 -0.0207  0.0628
    5FIC     O1 4631   1.003   7.928   5.838  0.3563 -0.1456  0.1819
    5FIC     N5 4632   1.193   8.531   5.515 -0.8065 -0.1502 -0.5244
    5FIC     N6 4633   0.929   8.540   5.863 -0.9272 -0.2584 -0.6127
    5FIC    C19 4634   0.924   8.201   5.910 -0.2333 -0.2144 -0.1855
    5FIC    C20 4635   1.005   8.171   5.806 -0.1414 -0.1776 -0.1247
    5FIC    C21 4636   1.041   8.029   5.775  0.1651 -0.1438  0.0660
    5FIC    C22 4637   1.130   8.032   5.658  0.1920 -0.1080  0.0874
    5FIC    C23 4638   1.188   7.924   5.592  0.4361 -0.0696  0.2408
    5FIC    C24 4639   1.269   7.953   5.482  0.4095 -0.0408  0.2286
    5FIC    C25 4640   1.289   8.085   5.440  0.1461 -0.0507  0.0674
    5FIC    C26 4641   1.230   8.193   5.505 -0.0982 -0.0889 -0.0862
    5FIC    C27 4642   1.149   8.166   5.616 -0.0755 -0.1185 -0.0765
    5FIC    C28 4643   1.073   8.257   5.706 -0.2909 -0.1616 -0.2130
    5FIC    C29 4644   1.067   8.394   5.698 -0.5746 -0.1824 -0.3881
    5FIC    C30 4645   1.136   8.469   5.597 -0.7011 -0.1650 -0.4625
    5FIC    C31 4646   0.991   8.474   5.789 -0.7669 -0.2241 -0.5107
    1BTD     S2 4647   4.527   2.849   4.653 -0.4768  0.2083 -0.2736
    1BTD     N1 4648   4.480   2.679   4.689 -0.1221  0.1139 -0.2533
    1BTD     N2 4649   4.500   2.907   4.821 -0.7039  0.1962 -0.3053
    1BTD     N3 4650   4.360   2.719   5.228 -0.5261  0.0009 -0.3345
    1BTD     N4 4651   4.337   2.438   5.065  0.1909 -0.1004 -0.2705
    1BTD     C5 4652   4.406   2.557   4.888  0.0325  0.0032 -0.2631
    1BTD     C6 4653   4.449   2.675   4.818 -0.1878  0.0799 -0.2706
    1BTD     C7 4654   4.459   2.803   4.892 -0.5134  0.1259 -0.2998
    1BTD     C8 4655   4.427   2.806   5.032 -0.6025  0.0930 -0.3197
    1BTD    C15 4656   4.385   2.688   5.096 -0.3786  0.0176 -0.3113
    1BTD    C16 4657   4.374   2.564   5.025 -0.0650 -0.0267 -0.2834
    1BTD    C43 4658   4.328   2.370   5.194  0.2919  0.4012 -0.8563
    1BTD    C44 4659   4.465   2.356   5.282 -0.4073 -0.3430  0.7424
    1BTD    C45 4660   4.575   2.250   5.250  0.7764  0.4990  0.4181
    1BTD    C46 4661   4.631   2.262   5.102 -0.9196  0.4087  1.3428
    1BTD    C47 4662   4.415   2.326   5.431  0.2945  0.1376  0.8446
    1BTD    C48 4663   4.508   2.335   5.551 -0.1643 -0.6138  0.4577
    1BTD    C49 4664   4.562   2.479   5.567  2.0797  0.3628  0.6305
    1BTD    C50 4665   4.669   2.499   5.675 -0.4255  0.6059  1.7342
    1BTD    C75 4666   4.291   2.650   5.337 -0.0959 -0.8846  0.2917
    1BTD    C76 4667   4.229   2.720   5.459 -0.2843  0.6752  0.1415
    1BTD    C77 4668   4.094   2.772   5.421 -0.3994 -0.2265 -1.1516
    1BTD    C78 4669   3.971   2.698   5.377  0.6453 -0.3840  0.0621
    1BTD    C79 4670   4.220   2.633   5.597 -0.7045  0.6231 -0.1178
    1BTD    C80 4671   4.199   2.695   5.733  0.2140 -1.1955 -0.0102
    1BTD    C81 4672   4.081   2.774   5.766 -0.1762 -1.6925  0.3495
    1BTD    C82 4673   4.069   2.836   5.913  0.1361  1.2996  1.2872
    2TTP     S1 4674   4.338   2.347   4.689 -0.1475 -0.0232 -0.3010
    2TTP     S5 4675   4.200   2.085   5.001  0.1416 -0.0292 -0.1767
    2TTP     C1 4676   4.163   2.008   4.840  0.3794 -0.2258 -0.1388
    2TTP     C2 4677   4.204   2.085   4.734  0.3041 -0.2355 -0.1748
    2TTP     C3 4678   4.265   2.207   4.776  0.0558 -0.0882 -0.2338
    2TTP     C4 4679   4.375   2.424   4.850 -0.3853  0.1733 -0.3388
    2TTP    C17 4680   4.334   2.347   4.956 -0.3101  0.1831 -0.3027
    2TTP    C18 4681   4.273   2.225   4.914 -0.0619  0.0356 -0.2438
    2TTP    C32 4682   4.212   2.051   4.581 -0.9354  1.3927 -1.0537
    2TTP    C33 4683   4.301   1.927   4.548  1.4225  0.5827  2.0118
    2TTP    C34 4684   4.437   1.921   4.581 -0.6823  1.2111 -1.1508
    2TTP    C35 4685   4.538   1.993   4.500  0.8533  0.5234  0.4768
    2TTP    C36 4686   4.679   1.931   4.502  0.3086 -0.4432  1.3494
    2TTP    C37 4687   4.813   1.998   4.455  0.2835 -0.0819  0.2330
    2TTP    C38 4688   4.940   1.899   4.465  0.8318 -0.6492  0.9027
    2TTP    C39 4689   4.946   1.780   4.359 -1.7293  1.0168  0.1459
    2TTP    C40 4690   5.038   1.667   4.387 -0.1794 -0.0185 -0.7625
    2TTP    C41 4691   5.015   1.535   4.315  1.3909 -0.7778  0.2442
    2TTP    C42 4692   4.959   1.412   4.411  0.2220 -0.7194  0.8341
    3TTP     S1 4693   4.539   3.052   5.143 -0.4840 -0.0436  0.0167
    3TTP     S5 4694   4.511   2.884   5.538  0.6688 -0.1864  0.0443
    3TTP     C1 4695   4.616   3.032   5.546  0.7603 -0.2358 -0.2217
    3TTP     C2 4696   4.631   3.093   5.424  0.4096 -0.1947 -0.2458
    3TTP     C3 4697   4.560   3.025   5.321  0.0561 -0.1225 -0.0553
    3TTP     C4 4698   4.435   2.904   5.136 -0.5755  0.0058  0.2826
    3TTP    C17 4699   4.420   2.843   5.257 -0.2248 -0.0354  0.3068
    3TTP    C18 4700   4.491   2.911   5.361  0.1286 -0.1074  0.1161
    3TTP    C32 4701   4.694   3.230   5.407  0.6168 -0.3905 -0.5905
    3TTP    C33 4702   4.586   3.326   5.351 -0.5990  0.2311  0.0520
    3TTP    C34 4703   4.501   3.389   5.461 -0.1253  0.2886 -0.0578
    3TTP    C35 4704   4.571   3.472   5.573 -0.4641  0.4518 -0.4793
    3TTP    C36 4705   4.699   3.559   5.558 -0.6005 -0.3263  0.3825
    3TTP    C37 4706   4.686   3.649   5.433  0.5736  0.0701  0.7750
    3TTP    C38 4707   4.773   3.771   5.453 -0.7133  0.5664  0.9979
    3TTP    C39 4708   4.766   3.847   5.590 -0.7052  0.3149 -0.0368
    3TTP    C40 4709   4.853   3.971   5.589 -0.0374  1.1793  0.0707
    3TTP    C41 4710   4.845   4.043   5.730  0.6816 -0.7020 -0.1172
    3TTP    C42 4711   4.911   4.180   5.692 -0.6862  1.1602  0.6509
    4FIC     F1 4712   4.113   1.323   5.300  0.2559 -0.2931 -0.3716
    4FIC     F2 4713   3.909   1.240   5.140 -0.2779  0.1645  0.0632
    4FIC     O1 4714   4.253   1.786   5.056  0.2339 -0.1985 -0.2055
    4FIC     N5 4715   3.716   1.451   4.736 -1.0610  0.8897  0.8065
    4FIC     N6 4716   3.867   1.829   4.577 -0.9707  0.8714  0.8484
    4FIC    C19 4717   4.108   1.871   4.816 -0.2839  0.2722  0.2686
    4FIC    C20 4718   4.081   1.758   4.884 -0.2576  0.2305  0.2099
    4FIC    C21 4719   4.160   1.721   5.006  0.0155 -0.0165 -0.0377
    4FIC    C22 4720   4.105   1.593   5.055 -0.0281  0.0014 -0.0405
    4FIC    C23 4721   4.145   1.519   5.166  0.1652 -0.1812 -0.2309
    4FIC    C24 4722   4.078   1.401   5.192  0.0755 -0.1212 -0.1909
    4FIC    C25 4723   3.973   1.359   5.109 -0.1996  0.1147  0.0332
    4FIC    C26 4724   3.931   1.432   4.998 -0.3938  0.2978  0.2239
    4FIC    C27 4725   3.999   1.552   4.970 -0.3065  0.2405  0.1869
    4FIC    C28 4726   3.980   1.651   4.862 -0.4585  0.3906  0.3496
    4FIC    C29 4727   3.887   1.645   4.761 -0.7330  0.6319  0.5851
    4FIC    C30 4728   3.793   1.538   4.747 -0.9122  0.7728  0.7058
    4FIC    C31 4729   3.876   1.746   4.660 -0.8621  0.7623  0.7285
    5FIC     F1 4730   4.546   2.862   6.350  0.3046 -0.5273 -0.3513
    5FIC     F2 4731   4.782   2.991   6.390 -0.0259  0.0263 -0.1677
    5FIC     O1 4732   4.479   2.933   5.817  0.3569 -0.3485 -0.3344
    5FIC     N5 4733   5.073   3.228   6.067 -0.4638  0.9496  0.1086
    5FIC     N6 4734   4.973   3.258   5.643 -0.3564  0.9777  0.0849
    5FIC    C19 4735   4.680   3.082   5.666  0.0597  0.2438 -0.1528
    5FIC    C20 4736   4.688   3.059   5.799  0.0595  0.1773 -0.1643
    5FIC    C21 4737   4.580   2.982   5.869  0.2173 -0.1326 -0.2599
    5FIC    C22 4738   4.620   2.975   6.011  0.1730 -0.1277 -0.2470
    5FIC    C23 4739   4.551   2.913   6.116  0.2781 -0.3630 -0.3158
    5FIC    C24 4740   4.608   2.920   6.242  0.2078 -0.3047 -0.2871
    5FIC    C25 4741   4.730   2.987   6.262  0.0376 -0.0193 -0.1924
    5FIC    C26 4742   4.799   3.049   6.158 -0.0681  0.2165 -0.1235
    5FIC    C27 4743   4.743   3.043   6.030  0.0010  0.1618 -0.1513
    5FIC    C28 4744   4.789   3.097   5.900 -0.0757  0.3605 -0.0966
    5FIC    C29 4745   4.905   3.169   5.878 -0.2406  0.6576 -0.0012
    5FIC    C30 4746   4.997   3.201   5.982 -0.3628  0.8171  0.0588
    5FIC    C31 4747   4.942   3.217   5.749 -0.3034  0.8320  0.0455
    1BTD     S2 4748  10.219   5.839   3.203  0.1433  0.4972  0.0417
    1BTD     N1 4749  10.093   5.966   3.181  0.0587  0.4213  0.0858
    1BTD     N2 4750  10.311   5.885   3.056 -0.0086  0.4683 -0.0626
    1BTD     N3 4751  10.272   6.205   2.715 -0.4699  0.2717 -0.1956
    1BTD     N4 4752  10.003   6.305   2.869 -0.3874  0.2137 -0.0128
    1BTD     C5 4753  10.049   6.142   3.016 -0.1752  0.3135  0.0322
    1BTD     C6 4754  10.125   6.032   3.071 -0.0713  0.3804  0.0238
    1BTD     C7 4755  10.247   5.986   3.000 -0.1090  0.4066 -0.0594
    1BTD     C8 4756  10.288   6.053   2.880 -0.2487  0.3650 -0.1298
    1BTD    C15 4757  10.211   6.160   2.830 -0.3465  0.2999 -0.1186
    1BTD    C16 4758  10.093   6.204   2.898 -0.3105  0.2748 -0.0385
    1BTD    C43 4759  10.055   6.432   2.800 -0.1407 -0.0118  0.1181
    1BTD    C44 4760  10.104   6.553   2.879  0.8104  0.8788 -0.8923
    1BTD    C45 4761  10.248   6.548   2.924 -0.2491 -1.3395 -0.9526
    1BTD    C46 4762  10.382   6.534   2.852  0.0444  0.5158 -0.4094
    1BTD    C47 4763  10.050   6.690   2.824  0.2213  0.4287  0.2523
    1BTD    C48 4764  10.099   6.735   2.690 -0.1026 -0.4979  0.4970
    1BTD    C49 4765  10.168   6.866   2.714 -0.1932  0.5829 -0.5457
    1BTD    C50 4766  10.288   6.890   2.611 -0.2749 -1.7224  0.5689
    1BTD    C75 4767  10.223   6.237   2.591  1.2801 -0.2915  0.3228
    1BTD    C76 4768  10.093   6.192   2.523 -0.0416  0.4599 -0.6822
    1BTD    C77 4769  10.026   6.066   2.583  0.3253  0.6315  0.6748
    1BTD    C78 4770   9.870   6.055   2.547 -1.7081  0.3626  0.5841
    1BTD    C79 4771  10.044   6.232   2.382  0.0119 -0.6823 -0.2154
    1BTD    C80 4772  10.159   6.264   2.286  0.7944  0.7819 -0.0383
    1BTD    C81 4773  10.107   6.303   2.142 -0.8382  0.1368  0.3541
    1BTD    C82 4774  10.240   6.356   2.065  0.1767  0.2030 -0.5003
    2TTP     S1 4775   9.809   6.168   3.172  0.0262 -0.0692  0.1522
    2TTP     S5 4776   9.688   6.488   2.911  0.0875  0.0606  0.2819
    2TTP     C1 4777   9.547   6.442   3.016 -0.0131 -0.1641  0.0517
    2TTP     C2 4778   9.576   6.341   3.103 -0.0379 -0.2173 -0.0020
    2TTP     C3 4779   9.711   6.295   3.090  0.0217 -0.0827  0.1369
    2TTP     C4 4780   9.950   6.214   3.067  0.1268  0.1553  0.3824
    2TTP    C17 4781   9.921   6.315   2.980  0.1516  0.2085  0.4361
    2TTP    C18 4782   9.786   6.360   2.994  0.0920  0.0740  0.2972
    2TTP    C32 4783   9.493   6.281   3.213  0.6247 -0.0699 -0.1140
    2TTP    C33 4784   9.403   6.152   3.195 -0.8663 -0.0585 -0.9875
    2TTP    C34 4785   9.313   6.146   3.082 -0.5820 -0.1651  0.4815
    2TTP    C35 4786   9.226   6.049   3.136  0.0731 -0.2376 -1.1814
    2TTP    C36 4787   9.099   6.007   3.072  0.3788  1.1842  0.1825
    2TTP    C37 4788   8.985   6.118   3.052 -0.0403  0.2951  0.6459
    2TTP    C38 4789   8.852   6.067   2.978 -0.9412  0.0988 -0.1323
    2TTP    C39 4790   8.798   5.932   2.915  0.8835 -0.7386  0.1584
    2TTP    C40 4791   8.908   5.871   2.832 -0.2350  0.8721  1.7904
    2TTP    C41 4792   8.832   5.859   2.691  0.0163  0.3914 -0.7823
    2TTP    C42 4793   8.919   5.780   2.582  0.6214 -0.2960 -0.4075
    3TTP     S1 4794  10.583   5.971   2.817  0.3390  0.0600 -0.0035
    3TTP     S5 4795  10.555   6.205   2.457 -0.3097  0.3508  0.2324
    3TTP     C1 4796  10.718   6.122   2.460 -0.0959  0.7640  0.1274
    3TTP     C2 4797  10.736   6.046   2.571  0.1175  0.6984  0.0483
    3TTP     C3 4798  10.622   6.049   2.658  0.1190  0.3197  0.0678
    3TTP     C4 4799  10.421   6.053   2.813  0.1247 -0.3529  0.1014
    3TTP    C17 4800  10.403   6.130   2.702 -0.0885 -0.2874  0.1804
    3TTP    C18 4801  10.516   6.127   2.615 -0.0901  0.0912  0.1610
    3TTP    C32 4802  10.863   5.969   2.612 -0.0222  0.2405  2.1733
    3TTP    C33 4803  10.965   5.980   2.734  0.2787 -0.0943  0.4236
    3TTP    C34 4804  10.918   6.082   2.843  0.9786  0.6971 -0.5679
    3TTP    C35 4805  10.908   6.017   2.974  1.8805  1.0681 -0.5662
    3TTP    C36 4806  10.948   6.075   3.106  1.0868  0.5862  0.4406
    3TTP    C37 4807  11.069   6.037   3.181 -0.4435 -0.5526 -0.2655
    3TTP    C38 4808  11.173   6.141   3.210 -1.6684 -1.3877  1.1297
    3TTP    C39 4809  11.117   6.262   3.292  0.4013  0.2858  0.3034
    3TTP    C40 4810  11.116   6.256   3.445  0.8221  0.1871 -0.8528
    3TTP    C41 4811  11.233   6.295   3.538 -0.8251 -1.5002 -0.2600
    3TTP    C42 4812  11.299   6.423   3.492  0.7123 -2.4293  0.0343
    4FIC     F1 4813   9.293   7.160   2.695  0.1006  0.2639  0.4558
    4FIC     F2 4814   9.039   7.095   2.769  0.0801  0.1270  0.2697
    4FIC     O1 4815   9.568   6.735   2.887  0.0572 -0.0597 -0.1933
    4FIC     N5 4816   8.870   6.699   3.013  0.0200 -0.3009 -0.4606
    4FIC     N6 4817   9.136   6.380   3.148 -0.0100 -0.5263 -0.9302
    4FIC    C19 4818   9.423   6.522   3.026  0.0225 -0.3057 -0.6016
    4FIC    C20 4819   9.364   6.632   2.975  0.0341 -0.2189 -0.4311
    4FIC    C21 4820   9.445   6.737   2.905  0.0520 -0.0947 -0.2266
    4FIC    C22 4821   9.350   6.841   2.862  0.0613 -0.0232 -0.0753
    4FIC    C23 4822   9.378   6.959   2.793  0.0782  0.0973  0.1348
    4FIC    C24 4823   9.272   7.042   2.763  0.0840  0.1454  0.2471
    4FIC    C25 4824   9.141   7.009   2.802  0.0734  0.0747  0.1510
    4FIC    C26 4825   9.112   6.892   2.870  0.0565 -0.0455 -0.0587
    4FIC    C27 4826   9.219   6.806   2.901  0.0501 -0.0961 -0.1749
    4FIC    C28 4827   9.222   6.676   2.973  0.0329 -0.2190 -0.3974
    4FIC    C29 4828   9.114   6.609   3.026  0.0196 -0.3150 -0.5441
    4FIC    C30 4829   8.980   6.659   3.019  0.0196 -0.3070 -0.4976
    4FIC    C31 4830   9.127   6.483   3.093  0.0033 -0.4307 -0.7557
    5FIC     F1 4831  10.687   6.475   1.714 -0.0873 -0.9679 -0.3815
    5FIC     F2 4832  10.958   6.499   1.721 -0.1659 -0.1156 -0.0591
    5FIC     O1 4833  10.596   6.216   2.181  0.1192 -0.6902 -0.1862
    5FIC     N5 4834  11.283   6.350   2.063 -0.1311  1.3078  0.5437
    5FIC     N6 4835  11.157   6.142   2.426  0.0465  1.3529  0.6313
    5FIC    C19 4836  10.823   6.147   2.353  0.1181  0.2228  0.1913
    5FIC    C20 4837  10.835   6.211   2.235  0.0691  0.1196  0.1295
    5FIC    C21 4838  10.714   6.243   2.152  0.0732 -0.3577 -0.0665
    5FIC    C22 4839  10.763   6.312   2.032  0.0124 -0.3510 -0.0873
    5FIC    C23 4840  10.687   6.361   1.926 -0.0062 -0.7137 -0.2446
    5FIC    C24 4841  10.756   6.424   1.822 -0.0663 -0.6246 -0.2311
    5FIC    C25 4842  10.895   6.436   1.826 -0.1066 -0.1853 -0.0649
    5FIC    C26 4843  10.971   6.388   1.932 -0.0887  0.1785  0.0927
    5FIC    C27 4844  10.903   6.324   2.037 -0.0277  0.0947  0.0817
    5FIC    C28 4845  10.954   6.262   2.162  0.0057  0.4014  0.2215
    5FIC    C29 4846  11.085   6.254   2.203 -0.0181  0.8589  0.4017
    5FIC    C30 4847  11.193   6.307   2.126 -0.0801  1.1041  0.4792
    5FIC    C31 4848  11.124   6.193   2.326  0.0176  1.1281  0.5270
    1BTD     S2 4849   6.714   7.620   4.039  0.1662 -0.3017  0.5670
    1BTD     N1 4850   6.702   7.646   4.217  0.4739 -0.0585  0.5528
    1BTD     N2 4851   6.772   7.786   4.003 -0.2109 -0.2452  0.2000
    1BTD     N3 4852   6.870   8.173   4.251 -0.4239  0.3092 -0.5734
    1BTD     N4 4853   6.784   8.000   4.514  0.4200  0.5394 -0.1388
    1BTD     C5 4854   6.746   7.833   4.369  0.4356  0.2509  0.1864
    1BTD     C6 4855   6.740   7.771   4.239  0.2891  0.0471  0.2888
    1BTD     C7 4856   6.779   7.849   4.120 -0.0941 -0.0576  0.0914
    1BTD     C8 4857   6.822   7.986   4.136 -0.3120  0.0471 -0.1985
    1BTD    C15 4858   6.826   8.042   4.265 -0.1571  0.2467 -0.2894
    1BTD    C16 4859   6.788   7.967   4.380  0.2122  0.3475 -0.0991
    1BTD    C43 4860   6.736   8.112   4.596 -1.4545  0.0138 -0.0186
    1BTD    C44 4861   6.595   8.127   4.667 -0.6061  0.0041  0.1585
    1BTD    C45 4862   6.603   8.229   4.785  0.2620  0.6632 -0.7937
    1BTD    C46 4863   6.496   8.214   4.891 -0.9563  0.5223 -0.3421
    1BTD    C47 4864   6.512   8.182   4.550  1.2274  0.0045 -0.6882
    1BTD    C48 4865   6.367   8.229   4.553 -0.5837 -0.2933  0.3817
    1BTD    C49 4866   6.367   8.379   4.585  0.5047 -1.2376 -0.0940
    1BTD    C50 4867   6.234   8.449   4.608  1.0848  0.3318  0.4517
    1BTD    C75 4868   6.880   8.287   4.354  1.5519  0.4397 -1.0486
    1BTD    C76 4869   7.017   8.349   4.405  0.5495 -0.2035  0.2433
    1BTD    C77 4870   6.995   8.448   4.513 -1.2670  0.2593  0.5974
    1BTD    C78 4871   7.050   8.585   4.474 -0.0193 -0.8422 -0.1454
    1BTD    C79 4872   7.132   8.256   4.435  0.0577 -0.0217  0.7269
    1BTD    C80 4873   7.283   8.273   4.465  0.1157  0.1333 -0.4546
    1BTD    C81 4874   7.319   8.349   4.602  0.2807 -0.7541 -0.1300
    1BTD    C82 4875   7.246   8.286   4.719  1.5981  0.2064 -0.3127
    2TTP     S1 4876   6.683   7.626   4.586 -0.2531  0.0278  0.2705
    2TTP     S5 4877   6.835   7.903   4.877 -0.1251  0.4835 -0.2273
    2TTP     C1 4878   6.797   7.746   4.961  0.2943  0.4808 -0.0390
    2TTP     C2 4879   6.748   7.651   4.876  0.2794  0.3400  0.1260
    2TTP     C3 4880   6.738   7.699   4.742 -0.0637  0.2290  0.1093
    2TTP     C4 4881   6.720   7.783   4.502 -0.6723  0.0305  0.0821
    2TTP    C17 4882   6.770   7.878   4.587 -0.6576  0.1714 -0.0828
    2TTP    C18 4883   6.779   7.830   4.722 -0.3145  0.2823 -0.0662
    2TTP    C32 4884   6.678   7.522   4.920  0.0612 -0.8751  0.5573
    2TTP    C33 4885   6.584   7.440   4.830 -1.3191  0.6191 -0.9244
    2TTP    C34 4886   6.561   7.294   4.855  0.6338 -0.1818  0.4293
    2TTP    C35 4887   6.609   7.225   4.724  1.1293  0.5321 -1.7716
    2TTP    C36 4888   6.596   7.074   4.780  0.5013 -1.3891 -1.2068
    2TTP    C37 4889   6.601   6.982   4.668  0.4932 -0.3945 -0.4053
    2TTP    C38 4890   6.608   6.835   4.724  0.3210 -1.1656 -0.3179
    2TTP    C39 4891   6.583   6.721   4.639 -0.1705 -0.5401  0.7014
    2TTP    C40 4892   6.685   6.609   4.654  1.0358  1.8046 -1.0851
    2TTP    C41 4893   6.660   6.464   4.590 -1.4543  0.0545 -0.8441
    2TTP    C42 4894   6.668   6.473   4.428  0.2584  0.5233 -0.9718
    3TTP     S1 4895   6.814   8.107   3.867  0.0801 -0.1469  0.2376
    3TTP     S5 4896   6.863   8.498   4.038  0.2768 -0.0491 -0.0426
    3TTP     C1 4897   6.829   8.516   3.860  0.0478 -0.1498 -0.0095
    3TTP     C2 4898   6.811   8.397   3.797 -0.0265 -0.1860  0.0790
    3TTP     C3 4899   6.825   8.286   3.886  0.0949 -0.1357  0.1238
    3TTP     C4 4900   6.848   8.089   4.045  0.3091 -0.0463  0.2046
    3TTP    C17 4901   6.865   8.208   4.108  0.3832 -0.0104  0.1159
    3TTP    C18 4902   6.852   8.319   4.018  0.2621 -0.0608  0.0712
    3TTP    C32 4903   6.742   8.398   3.654  1.1237  0.2106  0.0654
    3TTP    C33 4904   6.755   8.263   3.565 -0.1759  0.7122  0.8334
    3TTP    C34 4905   6.702   8.267   3.422 -1.0817  0.8686  0.0743
    3TTP    C35 4906   6.745   8.389   3.328  0.2917  0.5349 -0.2891
    3TTP    C36 4907   6.727   8.376   3.175 -1.1651  1.3067 -0.8501
    3TTP    C37 4908   6.776   8.503   3.091  0.4359  0.9553  0.0812
    3TTP    C38 4909   6.714   8.638   3.073  0.2125 -0.3199  0.3559
    3TTP    C39 4910   6.579   8.686   3.141  0.0708 -0.3952 -1.0143
    3TTP    C40 4911   6.444   8.625   3.112  0.8307  0.1057  0.0384
    3TTP    C41 4912   6.332   8.701   3.208  0.4271  0.6192 -0.7818
    3TTP    C42 4913   6.204   8.625   3.206  0.2942  0.8064 -1.2200
    4FIC     F1 4914   7.131   8.153   5.589  0.1504  0.3111 -0.0832
    4FIC     F2 4915   7.089   7.934   5.745 -0.1882  0.5349  0.1419
    4FIC     O1 4916   6.936   7.979   5.115  0.1607  0.0207  0.0182
    4FIC     N5 4917   6.889   7.495   5.632 -0.6679  0.6495  0.5381
    4FIC     N6 4918   6.745   7.404   5.230 -0.5916  0.3777  0.5721
    4FIC    C19 4919   6.826   7.708   5.096 -0.1591  0.1313  0.2695
    4FIC    C20 4920   6.877   7.760   5.209 -0.1485  0.1957  0.2351
    4FIC    C21 4921   6.932   7.900   5.211  0.0205  0.1324  0.1042
    4FIC    C22 4922   6.978   7.925   5.348 -0.0136  0.2284  0.0988
    4FIC    C23 4923   7.037   8.041   5.399  0.1037  0.2139 -0.0033
    4FIC    C24 4924   7.073   8.041   5.533  0.0413  0.3186  0.0140
    4FIC    C25 4925   7.051   7.928   5.613 -0.1332  0.4340  0.1298
    4FIC    C26 4926   6.993   7.812   5.563 -0.2508  0.4491  0.2323
    4FIC    C27 4927   6.956   7.810   5.428 -0.1901  0.3439  0.2166
    4FIC    C28 4928   6.893   7.705   5.346 -0.2800  0.3284  0.3052
    4FIC    C29 4929   6.856   7.579   5.388 -0.4524  0.4199  0.4282
    4FIC    C30 4930   6.874   7.533   5.522 -0.5701  0.5457  0.4883
    4FIC    C31 4931   6.795   7.483   5.301 -0.5279  0.3959  0.5068
    5FIC     F1 4932   6.629   9.280   4.108  0.2747 -0.1318  0.4774
    5FIC     F2 4933   6.658   9.363   3.851 -0.4635 -0.1855  0.3727
    5FIC     O1 4934   6.751   8.754   4.060  0.4817 -0.0677  0.3024
    5FIC     N5 4935   6.787   9.109   3.446 -1.3770 -0.2170  0.0971
    5FIC     N6 4936   6.877   8.682   3.460 -1.0663 -0.1559 -0.0187
    5FIC    C19 4937   6.823   8.648   3.797 -0.1499 -0.0961  0.1399
    5FIC    C20 4938   6.791   8.777   3.819 -0.1731 -0.1104  0.1881
    5FIC    C21 4939   6.755   8.824   3.957  0.1642 -0.0942  0.2709
    5FIC    C22 4940   6.726   8.968   3.946  0.0418 -0.1154  0.3067
    5FIC    C23 4941   6.688   9.055   4.047  0.2563 -0.1111  0.3827
    5FIC    C24 4942   6.666   9.188   4.013  0.0789 -0.1350  0.4032
    5FIC    C25 4943   6.681   9.231   3.880 -0.3011 -0.1626  0.3492
    5FIC    C26 4944   6.719   9.144   3.778 -0.5169 -0.1676  0.2732
    5FIC    C27 4945   6.742   9.010   3.811 -0.3424 -0.1435  0.2513
    5FIC    C28 4946   6.782   8.894   3.728 -0.4895 -0.1414  0.1763
    5FIC    C29 4947   6.806   8.895   3.593 -0.8503 -0.1636  0.1088
    5FIC    C30 4948   6.796   9.013   3.513 -1.1384 -0.1929  0.1026
    5FIC    C31 4949   6.845   8.778   3.521 -0.9670 -0.1593  0.0390
    1BTD     S2 4950   8.545   4.235   1.043 -0.0473  0.1011 -0.0605
    1BTD     N1 4951   8.645   4.097   1.100 -0.4170 -0.4140 -0.6241
    1BTD     N2 4952   8.401   4.191   1.141  0.1738  0.6822  0.5391
    1BTD     N3 4953   8.289   3.851   1.446 -0.0441  0.9363  0.7432
    1BTD     N4 4954   8.590   3.736   1.396 -0.7718 -0.4146 -0.6902
    1BTD     C5 4955   8.613   3.910   1.255 -0.5934 -0.3980 -0.6413
    1BTD     C6 4956   8.570   4.029   1.186 -0.3600 -0.1404 -0.3505
    1BTD     C7 4957   8.434   4.081   1.209 -0.0291  0.4731  0.3006
    1BTD     C8 4958   8.347   4.012   1.300  0.0513  0.7986  0.6284
    1BTD    C15 4959   8.392   3.896   1.366 -0.1855  0.5286  0.3249
    1BTD    C16 4960   8.524   3.846   1.343 -0.5040 -0.0627 -0.3024
    1BTD    C43 4961   8.552   3.598   1.388 -1.2148 -0.0450 -0.3300
    1BTD    C44 4962   8.572   3.475   1.475 -0.8744 -0.3223  0.3237
    1BTD    C45 4963   8.509   3.478   1.626  0.1237  0.4051  0.3832
    1BTD    C46 4964   8.550   3.555   1.741  0.2181 -1.5129 -0.8649
    1BTD    C47 4965   8.540   3.342   1.392  1.2736 -0.1220 -1.3563
    1BTD    C48 4966   8.572   3.203   1.457 -0.0635  0.0626 -0.4024
    1BTD    C49 4967   8.710   3.181   1.532  0.3370  0.7306 -0.2741
    1BTD    C50 4968   8.713   3.103   1.669  0.0322 -0.2047  0.7733
    1BTD    C75 4969   8.313   3.790   1.574 -0.8081  0.0984 -0.6687
    1BTD    C76 4970   8.301   3.861   1.717 -0.0388  0.1945 -0.0229
    1BTD    C77 4971   8.254   3.796   1.841 -1.1627  0.1120 -1.8276
    1BTD    C78 4972   8.134   3.711   1.861  0.3284 -0.2643 -1.5281
    1BTD    C79 4973   8.385   3.978   1.735  0.8070 -0.7937 -0.5024
    1BTD    C80 4974   8.523   3.962   1.710  0.0737 -0.8745 -0.8344
    1BTD    C81 4975   8.634   4.063   1.764 -0.3922  0.3727 -0.2897
    1BTD    C82 4976   8.770   4.047   1.704 -0.3120 -1.7981  0.4597
    2TTP     S1 4977   8.914   3.903   1.251 -0.0442 -0.1656  0.1715
    2TTP     S5 4978   8.897   3.561   1.510 -0.0017 -0.4658 -0.2213
    2TTP     C1 4979   9.070   3.614   1.497  0.0121 -0.5263 -0.2865
    2TTP     C2 4980   9.086   3.723   1.416  0.0000 -0.4371 -0.1690
    2TTP     C3 4981   8.961   3.768   1.362 -0.0210 -0.3179 -0.0233
    2TTP     C4 4982   8.741   3.850   1.265 -0.0579 -0.1051  0.2367
    2TTP    C17 4983   8.725   3.741   1.345 -0.0457 -0.1942  0.1192
    2TTP    C18 4984   8.850   3.696   1.400 -0.0250 -0.3135 -0.0265
    2TTP    C32 4985   9.215   3.781   1.369 -0.0076 -1.1919  1.7159
    2TTP    C33 4986   9.238   3.947   1.387  0.2279  2.1333  1.0358
    2TTP    C34 4987   9.139   4.038   1.435  0.2412 -0.3704 -0.0355
    2TTP    C35 4988   9.140   4.137   1.561 -0.7086 -0.2126  1.3182
    2TTP    C36 4989   9.216   4.068   1.674 -0.1134  0.3757 -1.3285
    2TTP    C37 4990   9.169   4.142   1.812 -1.4248  1.7577  1.1492
    2TTP    C38 4991   9.248   4.112   1.931 -0.9571 -0.4846 -0.7222
    2TTP    C39 4992   9.177   4.169   2.053 -2.2143 -1.4182  0.2452
    2TTP    C40 4993   9.191   4.098   2.187 -0.0712  0.0150  0.1935
    2TTP    C41 4994   9.143   4.208   2.283 -0.3716 -0.8281 -0.1522
    2TTP    C42 4995   9.095   4.178   2.420 -0.4767 -0.1002  0.1728
    3TTP     S1 4996   8.071   4.153   1.327 -0.5148 -0.1319 -0.2171
    3TTP     S5 4997   7.923   3.827   1.566 -0.5696  0.5243  0.6573
    3TTP     C1 4998   7.792   3.952   1.550 -0.5596  0.4928  0.2973
    3TTP     C2 4999   7.830   4.060   1.476 -0.5419  0.2881  0.0060
    3TTP     C3 5000   7.964   4.048   1.428 -0.5360  0.1491  0.0567
    3TTP     C4 5001   8.202   4.028   1.343 -0.5250 -0.1003  0.1429
    3TTP    C17 5002   8.165   3.920   1.417 -0.5422  0.1042  0.4341
    3TTP    C18 5003   8.030   3.932   1.465 -0.5486  0.2434  0.3834
    3TTP    C32 5004   7.762   4.192   1.453 -0.8831  0.1565  0.1407
    3TTP    C33 5005   7.770   4.305   1.573  0.4810 -0.5361  0.6513
    3TTP    C34 5006   7.741   4.441   1.504  0.8655  1.4354  0.8695
    3TTP    C35 5007   7.616   4.512   1.547  0.0966  0.8491 -0.0691
    3TTP    C36 5008   7.595   4.650   1.490  0.1130  0.2876  0.9311
    3TTP    C37 5009   7.589   4.683   1.327  0.1098  0.2635 -0.3993
    3TTP    C38 5010   7.515   4.576   1.254 -0.5723 -0.1032 -0.3230
    3TTP    C39 5011   7.370   4.539   1.311  0.1035  0.8544  0.0567
    3TTP    C40 5012   7.340   4.392   1.292  0.9441  0.9333  0.8087
    3TTP    C41 5013   7.200   4.374   1.270  0.6937  0.4288  1.3335
    3TTP    C42 5014   7.117   4.332   1.387 -0.2083 -0.4608 -1.2325
    4FIC     F1 5015   9.156   2.907   1.894  0.4735 -0.1814  0.2074
    4FIC     F2 5016   9.341   3.027   2.053  0.1159  0.0114  0.4843
    4FIC     O1 5017   9.044   3.308   1.547  0.0720 -0.0703  0.4641
    4FIC     N5 5018   9.529   3.484   2.035 -0.6852  0.3675  1.0654
    4FIC     N6 5019   9.404   3.774   1.732 -0.9267  0.4153  1.2102
    4FIC    C19 5020   9.182   3.565   1.576 -0.4128  0.1530  0.8199
    4FIC    C20 5021   9.203   3.459   1.657 -0.2975  0.1177  0.7445
    4FIC    C21 5022   9.128   3.331   1.636 -0.0489  0.0016  0.5610
    4FIC    C22 5023   9.174   3.238   1.741  0.0226 -0.0094  0.5200
    4FIC    C23 5024   9.133   3.106   1.761  0.2384 -0.1021  0.3650
    4FIC    C24 5025   9.191   3.038   1.867  0.2647 -0.0927  0.3567
    4FIC    C25 5026   9.287   3.099   1.949  0.0799  0.0066  0.4996
    4FIC    C26 5027   9.328   3.230   1.929 -0.1359  0.0995  0.6546
    4FIC    C27 5028   9.271   3.301   1.822 -0.1662  0.0916  0.6655
    4FIC    C28 5029   9.292   3.440   1.774 -0.3700  0.1736  0.8091
    4FIC    C29 5030   9.378   3.533   1.828 -0.5846  0.2809  0.9709
    4FIC    C30 5031   9.460   3.506   1.941 -0.6392  0.3281  1.0223
    4FIC    C31 5032   9.392   3.665   1.775 -0.7718  0.3542  1.1016
    5FIC     F1 5033   7.336   3.308   1.752 -0.0440  0.0671 -0.2453
    5FIC     F2 5034   7.161   3.476   1.876 -0.1745 -0.0057 -0.3306
    5FIC     O1 5035   7.698   3.662   1.560  0.0110  0.2017  0.1051
    5FIC     N5 5036   7.167   3.969   1.918 -0.3225 -0.0140 -0.2035
    5FIC     N6 5037   7.485   4.212   1.743 -0.2532  0.1059  0.0875
    5FIC    C19 5038   7.659   3.948   1.610 -0.0939  0.1802  0.1480
    5FIC    C20 5039   7.575   3.852   1.654 -0.1026  0.1491  0.0632
    5FIC    C21 5040   7.601   3.708   1.624 -0.0464  0.1628  0.0465
    5FIC    C22 5041   7.491   3.631   1.685 -0.0727  0.1211 -0.0524
    5FIC    C23 5042   7.472   3.493   1.684 -0.0390  0.1168 -0.1002
    5FIC    C24 5043   7.360   3.444   1.749 -0.0745  0.0738 -0.1938
    5FIC    C25 5044   7.270   3.530   1.813 -0.1416  0.0363 -0.2376
    5FIC    C26 5045   7.288   3.668   1.815 -0.1756  0.0405 -0.1903
    5FIC    C27 5046   7.401   3.720   1.749 -0.1404  0.0838 -0.0955
    5FIC    C28 5047   7.449   3.859   1.733 -0.1616  0.0995 -0.0262
    5FIC    C29 5048   7.388   3.973   1.781 -0.2236  0.0730 -0.0420
    5FIC    C30 5049   7.267   3.970   1.856 -0.2778  0.0253 -0.1307
    5FIC    C31 5050   7.442   4.104   1.759 -0.2396  0.0913  0.0293
    1BTD     S2 5051   6.801  10.521   3.549 -0.7161  0.2409  0.0003
    1BTD     N1 5052   6.888  10.441   3.685 -0.8594 -0.5283 -0.3509
    1BTD     N2 5053   6.660  10.570   3.649 -0.2073  0.8767  0.4189
    1BTD     N3 5054   6.530  10.526   4.098  0.5703  0.7818  0.6378
    1BTD     N4 5055   6.811  10.367   4.142 -0.2333 -0.9491 -0.3109
    1BTD     C5 5056   6.844  10.404   3.923 -0.5227 -0.7272 -0.3185
    1BTD     C6 5057   6.812  10.454   3.792 -0.5374 -0.2847 -0.1485
    1BTD     C7 5058   6.684  10.527   3.772 -0.1725  0.5016  0.2824
    1BTD     C8 5059   6.596  10.545   3.884  0.1888  0.8063  0.5218
    1BTD    C15 5060   6.632  10.494   4.010  0.1893  0.3523  0.3425
    1BTD    C16 5061   6.755  10.425   4.029 -0.1624 -0.4057 -0.0728
    1BTD    C43 5062   6.729  10.310   4.260  0.9349 -0.4027  0.3016
    1BTD    C44 5063   6.679  10.165   4.274  1.0942  1.2677  0.2152
    1BTD    C45 5064   6.622  10.066   4.159  0.5255  0.6922  0.3545
    1BTD    C46 5065   6.652  10.083   4.009 -1.1677  0.7059  1.6589
    1BTD    C47 5066   6.616  10.101   4.400 -0.0918 -0.3226 -0.1967
    1BTD    C48 5067   6.545  10.191   4.503 -1.1665  0.0395 -0.4331
    1BTD    C49 5068   6.406  10.237   4.470 -0.9610  0.3928  0.1296
    1BTD    C50 5069   6.377  10.344   4.571 -0.3538  1.5198  0.5254
    1BTD    C75 5070   6.517  10.533   4.251 -1.0829 -0.4081  0.4007
    1BTD    C76 5071   6.578  10.651   4.327  0.1318 -1.4020  0.2207
    1BTD    C77 5072   6.662  10.753   4.228  0.0871 -1.1106  0.2113
    1BTD    C78 5073   6.778  10.826   4.284 -0.9537  0.8051  0.5030
    1BTD    C79 5074   6.628  10.619   4.477 -0.3161 -0.3934 -0.3943
    1BTD    C80 5075   6.635  10.741   4.578 -0.0418 -0.0408 -0.8004
    1BTD    C81 5076   6.701  10.742   4.709 -0.2533  0.3951  1.0458
    1BTD    C82 5077   6.843  10.696   4.726  1.9696  0.2818  0.2211
    2TTP     S1 5078   7.143  10.399   3.939  0.7336  0.1019  0.3035
    2TTP     S5 5079   7.121  10.351   4.366 -0.3254 -0.0355  0.2403
    2TTP     C1 5080   7.294  10.384   4.320 -0.2081 -0.0273  0.6787
    2TTP     C2 5081   7.311  10.401   4.185  0.1260  0.0157  0.7240
    2TTP     C3 5082   7.188  10.388   4.114  0.3011  0.0436  0.4143
    2TTP     C4 5083   6.970  10.366   3.985  0.6163  0.0935 -0.1348
    2TTP    C17 5084   6.953  10.349   4.120  0.2822  0.0506 -0.1801
    2TTP    C18 5085   7.076  10.362   4.191  0.1069  0.0226  0.1296
    2TTP    C32 5086   7.435  10.383   4.103  0.6570 -0.2424 -0.0365
    2TTP    C33 5087   7.461  10.225   4.096  0.6644 -0.4643 -0.2397
    2TTP    C34 5088   7.497  10.149   3.969  1.3376  0.2994  0.9714
    2TTP    C35 5089   7.382  10.129   3.869  0.5436 -0.4947  0.0784
    2TTP    C36 5090   7.388  10.016   3.762 -0.9818 -0.3664 -1.0706
    2TTP    C37 5091   7.305   9.887   3.781 -0.1498  0.6384  0.1564
    2TTP    C38 5092   7.166   9.924   3.818  0.9990 -0.4390  1.9881
    2TTP    C39 5093   7.040   9.822   3.804 -1.4572  1.1556  0.0074
    2TTP    C40 5094   7.044   9.742   3.675 -0.5437 -0.0062 -0.2494
    2TTP    C41 5095   6.986   9.598   3.672  0.5373 -1.3743 -0.1903
    2TTP    C42 5096   6.837   9.596   3.633 -0.0414 -0.0641  0.0555
    3TTP     S1 5097   6.353  10.692   3.789  0.3576 -0.1334  0.2407
    3TTP     S5 5098   6.217  10.708   4.197  0.3624 -0.1304  0.2425
    3TTP     C1 5099   6.096  10.796   4.092  0.3811 -0.0974  0.2484
    3TTP     C2 5100   6.131  10.796   3.960  0.3806 -0.0963  0.2484
    3TTP     C3 5101   6.254  10.727   3.937  0.3657 -0.1214  0.2433
    3TTP     C4 5102   6.473  10.605   3.894  0.3389 -0.1662  0.2345
    3TTP    C17 5103   6.438  10.605   4.026  0.3394 -0.1676  0.2347
    3TTP    C18 5104   6.315  10.674   4.049  0.3545 -0.1423  0.2396
    3TTP    C32 5105   6.034  10.862   3.847 -1.2990  0.2818 -0.2585
    3TTP    C33 5106   6.076  10.969   3.760  0.1329 -1.8198  0.2832
    3TTP    C34 5107   6.191  11.073   3.798 -0.6317 -0.4221  0.0603
    3TTP    C35 5108   6.188  11.225   3.781 -0.8749 -0.4022  0.0389
    3TTP    C36 5109   6.312  11.308   3.832 -0.7997  0.7428  0.3166
    3TTP    C37 5110   6.327  11.312   3.977  0.2007  0.1533  0.0157
    3TTP    C38 5111   6.446  11.398   4.029 -0.1991  0.1964  0.8419
    3TTP    C39 5112   6.429  11.420   4.179 -0.8890  0.6985 -0.5108
    3TTP    C40 5113   6.566  11.516   4.197  1.4455  0.8043 -1.2300
    3TTP    C41 5114   6.548  11.570   4.341  0.1397 -0.8553  0.2757
    3TTP    C42 5115   6.651  11.672   4.391  0.2345  0.8621 -0.2710
    4FIC     F1 5116   7.410   9.908   4.981 -0.5033  1.1425  1.0086
    4FIC     F2 5117   7.655  10.023   5.013  0.6305 -0.7160 -0.5432
    4FIC     O1 5118   7.236  10.160   4.535 -0.9007  1.5831  1.4105
    4FIC     N5 5119   7.882  10.368   4.741  1.9774 -3.0737 -2.4877
    4FIC     N6 5120   7.697  10.542   4.386  1.4385 -2.3544 -1.8607
    4FIC    C19 5121   7.408  10.360   4.407  0.0414 -0.0357  0.0707
    4FIC    C20 5122   7.442  10.292   4.518  0.0972 -0.0741  0.0303
    4FIC    C21 5123   7.348  10.191   4.578 -0.4072  0.7885  0.7448
    4FIC    C22 5124   7.416  10.136   4.697 -0.1990  0.5019  0.4965
    4FIC    C23 5125   7.368  10.039   4.785 -0.5109  1.0600  0.9552
    4FIC    C24 5126   7.451  10.003   4.890 -0.2207  0.6315  0.5897
    4FIC    C25 5127   7.577  10.062   4.907  0.3634 -0.3258 -0.2097
    4FIC    C26 5128   7.625  10.159   4.819  0.6773 -0.8872 -0.6709
    4FIC    C27 5129   7.543  10.197   4.712  0.3909 -0.4656 -0.3114
    4FIC    C28 5130   7.564  10.295   4.602  0.5962 -0.8576 -0.6297
    4FIC    C29 5131   7.675  10.374   4.583  1.1438 -1.7724 -1.3907
    4FIC    C30 5132   7.788  10.370   4.670  1.6001 -2.4848 -1.9912
    4FIC    C31 5133   7.686  10.466   4.475  1.3027 -2.0871 -1.6450
    5FIC     F1 5134   5.565  10.733   4.714  0.3029  0.2990  0.2034
    5FIC     F2 5135   5.431  10.947   4.614  0.1704  0.1791  0.1222
    5FIC     O1 5136   5.964  10.682   4.352  0.0315  0.0849 -0.0672
    5FIC     N5 5137   5.523  11.220   4.211 -0.2135 -0.1462 -0.1873
    5FIC     N6 5138   5.862  11.137   3.948 -0.3990 -0.2892 -0.3824
    5FIC    C19 5139   5.978  10.869   4.127 -0.1916 -0.1061 -0.2408
    5FIC    C20 5140   5.883  10.874   4.222 -0.1180 -0.0472 -0.1696
    5FIC    C21 5141   5.883  10.774   4.335 -0.0050  0.0498 -0.0825
    5FIC    C22 5142   5.767  10.807   4.420  0.0532  0.0942 -0.0199
    5FIC    C23 5143   5.725  10.743   4.536  0.1605  0.1843  0.0690
    5FIC    C24 5144   5.612  10.792   4.599  0.1976  0.2112  0.1151
    5FIC    C25 5145   5.543  10.902   4.547  0.1293  0.1491  0.0732
    5FIC    C26 5146   5.584  10.967   4.431  0.0223  0.0589 -0.0154
    5FIC    C27 5147   5.698  10.919   4.366 -0.0170  0.0308 -0.0632
    5FIC    C28 5148   5.767  10.964   4.242 -0.1251 -0.0587 -0.1569
    5FIC    C29 5149   5.730  11.070   4.162 -0.2142 -0.1371 -0.2198
    5FIC    C30 5150   5.617  11.152   4.189 -0.2135 -0.1419 -0.2017
    5FIC    C31 5151   5.803  11.106   4.045 -0.3154 -0.2205 -0.3089
    1BTD     S2 5152  10.290   9.625   6.210  0.1502 -0.0680  0.0128
    1BTD     N1 5153  10.209   9.658   6.054 -0.2041  0.5734  0.3241
    1BTD     N2 5154  10.168   9.505   6.265  0.4356 -0.5183 -0.3250
    1BTD     N3 5155   9.772   9.319   6.095  0.3772 -0.2787 -0.4517
    1BTD     N4 5156   9.822   9.508   5.834 -0.4108  1.0669  0.3482
    1BTD     C5 5157  10.006   9.577   5.942 -0.3023  0.8147  0.3270
    1BTD     C6 5158  10.100   9.581   6.051 -0.0968  0.4263  0.1681
    1BTD     C7 5159  10.078   9.496   6.169  0.2613 -0.1848 -0.1951
    1BTD     C8 5160   9.962   9.410   6.173  0.3958 -0.3767 -0.3815
    1BTD    C15 5161   9.873   9.409   6.064  0.1852  0.0187 -0.2154
    1BTD    C16 5162   9.894   9.492   5.950 -0.1598  0.6080  0.1345
    1BTD    C43 5163   9.732   9.409   5.747 -2.5965 -0.5745  0.0045
    1BTD    C44 5164   9.631   9.457   5.657  0.3758  0.1788 -0.8276
    1BTD    C45 5165   9.563   9.343   5.564 -0.3308 -0.0977 -0.5777
    1BTD    C46 5166   9.594   9.380   5.414 -0.0819  0.5864  1.9280
    1BTD    C47 5167   9.552   9.558   5.740  0.8904  0.2895  1.2380
    1BTD    C48 5168   9.449   9.619   5.643  0.1399 -0.9142 -0.2031
    1BTD    C49 5169   9.451   9.772   5.620 -0.4015 -0.3204  0.6598
    1BTD    C50 5170   9.423   9.776   5.477  0.7018 -0.4792  0.2167
    1BTD    C75 5171   9.630   9.317   6.045 -0.9069  0.1254 -0.9239
    1BTD    C76 5172   9.512   9.268   6.132  0.1070  0.8239  0.8029
    1BTD    C77 5173   9.476   9.352   6.258  0.7291 -0.6338  0.3300
    1BTD    C78 5174   9.541   9.330   6.396 -1.0031  0.3697 -1.0176
    1BTD    C79 5175   9.380   9.263   6.038 -0.7897  0.2314  0.3481
    1BTD    C80 5176   9.250   9.211   6.096  0.4245 -0.7785 -0.3016
    1BTD    C81 5177   9.274   9.073   6.140  1.3461 -0.3107  0.2344
    1BTD    C82 5178   9.137   8.999   6.181 -1.4447 -0.2149 -0.0497
    2TTP     S1 5179  10.093   9.774   5.731 -0.4031  0.1424  0.3691
    2TTP     S5 5180   9.780   9.640   5.469  0.1247 -0.2370 -0.0699
    2TTP     C1 5181   9.877   9.767   5.383 -0.3450  0.4013  0.3272
    2TTP     C2 5182   9.980   9.816   5.459 -0.5355  0.5560  0.4863
    2TTP     C3 5183   9.985   9.755   5.588 -0.3178  0.1760  0.3000
    2TTP     C4 5184   9.996   9.647   5.818  0.0665 -0.4957 -0.0284
    2TTP    C17 5185   9.894   9.598   5.742  0.2572 -0.6508 -0.1871
    2TTP    C18 5186   9.888   9.659   5.613  0.0391 -0.2708 -0.0010
    2TTP    C32 5187  10.071   9.945   5.443 -0.0556 -0.8243 -1.2247
    2TTP    C33 5188  10.227   9.940   5.417 -1.1127  1.0307 -1.4939
    2TTP    C34 5189  10.275   9.900   5.280 -0.4331 -0.6599 -0.3171
    2TTP    C35 5190  10.218   9.978   5.163  0.0916 -1.1456  0.6903
    2TTP    C36 5191  10.280  10.121   5.131 -0.8169  0.6829  0.4045
    2TTP    C37 5192  10.299  10.109   4.995 -0.2754 -0.6082  0.2229
    2TTP    C38 5193  10.197  10.187   4.903  0.9537  0.1663 -0.4572
    2TTP    C39 5194  10.262  10.189   4.758 -0.4139  0.6395  0.2147
    2TTP    C40 5195  10.157  10.226   4.654 -0.3543 -1.0208  1.0273
    2TTP    C41 5196  10.143  10.381   4.623 -0.2775 -0.5970 -0.1760
    2TTP    C42 5197  10.063  10.469   4.719 -0.6600 -0.9759  0.2959
    3TTP     S1 5198   9.999   9.190   6.376  0.4113  0.1503 -0.2477
    3TTP     S5 5199   9.702   8.961   6.167  0.2100  0.0901  0.1023
    3TTP     C1 5200   9.783   8.853   6.289  0.5421  0.0425 -0.1570
    3TTP     C2 5201   9.879   8.917   6.361  0.6235  0.0582 -0.2806
    3TTP     C3 5202   9.893   9.054   6.322  0.4270  0.1085 -0.1745
    3TTP     C4 5203   9.918   9.298   6.254  0.0794  0.1979  0.0118
    3TTP    C17 5204   9.821   9.233   6.182 -0.0022  0.1820  0.1353
    3TTP    C18 5205   9.808   9.097   6.221  0.1945  0.1318  0.0294
    3TTP    C32 5206   9.965   8.892   6.493  1.4607  1.4325 -0.8950
    3TTP    C33 5207   9.904   8.785   6.592 -0.1848  0.5507  0.6088
    3TTP    C34 5208   9.984   8.778   6.714  1.4111  0.2020 -0.0822
    3TTP    C35 5209   9.924   8.846   6.838  0.8567  0.3169  1.1419
    3TTP    C36 5210  10.024   8.961   6.873  0.2438 -0.1023 -0.0280
    3TTP    C37 5211   9.948   9.090   6.902 -1.0779  0.4117 -0.1753
    3TTP    C38 5212   9.821   9.110   6.990  0.7754 -0.7287 -0.8402
    3TTP    C39 5213   9.672   9.076   6.948 -0.2264  0.2502  0.8997
    3TTP    C40 5214   9.609   9.118   6.822 -0.5107  0.5784 -0.5720
    3TTP    C41 5215   9.465   9.076   6.819 -0.3630  0.2943 -0.5147
    3TTP    C42 5216   9.414   9.182   6.725  0.9837 -0.8026 -0.4292
    4FIC     F1 5217   9.469   9.537   4.706  0.3610 -0.5717 -0.1525
    4FIC     F2 5218   9.502   9.788   4.608 -0.7524 -0.2165  0.3556
    4FIC     O1 5219   9.733   9.576   5.177  0.9050 -0.6127 -0.4519
    4FIC     N5 5220   9.737  10.178   4.802 -1.9658  0.2656  0.8732
    4FIC     N6 5221   9.936  10.158   5.190 -1.3163  0.1621  0.5368
    4FIC    C19 5222   9.858   9.831   5.251  0.0343 -0.2871 -0.0725
    4FIC    C20 5223   9.790   9.811   5.136 -0.0591 -0.2909 -0.0170
    4FIC    C21 5224   9.729   9.677   5.105  0.4101 -0.4632 -0.2226
    4FIC    C22 5225   9.663   9.690   4.974  0.1657 -0.4199 -0.0976
    4FIC    C23 5226   9.593   9.593   4.904  0.4382 -0.5362 -0.2106
    4FIC    C24 5227   9.540   9.629   4.781  0.1186 -0.4643 -0.0534
    4FIC    C25 5228   9.557   9.758   4.730 -0.4552 -0.2808  0.2084
    4FIC    C26 5229   9.627   9.856   4.800 -0.7296 -0.1643  0.3223
    4FIC    C27 5230   9.681   9.822   4.924 -0.4129 -0.2346  0.1663
    4FIC    C28 5231   9.760   9.901   5.022 -0.5736 -0.1481  0.2264
    4FIC    C29 5232   9.797  10.033   5.009 -1.0998  0.0300  0.4622
    4FIC    C30 5233   9.764  10.112   4.895 -1.5743  0.1590  0.6872
    4FIC    C31 5234   9.873  10.101   5.109 -1.2159  0.1018  0.5019
    5FIC     F1 5235   9.065   8.513   6.493  0.1578 -0.3254  0.6460
    5FIC     F2 5236   9.184   8.269   6.474  0.1771 -0.3419  0.9770
    5FIC     O1 5237   9.482   8.838   6.375  0.0131 -0.4692 -0.2809
    5FIC     N5 5238   9.651   8.149   6.364  0.1013 -0.4683  0.7923
    5FIC     N6 5239   9.953   8.452   6.275 -0.0155 -0.5772  0.0013
    5FIC    C19 5240   9.743   8.720   6.316 -0.0201 -0.5360 -0.2938
    5FIC    C20 5241   9.634   8.648   6.346  0.0155 -0.4992 -0.0736
    5FIC    C21 5242   9.503   8.716   6.375  0.0305 -0.4663 -0.0827
    5FIC    C22 5243   9.406   8.609   6.404  0.0703 -0.4306  0.1887
    5FIC    C23 5244   9.271   8.623   6.437  0.0954 -0.3927  0.2780
    5FIC    C24 5245   9.199   8.507   6.460  0.1313 -0.3634  0.5443
    5FIC    C25 5246   9.260   8.381   6.450  0.1412 -0.3717  0.7144
    5FIC    C26 5247   9.394   8.366   6.418  0.1161 -0.4098  0.6267
    5FIC    C27 5248   9.469   8.482   6.394  0.0796 -0.4396  0.3577
    5FIC    C28 5249   9.612   8.501   6.358  0.0467 -0.4823  0.2033
    5FIC    C29 5250   9.705   8.402   6.339  0.0448 -0.5021  0.2987
    5FIC    C30 5251   9.675   8.263   6.353  0.0758 -0.4835  0.5698
    5FIC    C31 5252   9.841   8.430   6.304  0.0114 -0.5434  0.1345
    1BTD     S2 5253   1.621   6.728   8.825 -0.4183  0.4264  0.1804
    1BTD     N1 5254   1.629   6.563   8.896 -0.4003  0.3090 -0.0911
    1BTD     N2 5255   1.656   6.812   8.979 -0.2749  0.1695  0.2892
    1BTD     N3 5256   1.743   6.686   9.423  0.0500 -0.5660  0.0203
    1BTD     N4 5257   1.709   6.379   9.320 -0.1045 -0.3941 -0.4482
    1BTD     C5 5258   1.671   6.471   9.119 -0.2440 -0.0602 -0.2720
    1BTD     C6 5259   1.656   6.578   9.025 -0.2938  0.0955 -0.0870
    1BTD     C7 5260   1.672   6.718   9.071 -0.2236  0.0174  0.1261
    1BTD     C8 5261   1.701   6.743   9.210 -0.1071 -0.2124  0.1428
    1BTD    C15 5262   1.715   6.634   9.299 -0.0620 -0.3588 -0.0426
    1BTD    C16 5263   1.700   6.500   9.253 -0.1297 -0.2834 -0.2474
    1BTD    C43 5264   1.798   6.367   9.436  0.0924 -1.4095 -1.0925
    1BTD    C44 5265   1.836   6.245   9.521  0.4733 -0.4155  0.5479
    1BTD    C45 5266   1.938   6.164   9.443 -0.0741 -0.8900 -0.0795
    1BTD    C46 5267   1.947   6.023   9.487 -0.4782 -0.7756  0.6302
    1BTD    C47 5268   1.858   6.265   9.679 -0.7507  0.3256  0.5454
    1BTD    C48 5269   1.731   6.313   9.746 -0.5762 -0.9667  0.7639
    1BTD    C49 5270   1.750   6.409   9.865  0.9474  0.2696 -0.1338
    1BTD    C50 5271   1.881   6.392   9.940 -1.3608 -0.3807  1.7403
    1BTD    C75 5272   1.683   6.640   9.541 -0.6006 -0.3726 -0.5058
    1BTD    C76 5273   1.561   6.702   9.616  0.6588  0.4429 -0.6101
    1BTD    C77 5274   1.599   6.731   9.768  1.2722 -1.3625 -0.1694
    1BTD    C78 5275   1.490   6.790   9.856  1.3673  0.3447 -0.2705
    1BTD    C79 5276   1.441   6.601   9.597  0.0436  0.2131  0.3797
    1BTD    C80 5277   1.391   6.575   9.451  0.7469 -0.5363 -0.8293
    1BTD    C81 5278   1.341   6.694   9.386  1.1435 -0.8320  0.9094
    1BTD    C82 5279   1.279   6.653   9.250  0.6361  0.4918 -0.3702
    2TTP     S1 5280   1.585   6.211   8.987 -0.0484 -0.1063 -0.1065
    2TTP     S5 5281   1.551   6.029   9.375  0.2601  0.2096  0.0699
    2TTP     C1 5282   1.482   5.915   9.252 -0.0485  0.2049  0.2425
    2TTP     C2 5283   1.489   5.964   9.125 -0.1620  0.1070  0.1984
    2TTP     C3 5284   1.548   6.094   9.120 -0.0092  0.0322  0.0265
    2TTP     C4 5285   1.654   6.325   9.111  0.2601 -0.1018 -0.2797
    2TTP    C17 5286   1.647   6.276   9.238  0.3737 -0.0042 -0.2354
    2TTP    C18 5287   1.588   6.146   9.242  0.2210  0.0708 -0.0632
    2TTP    C32 5288   1.411   5.900   9.001  0.4784  1.3984 -0.8231
    2TTP    C33 5289   1.464   5.777   8.902 -0.5732  0.6732 -1.4194
    2TTP    C34 5290   1.360   5.715   8.795  0.4543  0.7159  0.1634
    2TTP    C35 5291   1.330   5.832   8.689 -0.1883  0.9278 -1.2007
    2TTP    C36 5292   1.194   5.883   8.661 -0.8928  0.3132  1.0929
    2TTP    C37 5293   1.079   5.791   8.636 -0.0871 -0.1924  0.5225
    2TTP    C38 5294   0.969   5.847   8.547  0.3205 -0.1261 -0.5118
    2TTP    C39 5295   0.957   5.818   8.403 -1.8710 -0.5034  0.0014
    2TTP    C40 5296   0.858   5.734   8.337  0.4257  0.1133  0.8268
    2TTP    C41 5297   0.706   5.744   8.368  0.4426  0.6505 -0.4824
    2TTP    C42 5298   0.610   5.686   8.252  0.0321 -0.9192 -0.1949
    3TTP     S1 5299   1.691   7.036   9.270 -0.1089 -0.3381  0.1081
    3TTP     S5 5300   1.832   6.949   9.667  0.4103  0.3262  0.0727
    3TTP     C1 5301   1.797   7.128   9.656 -0.3189  0.1888  0.0426
    3TTP     C2 5302   1.752   7.165   9.532 -0.5223 -0.0242  0.0520
    3TTP     C3 5303   1.743   7.054   9.443 -0.1094 -0.0869  0.0832
    3TTP     C4 5304   1.726   6.858   9.282  0.6204 -0.2006  0.1383
    3TTP    C17 5305   1.771   6.821   9.405  0.8236  0.0124  0.1293
    3TTP    C18 5306   1.781   6.931   9.495  0.4109  0.0750  0.0982
    3TTP    C32 5307   1.744   7.313   9.485  0.4895 -0.8365  1.4953
    3TTP    C33 5308   1.846   7.371   9.369  0.1610 -0.4878  1.7304
    3TTP    C34 5309   1.827   7.518   9.321  0.1007  0.0602  0.0231
    3TTP    C35 5310   1.729   7.513   9.200 -0.7626  0.2590 -0.7045
    3TTP    C36 5311   1.716   7.644   9.125 -1.1941  1.2150  1.1244
    3TTP    C37 5312   1.674   7.618   8.974  1.5872  0.8311 -0.9154
    3TTP    C38 5313   1.556   7.707   8.924 -0.3476 -0.0883 -0.3067
    3TTP    C39 5314   1.554   7.860   8.954 -0.2170 -1.0090 -0.1885
    3TTP    C40 5315   1.427   7.936   8.894 -0.2431 -0.1932 -1.0071
    3TTP    C41 5316   1.400   8.088   8.894 -0.5425 -0.1564  0.1295
    3TTP    C42 5317   1.250   8.112   8.920 -0.5592 -1.4715 -0.2291
    4FIC     F1 5318   1.575   5.441   9.916  0.4315  0.3129 -0.2515
    4FIC     F2 5319   1.353   5.303   9.839  0.3683  0.1905  0.1471
    4FIC     O1 5320   1.629   5.786   9.502 -0.0188 -0.2091 -0.7496
    4FIC     N5 5321   1.073   5.350   9.434 -0.0438 -0.3577  0.3657
    4FIC     N6 5322   1.160   5.647   9.126 -0.3830 -0.7410 -0.1042
    4FIC    C19 5323   1.436   5.777   9.282 -0.2393 -0.5116 -0.5455
    4FIC    C20 5324   1.431   5.695   9.389 -0.1235 -0.3754 -0.4358
    4FIC    C21 5325   1.534   5.706   9.498 -0.0148 -0.2246 -0.5519
    4FIC    C22 5326   1.499   5.604   9.599  0.0962 -0.1005 -0.3858
    4FIC    C23 5327   1.566   5.576   9.718  0.2189  0.0589 -0.4160
    4FIC    C24 5328   1.514   5.474   9.797  0.3084  0.1541 -0.2338
    4FIC    C25 5329   1.400   5.403   9.757  0.2756  0.0906 -0.0282
    4FIC    C26 5330   1.333   5.430   9.638  0.1535 -0.0683  0.0029
    4FIC    C27 5331   1.384   5.533   9.557  0.0615 -0.1664 -0.1798
    4FIC    C28 5332   1.338   5.586   9.427 -0.0749 -0.3380 -0.2024
    4FIC    C29 5333   1.229   5.543   9.355 -0.1430 -0.4419 -0.0379
    4FIC    C30 5334   1.144   5.437   9.398 -0.0882 -0.3954  0.1833
    4FIC    C31 5335   1.192   5.601   9.229 -0.2746 -0.6058 -0.0756
    5FIC     F1 5336   2.151   7.196  10.407 -1.0729 -0.6297  0.3881
    5FIC     F2 5337   2.041   7.445  10.424  0.2069  0.0035 -0.2732
    5FIC     O1 5338   1.985   7.045   9.915 -1.1078 -0.7167  0.4263
    5FIC     N5 5339   1.764   7.694  10.098  2.0224  0.8514 -1.1961
    5FIC     N6 5340   1.656   7.526   9.710  1.7373  0.6557 -1.0326
    5FIC    C19 5341   1.820   7.228   9.756  0.1027 -0.1429 -0.1916
    5FIC    C20 5342   1.867   7.257   9.879  0.0615 -0.1458 -0.1752
    5FIC    C21 5343   1.950   7.157   9.955 -0.5784 -0.4504  0.1516
    5FIC    C22 5344   1.983   7.220  10.084 -0.4507 -0.3691  0.0803
    5FIC    C23 5345   2.059   7.166  10.187 -0.8951 -0.5733  0.3054
    5FIC    C24 5346   2.077   7.244  10.301 -0.6601 -0.4414  0.1793
    5FIC    C25 5347   2.020   7.372  10.310 -0.0003 -0.1150 -0.1613
    5FIC    C26 5348   1.945   7.426  10.207  0.4456  0.0901 -0.3872
    5FIC    C27 5349   1.925   7.349  10.091  0.2168 -0.0391 -0.2642
    5FIC    C28 5350   1.851   7.377   9.966  0.5578  0.1111 -0.4349
    5FIC    C29 5351   1.782   7.491   9.936  1.2091  0.4277 -0.7699
    5FIC    C30 5352   1.773   7.602  10.025  1.6540  0.6595 -1.0030
    5FIC    C31 5353   1.713   7.510   9.812  1.4959  0.5512 -0.9124
    1BTD     S2 5354   5.951   0.525   6.691  0.1293  0.0188 -0.5343
    1BTD     N1 5355   6.110   0.465   6.750  0.0334  0.0071 -0.2875
    1BTD     N2 5356   5.856   0.390   6.761 -0.0266  0.1865 -0.4171
    1BTD     N3 5357   5.950   0.004   7.011 -0.5169  0.5069  0.2667
    1BTD     N4 5358   6.262   0.097   6.998 -0.4432  0.2859  0.4264
    1BTD     C5 5359   6.185   0.272   6.880 -0.2162  0.1553  0.0832
    1BTD     C6 5360   6.085   0.353   6.816 -0.1026  0.1228 -0.1385
    1BTD     C7 5361   5.943   0.310   6.822 -0.1363  0.2232 -0.2109
    1BTD     C8 5362   5.909   0.189   6.891 -0.2816  0.3511 -0.0582
    1BTD    C15 5363   6.011   0.113   6.952 -0.3891  0.3786  0.1573
    1BTD    C16 5364   6.147   0.154   6.947 -0.3571  0.2819  0.2271
    1BTD    C43 5365   6.311  -0.046   6.991 -0.4947 -0.1751 -0.2821
    1BTD    C44 5366   6.255  -0.129   6.880 -1.3076 -1.3361 -0.4423
    1BTD    C45 5367   6.291  -0.279   6.905  0.7183  0.7620 -0.1204
    1BTD    C46 5368   6.154  -0.360   6.878 -0.3996 -0.6296  0.3316
    1BTD    C47 5369   6.280  -0.075   6.736 -0.2602  1.2161  1.4708
    1BTD    C48 5370   6.401  -0.133   6.651 -0.4683 -1.0817 -0.7777
    1BTD    C49 5371   6.408  -0.167   6.501  0.2628 -0.3278 -0.5307
    1BTD    C50 5372   6.287  -0.130   6.417  0.4012  0.2801 -0.3191
    1BTD    C75 5373   6.007  -0.105   7.098 -0.3517 -1.3469  0.3856
    1BTD    C76 5374   5.994  -0.099   7.242  0.9577 -0.3045 -0.3517
    1BTD    C77 5375   6.067  -0.024   7.333 -2.2402 -0.8313 -0.8372
    1BTD    C78 5376   6.223  -0.065   7.345  2.2604 -0.5979  1.2520
    1BTD    C79 5377   5.860  -0.158   7.310 -1.2315 -0.3376  0.6622
    1BTD    C80 5378   5.906  -0.271   7.399  1.8700  2.1073  1.2356
    1BTD    C81 5379   5.800  -0.272   7.531 -0.1990  0.4305  0.9855
    1BTD    C82 5380   5.757  -0.409   7.569 -0.9574  0.7780 -0.1770
    2TTP     S1 5381   6.441   0.411   6.858  0.3382 -0.0452 -0.0248
    2TTP     S5 5382   6.615   0.125   7.128  0.0186  0.3889  0.6462
    2TTP     C1 5383   6.733   0.261   7.104  0.0650  0.3289  0.5305
    2TTP     C2 5384   6.686   0.357   7.019  0.1664  0.1913  0.3164
    2TTP     C3 5385   6.555   0.327   6.970  0.2112  0.1283  0.2362
    2TTP     C4 5386   6.323   0.274   6.881  0.2916  0.0148  0.0910
    2TTP    C17 5387   6.370   0.178   6.966  0.1904  0.1524  0.3050
    2TTP    C18 5388   6.500   0.208   7.015  0.1456  0.2154  0.3854
    2TTP    C32 5389   6.762   0.459   6.946 -0.8630 -0.5613  0.0444
    2TTP    C33 5390   6.817   0.430   6.803  0.2218 -0.1163 -0.1334
    2TTP    C34 5391   6.917   0.545   6.759  0.8360 -2.0019  0.0488
    2TTP    C35 5392   6.939   0.576   6.621  0.1400 -1.4580 -0.0266
    2TTP    C36 5393   7.079   0.629   6.570  1.6696  0.6335 -1.0015
    2TTP    C37 5394   7.073   0.686   6.433 -0.5622  0.1174  0.0220
    2TTP    C38 5395   7.188   0.692   6.340 -0.5465 -0.3546  1.0342
    2TTP    C39 5396   7.163   0.681   6.200 -0.1991 -0.7638  0.5656
    2TTP    C40 5397   7.288   0.676   6.097  0.4240  0.2717 -0.6828
    2TTP    C41 5398   7.261   0.640   5.956 -0.1874  0.5479  0.1948
    2TTP    C42 5399   7.285   0.492   5.934 -0.3831  0.5586  1.2641
    3TTP     S1 5400   5.635   0.131   6.832 -0.1231 -0.2068  0.3775
    3TTP     S5 5401   5.687  -0.271   6.975  0.2247 -0.4530 -0.4300
    3TTP     C1 5402   5.532  -0.263   6.879  0.1756 -0.3744 -0.3441
    3TTP     C2 5403   5.507  -0.138   6.830  0.0652 -0.2937 -0.0896
    3TTP     C3 5404   5.609  -0.044   6.865  0.0155 -0.2911  0.0466
    3TTP     C4 5405   5.790   0.123   6.928 -0.0739 -0.2854  0.2916
    3TTP    C17 5406   5.815  -0.002   6.978  0.0363 -0.3659  0.0371
    3TTP    C18 5407   5.713  -0.095   6.942  0.0859 -0.3688 -0.0991
    3TTP    C32 5408   5.398  -0.086   6.732  0.5295 -0.5282 -0.6699
    3TTP    C33 5409   5.396  -0.148   6.590  0.5457 -0.2092 -0.4777
    3TTP    C34 5410   5.449  -0.039   6.501 -0.2739 -0.8803  1.1223
    3TTP    C35 5411   5.353   0.020   6.384 -1.0200  0.1364 -0.4013
    3TTP    C36 5412   5.226   0.091   6.429 -1.9388  0.1220 -0.4414
    3TTP    C37 5413   5.227   0.236   6.460  0.2369  0.2241 -0.7445
    3TTP    C38 5414   5.249   0.339   6.347  0.7490  1.0364 -0.3601
    3TTP    C39 5415   5.135   0.393   6.258 -0.1262 -0.0304  0.6079
    3TTP    C40 5416   5.076   0.519   6.321 -0.6428  0.5489  0.0290
    3TTP    C41 5417   4.948   0.556   6.243 -0.7475 -0.2572 -0.6233
    3TTP    C42 5418   4.879   0.689   6.267  0.2936  0.1035  0.4279
    4FIC     F1 5419   7.281  -0.216   7.499 -0.2003 -0.3815  0.0417
    4FIC     F2 5420   7.443   0.001   7.528  0.0027 -0.5701  0.3296
    4FIC     O1 5421   6.864   0.001   7.231  0.2146  0.2599 -0.0902
    4FIC     N5 5422   7.377   0.469   7.379  0.5902 -0.3837  0.6496
    4FIC     N6 5423   7.018   0.594   7.163  0.8733  0.1554  0.4884
    4FIC    C19 5424   6.870   0.286   7.163  0.5559  0.3076  0.1381
    4FIC    C20 5425   6.968   0.223   7.230  0.4436  0.1536  0.1599
    4FIC    C21 5426   6.958   0.076   7.261  0.2704  0.1394  0.0371
    4FIC    C22 5427   7.082   0.040   7.333  0.1814 -0.0446  0.0981
    4FIC    C23 5428   7.118  -0.085   7.383  0.0174 -0.1206  0.0259
    4FIC    C24 5429   7.240  -0.095   7.448 -0.0393 -0.2981  0.1065
    4FIC    C25 5430   7.322   0.017   7.463  0.0654 -0.3942  0.2547
    4FIC    C26 5431   7.287   0.142   7.413  0.2294 -0.3194  0.3277
    4FIC    C27 5432   7.164   0.154   7.347  0.2890 -0.1404  0.2478
    4FIC    C28 5433   7.098   0.271   7.284  0.4541 -0.0224  0.2916
    4FIC    C29 5434   7.147   0.399   7.278  0.5908 -0.0678  0.4282
    4FIC    C30 5435   7.273   0.437   7.333  0.5898 -0.2414  0.5493
    4FIC    C31 5436   7.076   0.506   7.215  0.7455  0.0552  0.4607
    5FIC     F1 5437   5.349  -0.912   7.367 -0.0231 -0.1180 -0.1878
    5FIC     F2 5438   5.198  -1.013   7.165  0.2346 -0.2213 -0.3312
    5FIC     O1 5439   5.512  -0.444   7.150 -0.1940  0.0257 -0.0069
    5FIC     N5 5440   5.095  -0.823   6.719  0.4836 -0.2675 -0.4084
    5FIC     N6 5441   5.253  -0.437   6.590  0.2983 -0.1345 -0.2381
    5FIC    C19 5442   5.425  -0.373   6.879 -0.0082 -0.0222 -0.0795
    5FIC    C20 5443   5.390  -0.487   6.942  0.0247 -0.0541 -0.1194
    5FIC    C21 5444   5.438  -0.516   7.081 -0.0764 -0.0262 -0.0780
    5FIC    C22 5445   5.382  -0.647   7.119 -0.0081 -0.0730 -0.1383
    5FIC    C23 5446   5.400  -0.716   7.238 -0.0613 -0.0687 -0.1279
    5FIC    C24 5447   5.336  -0.839   7.251  0.0227 -0.1193 -0.1941
    5FIC    C25 5448   5.258  -0.890   7.147  0.1556 -0.1722 -0.2678
    5FIC    C26 5449   5.240  -0.822   7.027  0.2092 -0.1774 -0.2785
    5FIC    C27 5450   5.304  -0.698   7.012  0.1256 -0.1266 -0.2124
    5FIC    C28 5451   5.305  -0.602   6.899  0.1510 -0.1171 -0.2037
    5FIC    C29 5452   5.241  -0.616   6.779  0.2693 -0.1583 -0.2626
    5FIC    C30 5453   5.161  -0.730   6.746  0.3868 -0.2182 -0.3425
    5FIC    C31 5454   5.248  -0.517   6.676  0.2846 -0.1447 -0.2488
    1BTD     S2 5455  10.632   0.185   2.328 -0.2638 -0.5840 -0.2614
    1BTD     N1 5456  10.777   0.243   2.239 -0.1190  0.1139  0.4181
    1BTD     N2 5457  10.522   0.311   2.261 -0.5498 -1.0595 -0.7093
    1BTD     N3 5458  10.561   0.674   1.967 -0.8707 -0.7687 -0.3954
    1BTD     N4 5459  10.875   0.591   1.940 -0.3402  0.6773  0.9939
    1BTD     C5 5460  10.824   0.426   2.083 -0.2408  0.3906  0.7020
    1BTD     C6 5461  10.738   0.349   2.169 -0.2828 -0.0358  0.2830
    1BTD     C7 5462  10.596   0.386   2.181 -0.5236 -0.6927 -0.3481
    1BTD     C8 5463  10.546   0.499   2.107 -0.7110 -0.8902 -0.5287
    1BTD    C15 5464  10.634   0.572   2.025 -0.6617 -0.4565 -0.1031
    1BTD    C16 5465  10.772   0.536   2.013 -0.4296  0.1764  0.5051
    1BTD    C43 5466  10.891   0.731   1.923 -1.8067 -1.0497  1.2899
    1BTD    C44 5467  10.943   0.815   2.045 -1.3613 -1.5821  0.3031
    1BTD    C45 5468  10.851   0.800   2.181 -0.8056 -0.1164  0.9571
    1BTD    C46 5469  10.911   0.903   2.274 -0.5879  0.7743 -0.8977
    1BTD    C47 5470  11.094   0.787   2.061 -0.6060 -1.2543 -0.4302
    1BTD    C48 5471  11.201   0.866   1.971 -0.1341 -0.2206 -0.7093
    1BTD    C49 5472  11.327   0.848   2.049 -1.2154  0.6001  0.3965
    1BTD    C50 5473  11.447   0.903   1.967  0.8541 -1.2324  0.6304
    1BTD    C75 5474  10.581   0.701   1.822  0.8481 -1.6676 -0.3033
    1BTD    C76 5475  10.510   0.828   1.746 -0.6269  0.2904 -0.4307
    1BTD    C77 5476  10.572   0.965   1.741 -0.2620 -0.4928  0.4642
    1BTD    C78 5477  10.679   0.972   1.618 -1.8446 -0.0453  0.0714
    1BTD    C79 5478  10.386   0.822   1.651  0.2222  0.1290 -0.2720
    1BTD    C80 5479  10.285   0.737   1.691 -1.2076  0.0863  0.9236
    1BTD    C81 5480  10.215   0.684   1.565 -0.1870 -0.1488 -0.3881
    1BTD    C82 5481  10.133   0.573   1.629  0.2595 -0.3452  0.9165
    2TTP     S1 5482  11.083   0.291   2.064 -0.4839 -0.2776 -0.3841
    2TTP     S5 5483  11.157   0.503   1.698  0.6166 -0.1419 -0.0888
    2TTP     C1 5484  11.284   0.374   1.717  0.1790 -0.5791 -0.0749
    2TTP     C2 5485  11.269   0.301   1.832 -0.1864 -0.6468 -0.1653
    2TTP     C3 5486  11.156   0.344   1.908 -0.1342 -0.3558 -0.2487
    2TTP     C4 5487  10.955   0.419   2.045 -0.0465  0.1595 -0.3980
    2TTP    C17 5488  10.971   0.492   1.931  0.3188  0.2272 -0.3076
    2TTP    C18 5489  11.084   0.449   1.854  0.2668 -0.0638 -0.2241
    2TTP    C32 5490  11.364   0.187   1.868  0.4725  0.0565  0.3158
    2TTP    C33 5491  11.337   0.030   1.878 -1.3294  1.5707 -0.2540
    2TTP    C34 5492  11.369  -0.083   1.988  0.3017 -1.1237 -0.0034
    2TTP    C35 5493  11.504  -0.039   2.042 -1.1963 -0.4485 -0.9266
    2TTP    C36 5494  11.505   0.038   2.182 -0.4740 -0.4849  0.4297
    2TTP    C37 5495  11.618   0.143   2.197  0.8465  0.4846 -0.2918
    2TTP    C38 5496  11.632   0.255   2.300 -0.0313  0.1253 -0.9188
    2TTP    C39 5497  11.652   0.391   2.249  0.3220 -0.2604 -0.3408
    2TTP    C40 5498  11.540   0.446   2.180  0.3583  0.5839  0.7375
    2TTP    C41 5499  11.575   0.553   2.084 -0.3397 -0.9718  0.2358
    2TTP    C42 5500  11.620   0.531   1.944 -1.4018 -0.3473  0.6437
    3TTP     S1 5501  10.274   0.602   2.219  0.3695  0.3395  0.2119
    3TTP     S5 5502  10.325   0.956   1.980 -0.0439  0.7686  0.7528
    3TTP     C1 5503  10.180   0.978   2.087  0.2141  0.6316  1.1380
    3TTP     C2 5504  10.156   0.871   2.167  0.3572  0.4911  0.9937
    3TTP     C3 5505  10.251   0.766   2.147  0.2680  0.4865  0.5736
    3TTP     C4 5506  10.420   0.579   2.112  0.1111  0.4764 -0.1735
    3TTP    C17 5507  10.444   0.687   2.032 -0.0317  0.6170 -0.0292
    3TTP    C18 5508  10.349   0.792   2.052  0.0579  0.6217  0.3910
    3TTP    C32 5509  10.011   0.847   2.238  0.4761 -1.3346 -0.1621
    3TTP    C33 5510  10.026   0.771   2.373  0.4363 -0.8712 -0.6205
    3TTP    C34 5511  10.019   0.904   2.462  1.0979 -0.6452  0.9414
    3TTP    C35 5512  10.090   0.875   2.586  0.8746  0.3372 -0.2674
    3TTP    C36 5513  10.003   0.899   2.722 -0.7303 -1.0649  1.0683
    3TTP    C37 5514  10.071   1.011   2.794  0.0597  0.1570  0.3711
    3TTP    C38 5515  10.086   0.999   2.937 -1.1343 -0.1876  0.2023
    3TTP    C39 5516  10.153   1.125   2.990 -0.6373 -0.3223  0.5018
    3TTP    C40 5517  10.163   1.085   3.132  1.0810  0.3279 -1.3701
    3TTP    C41 5518  10.169   1.196   3.243 -0.0409  0.5948  0.2503
    3TTP    C42 5519  10.031   1.258   3.256  0.1003  0.2828  0.8041
    4FIC     F1 5520  11.729   0.933   1.318  0.2187  0.0612  0.3644
    4FIC     F2 5521  11.891   0.733   1.230 -0.3506 -0.0875 -0.3582
    4FIC     O1 5522  11.371   0.653   1.613  0.4034  0.2154  0.7364
    4FIC     N5 5523  11.868   0.245   1.313 -1.0374 -0.1914 -1.1319
    4FIC     N6 5524  11.556   0.067   1.561 -0.7784 -0.0409 -0.6955
    4FIC    C19 5525  11.398   0.362   1.633 -0.0749  0.1281  0.1782
    4FIC    C20 5526  11.482   0.441   1.562 -0.0991  0.0951  0.1129
    4FIC    C21 5527  11.462   0.589   1.557  0.1567  0.1439  0.4140
    4FIC    C22 5528  11.569   0.643   1.472  0.0559  0.0900  0.2505
    4FIC    C23 5529  11.592   0.776   1.438  0.2159  0.1083  0.4229
    4FIC    C24 5530  11.701   0.804   1.356  0.0735  0.0473  0.2113
    4FIC    C25 5531  11.784   0.700   1.311 -0.2198 -0.0292 -0.1608
    4FIC    C26 5532  11.762   0.567   1.344 -0.3808 -0.0478 -0.3347
    4FIC    C27 5533  11.652   0.538   1.427 -0.2403  0.0131 -0.1250
    4FIC    C28 5534  11.602   0.409   1.481 -0.3473  0.0132 -0.2244
    4FIC    C29 5535  11.656   0.285   1.459 -0.6235 -0.0506 -0.5641
    4FIC    C30 5536  11.772   0.263   1.379 -0.8501 -0.1278 -0.8751
    4FIC    C31 5537  11.601   0.166   1.515 -0.7071 -0.0449 -0.6344
    5FIC     F1 5538  10.215   1.763   1.834 -0.3369 -0.1183 -0.0322
    5FIC     F2 5539   9.984   1.810   1.970  0.1254  0.0350  0.7083
    5FIC     O1 5540  10.291   1.238   1.940 -0.7079 -0.3408 -0.8513
    5FIC     N5 5541   9.707   1.503   2.242  0.5250  0.0967  1.1892
    5FIC     N6 5542   9.813   1.083   2.297  0.1421 -0.1081  0.3998
    5FIC    C19 5543  10.098   1.096   2.108 -0.3980 -0.2735 -0.4347
    5FIC    C20 5544  10.088   1.226   2.076 -0.3231 -0.2234 -0.2577
    5FIC    C21 5545  10.191   1.292   1.989 -0.4928 -0.2628 -0.4917
    5FIC    C22 5546  10.150   1.433   1.974 -0.3536 -0.1909 -0.2104
    5FIC    C23 5547  10.215   1.533   1.902 -0.4344 -0.1954 -0.2896
    5FIC    C24 5548  10.157   1.659   1.903 -0.2692 -0.1184  0.0252
    5FIC    C25 5549  10.038   1.683   1.973 -0.0314 -0.0395  0.4064
    5FIC    C26 5550   9.973   1.583   2.045  0.0505 -0.0345  0.4877
    5FIC    C27 5551  10.030   1.455   2.046 -0.1140 -0.1118  0.1727
    5FIC    C28 5552   9.987   1.329   2.111 -0.0856 -0.1287  0.1587
    5FIC    C29 5553   9.875   1.312   2.189  0.1206 -0.0680  0.4721
    5FIC    C30 5554   9.783   1.417   2.218  0.3424  0.0223  0.8653
    5FIC    C31 5555   9.842   1.186   2.248  0.1314 -0.0905  0.4306
    1BTD     S2 5556   0.833   0.109   9.808  0.0267  0.4633 -0.3657
    1BTD     N1 5557   0.742   0.013   9.686 -0.1475  0.7052 -0.4263
    1BTD     N2 5558   0.692   0.135   9.915  0.2583 -0.0604  0.0808
    1BTD     N3 5559   0.237   0.017   9.914  0.4157 -0.6909  0.8812
    1BTD     N4 5560   0.299  -0.134   9.632 -0.0844  0.2525  0.2565
    1BTD     C5 5561   0.510  -0.062   9.661 -0.1085  0.4575 -0.0622
    1BTD     C6 5562   0.617   0.006   9.729 -0.0301  0.3990 -0.1261
    1BTD     C7 5563   0.589   0.075   9.857  0.1970 -0.0296  0.1576
    1BTD     C8 5564   0.455   0.072   9.911  0.3344 -0.3782  0.4911
    1BTD    C15 5565   0.354   0.004   9.841  0.2507 -0.3060  0.5417
    1BTD    C16 5566   0.381  -0.062   9.717  0.0319  0.1066  0.2681
    1BTD    C43 5567   0.183  -0.215   9.652 -0.8412 -0.3634  0.3970
    1BTD    C44 5568   0.171  -0.361   9.706 -0.5777 -0.7544 -0.7287
    1BTD    C45 5569   0.209  -0.401   9.853  0.2009 -0.4718  0.9926
    1BTD    C46 5570   0.343  -0.373   9.914  0.0600  0.7102 -0.9636
    1BTD    C47 5571   0.025  -0.423   9.663 -0.6319 -0.3772 -1.5694
    1BTD    C48 5572   0.046  -0.496   9.523 -0.1571 -0.2712 -0.5354
    1BTD    C49 5573  -0.071  -0.599   9.499 -1.5390 -0.6110  1.9160
    1BTD    C50 5574  -0.029  -0.701   9.390 -0.3856  0.9031  0.1026
    1BTD    C75 5575   0.096  -0.007   9.853 -0.5974  0.1894 -0.5855
    1BTD    C76 5576   0.035   0.120   9.796  1.1384 -0.6139  1.2389
    1BTD    C77 5577  -0.085   0.084   9.722  0.2122 -1.0621  0.0655
    1BTD    C78 5578  -0.212   0.028   9.798  0.4228 -0.1610  0.2044
    1BTD    C79 5579   0.139   0.170   9.697  1.0523  0.5735 -0.3916
    1BTD    C80 5580   0.116   0.312   9.636 -0.4049 -1.3354  0.6367
    1BTD    C81 5581   0.022   0.356   9.525 -1.0137 -0.6032  0.0035
    1BTD    C82 5582   0.027   0.311   9.378  0.2996 -0.0386  0.5393
    2TTP     S1 5583   0.608  -0.170   9.393 -0.1529  0.0284  0.0302
    2TTP     S5 5584   0.198  -0.242   9.283 -0.0172 -0.1168 -0.3874
    2TTP     C1 5585   0.304  -0.278   9.140  0.1118  0.2590 -0.3903
    2TTP     C2 5586   0.436  -0.258   9.165  0.0775  0.3257 -0.2618
    2TTP     C3 5587   0.460  -0.213   9.299 -0.0519  0.0830 -0.1559
    2TTP     C4 5588   0.502  -0.133   9.536 -0.2820 -0.3474  0.0327
    2TTP    C17 5589   0.370  -0.153   9.511 -0.2477 -0.4141 -0.0956
    2TTP    C18 5590   0.346  -0.198   9.377 -0.1182 -0.1714 -0.2010
    2TTP    C32 5591   0.553  -0.260   9.069  0.0063  0.1738  0.6554
    2TTP    C33 5592   0.672  -0.350   9.107 -0.3702 -0.5487 -0.7386
    2TTP    C34 5593   0.787  -0.366   9.001  0.3921 -0.0087  0.9967
    2TTP    C35 5594   0.916  -0.426   9.061 -0.5322  0.4129 -0.6588
    2TTP    C36 5595   0.933  -0.569   9.055  0.9611 -0.1776  0.4486
    2TTP    C37 5596   0.935  -0.657   8.935  0.1432 -0.1528  2.3378
    2TTP    C38 5597   1.042  -0.754   8.924  0.6594 -1.0912  0.8435
    2TTP    C39 5598   1.065  -0.836   9.051 -0.5376 -0.2490  0.3014
    2TTP    C40 5599   1.182  -0.908   9.020  1.2963  1.3700  0.8322
    2TTP    C41 5600   1.297  -0.884   9.104 -0.1174 -0.3085  2.4107
    2TTP    C42 5601   1.347  -1.004   9.170  0.6050 -1.0260  0.4610
    3TTP     S1 5602   0.432   0.208  10.183  0.3051  0.4678 -0.0042
    3TTP     S5 5603   0.036   0.045  10.220  0.3488  0.3035 -0.2558
    3TTP     C1 5604   0.077   0.132  10.374  0.2091  0.3331 -0.2349
    3TTP     C2 5605   0.202   0.188  10.372  0.1874  0.3856 -0.1562
    3TTP     C3 5606   0.269   0.163  10.248  0.2803  0.4043 -0.1092
    3TTP     C4 5607   0.390   0.121  10.029  0.4448  0.4381 -0.0250
    3TTP    C17 5608   0.266   0.065  10.031  0.4665  0.3856 -0.1039
    3TTP    C18 5609   0.198   0.090  10.155  0.3736  0.3669 -0.1504
    3TTP    C32 5610   0.265   0.272  10.478 -0.3029  1.4061  0.0623
    3TTP    C33 5611   0.375   0.203  10.551  0.9286 -0.2865 -0.1581
    3TTP    C34 5612   0.465   0.102  10.510 -0.3637 -0.1960 -0.1394
    3TTP    C35 5613   0.451  -0.011  10.610  0.0899 -0.0111 -0.1308
    3TTP    C36 5614   0.343  -0.106  10.552 -0.0247 -0.1665 -0.9058
    3TTP    C37 5615   0.283  -0.168  10.671 -0.4061 -0.0687 -0.1517
    3TTP    C38 5616   0.238  -0.306  10.628  0.5688  0.4079  0.0953
    3TTP    C39 5617   0.187  -0.388  10.751 -0.8591  0.4559 -0.4156
    3TTP    C40 5618   0.147  -0.523  10.698  1.2672  0.4555 -0.3681
    3TTP    C41 5619   0.083  -0.620  10.787 -1.5979 -0.9515 -0.0675
    3TTP    C42 5620   0.015  -0.746  10.741 -1.8148 -0.6214  1.4827
    4FIC     F1 5621  -0.432  -0.430   8.790  0.0668  0.1588  0.0944
    4FIC     F2 5622  -0.301  -0.534   8.575 -0.0288 -0.3190  0.2639
    4FIC     O1 5623  -0.016  -0.275   9.099  0.2077  0.4780 -0.2534
    4FIC     N5 5624   0.185  -0.572   8.487 -0.0655 -0.7782  0.2599
    4FIC     N6 5625   0.483  -0.430   8.772  0.0639 -0.4323 -0.0458
    4FIC    C19 5626   0.257  -0.319   9.004  0.1665  0.1353 -0.2149
    4FIC    C20 5627   0.147  -0.354   8.935  0.1348  0.0734 -0.1340
    4FIC    C21 5628   0.010  -0.328   8.990  0.1589  0.2599 -0.1605
    4FIC    C22 5629  -0.086  -0.378   8.890  0.1135  0.1328 -0.0544
    4FIC    C23 5630  -0.225  -0.376   8.897  0.1156  0.2306 -0.0367
    4FIC    C24 5631  -0.295  -0.429   8.789  0.0671  0.0741  0.0713
    4FIC    C25 5632  -0.227  -0.482   8.679  0.0183 -0.1720  0.1587
    4FIC    C26 5633  -0.088  -0.485   8.671  0.0157 -0.2706  0.1416
    4FIC    C27 5634  -0.016  -0.431   8.779  0.0642 -0.1152  0.0327
    4FIC    C28 5635   0.130  -0.419   8.802  0.0754 -0.1616 -0.0126
    4FIC    C29 5636   0.231  -0.459   8.717  0.0378 -0.3803  0.0465
    4FIC    C30 5637   0.205  -0.521   8.591 -0.0189 -0.5982  0.1636
    4FIC    C31 5638   0.369  -0.443   8.748  0.0524 -0.4072 -0.0045
    5FIC     F1 5639  -0.520  -0.351  10.657  0.3400 -0.2844  0.0887
    5FIC     F2 5640  -0.519  -0.211  10.890  0.0341 -0.0527 -0.0484
    5FIC     O1 5641  -0.139  -0.088  10.377  0.2234 -0.1307  0.0730
    5FIC     N5 5642  -0.245   0.178  11.026 -0.4897  0.3897 -0.2561
    5FIC     N6 5643   0.053   0.356  10.760 -0.5193  0.4629 -0.2403
    5FIC    C19 5644  -0.002   0.140  10.500 -0.1111  0.1450 -0.0633
    5FIC    C20 5645  -0.098   0.068  10.562 -0.0694  0.0973 -0.0539
    5FIC    C21 5646  -0.164  -0.048  10.492  0.1049 -0.0458  0.0179
    5FIC    C22 5647  -0.263  -0.103  10.586  0.1068 -0.0641  0.0091
    5FIC    C23 5648  -0.348  -0.211  10.566  0.2410 -0.1800  0.0610
    5FIC    C24 5649  -0.433  -0.245  10.670  0.2132 -0.1734  0.0401
    5FIC    C25 5650  -0.432  -0.173  10.790  0.0552 -0.0538 -0.0306
    5FIC    C26 5651  -0.347  -0.065  10.811 -0.0794  0.0622 -0.0823
    5FIC    C27 5652  -0.260  -0.029  10.707 -0.0532  0.0573 -0.0625
    5FIC    C28 5653  -0.159   0.079  10.696 -0.1678  0.1612 -0.1040
    5FIC    C29 5654  -0.128   0.172  10.793 -0.3335  0.2918 -0.1750
    5FIC    C30 5655  -0.193   0.175  10.921 -0.4184  0.3451 -0.2196
    5FIC    C31 5656  -0.029   0.272  10.775 -0.4349  0.3852 -0.2108
    1BTD     S2 5657   7.150  10.320   9.632  0.4282  0.1250  0.2792
    1BTD     N1 5658   7.014  10.426   9.580  0.3656 -0.0224  0.1400
    1BTD     N2 5659   7.091  10.301   9.800  0.2601  0.0381  0.2105
    1BTD     N3 5660   6.725  10.453  10.051 -0.1954 -0.4044 -0.1807
    1BTD     N4 5661   6.630  10.607   9.780 -0.0654 -0.4790 -0.2677
    1BTD     C5 5662   6.815  10.519   9.688  0.1390 -0.2599 -0.0718
    1BTD     C6 5663   6.936  10.441   9.686  0.2297 -0.1230  0.0541
    1BTD     C7 5664   6.979  10.371   9.809  0.1707 -0.0892  0.0935
    1BTD     C8 5665   6.899  10.382   9.928  0.0238 -0.1936  0.0055
    1BTD    C15 5666   6.781  10.460   9.925 -0.0609 -0.3260 -0.1168
    1BTD    C16 5667   6.740  10.527   9.807 -0.0042 -0.3585 -0.1550
    1BTD    C43 5668   6.568  10.683   9.887 -0.1148  0.1907 -0.7731
    1BTD    C44 5669   6.421  10.722   9.900  0.5976  0.0960 -0.3672
    1BTD    C45 5670   6.340  10.595   9.885  0.3947  0.6526  1.7705
    1BTD    C46 5671   6.185  10.589   9.867 -0.3803  0.7960  0.6934
    1BTD    C47 5672   6.366  10.800  10.018  0.5254  0.5082 -0.1959
    1BTD    C48 5673   6.348  10.950  10.040 -1.2023 -0.9002  0.2643
    1BTD    C49 5674   6.266  11.035   9.939  0.9731  1.0947  0.6387
    1BTD    C50 5675   6.111  11.026   9.949  0.0202  0.6217 -1.1864
    1BTD    C75 5676   6.585  10.422  10.095 -0.5852 -0.7373  0.3984
    1BTD    C76 5677   6.511  10.459  10.212 -0.5675 -0.7426  0.3475
    1BTD    C77 5678   6.436  10.330  10.252 -0.0055  1.0320 -0.6626
    1BTD    C78 5679   6.322  10.308  10.154  0.6499  0.3430 -0.0577
    1BTD    C79 5680   6.474  10.596  10.238  0.5199  0.7117 -0.1817
    1BTD    C80 5681   6.404  10.633  10.375 -0.4311  0.0817 -0.7415
    1BTD    C81 5682   6.494  10.713  10.465 -0.1434  0.8728 -0.7321
    1BTD    C82 5683   6.431  10.784  10.593 -0.4318  0.9478 -0.1348
    2TTP     S1 5684   6.778  10.648   9.418  0.4233 -0.2015  0.1227
    2TTP     S5 5685   6.410  10.820   9.560 -0.0376 -0.7098 -0.4478
    2TTP     C1 5686   6.429  10.861   9.383  0.3804 -0.3419 -0.3207
    2TTP     C2 5687   6.544  10.810   9.329  0.5472 -0.1631 -0.1373
    2TTP     C3 5688   6.621  10.737   9.425  0.3511 -0.3107 -0.0899
    2TTP     C4 5689   6.759  10.607   9.594  0.0055 -0.5696 -0.0043
    2TTP    C17 5690   6.645  10.658   9.648 -0.1614 -0.7484 -0.1878
    2TTP    C18 5691   6.567  10.731   9.552  0.0346 -0.6008 -0.2351
    2TTP    C32 5692   6.572  10.809   9.174  0.8614 -0.5966 -2.3008
    2TTP    C33 5693   6.706  10.774   9.120 -0.1338  0.4625  0.4006
    2TTP    C34 5694   6.710  10.695   8.997  0.2831 -0.8188  1.1197
    2TTP    C35 5695   6.640  10.554   8.963  0.2050 -0.7567 -0.7506
    2TTP    C36 5696   6.668  10.446   9.063  0.3282  0.4080 -0.3201
    2TTP    C37 5697   6.559  10.398   9.153  0.0850 -0.6465  0.2680
    2TTP    C38 5698   6.542  10.254   9.175 -1.0279  0.5529  1.3529
    2TTP    C39 5699   6.455  10.194   9.063 -0.4853  0.1765  0.8830
    2TTP    C40 5700   6.401  10.054   9.095  0.1811  0.0985 -0.6002
    2TTP    C41 5701   6.388   9.939   8.982 -0.9420 -1.4352  0.2536
    2TTP    C42 5702   6.318   9.968   8.860  0.8025  1.2559  0.3620
    3TTP     S1 5703   7.055  10.279  10.152 -0.2242  0.1188  0.0044
    3TTP     S5 5704   6.769  10.435  10.432 -0.0885 -0.7136  0.6120
    3TTP     C1 5705   6.909  10.366  10.525 -0.0033 -0.9135  0.3370
    3TTP     C2 5706   7.006  10.314  10.444 -0.0402 -0.6678  0.1333
    3TTP     C3 5707   6.972  10.326  10.305 -0.1369 -0.3133  0.1872
    3TTP     C4 5708   6.914  10.348  10.059 -0.3093  0.3185  0.2794
    3TTP    C17 5709   6.818  10.400  10.140 -0.2724  0.0735  0.4835
    3TTP    C18 5710   6.851  10.387  10.279 -0.1756 -0.2811  0.4299
    3TTP    C32 5711   7.150  10.265  10.502 -0.3204  0.3658  0.2734
    3TTP    C33 5712   7.279  10.223  10.430  0.1269 -1.0794  0.3720
    3TTP    C34 5713   7.379  10.321  10.372  0.8328 -0.3606 -0.4308
    3TTP    C35 5714   7.320  10.414  10.273  0.7443 -2.2082 -0.3284
    3TTP    C36 5715   7.419  10.525  10.217  1.4485 -0.0344 -1.9881
    3TTP    C37 5716   7.356  10.654  10.180  0.5357 -0.3899  0.9264
    3TTP    C38 5717   7.463  10.739  10.114  0.0667 -0.2401 -1.1082
    3TTP    C39 5718   7.452  10.887  10.091  0.9452 -0.8590 -0.4881
    3TTP    C40 5719   7.474  10.944   9.957 -0.9059  0.6409  1.2751
    3TTP    C41 5720   7.344  10.945   9.862 -1.0432 -0.2944 -0.2426
    3TTP    C42 5721   7.374  11.019   9.729 -1.3465  0.4081  0.0235
    4FIC     F1 5722   5.784  11.372   9.509  0.0534 -0.3815  0.3018
    4FIC     F2 5723   5.735  11.360   9.242  0.3890  0.2611  0.2067
    4FIC     O1 5724   6.227  11.063   9.547  0.0539 -0.4058  0.1025
    4FIC     N5 5725   5.981  11.122   8.884  0.8712  1.1678 -0.0713
    4FIC     N6 5726   6.337  10.883   8.968  0.8039  1.0192 -0.2079
    4FIC    C19 5727   6.338  10.942   9.305  0.3743  0.1997 -0.0589
    4FIC    C20 5728   6.228  11.020   9.306  0.3613  0.1805 -0.0052
    4FIC    C21 5729   6.177  11.079   9.434  0.1919 -0.1397  0.0770
    4FIC    C22 5730   6.058  11.158   9.400  0.2228 -0.0739  0.1199
    4FIC    C23 5731   5.977  11.231   9.486  0.1043 -0.2954  0.1974
    4FIC    C24 5732   5.869  11.298   9.430  0.1638 -0.1759  0.2252
    4FIC    C25 5733   5.844  11.292   9.292  0.3366  0.1553  0.1763
    4FIC    C26 5734   5.925  11.219   9.206  0.4556  0.3777  0.0985
    4FIC    C27 5735   6.034  11.150   9.260  0.3979  0.2613  0.0694
    4FIC    C28 5736   6.138  11.065   9.197  0.4897  0.4308 -0.0093
    4FIC    C29 5737   6.148  11.035   9.064  0.6610  0.7570 -0.0734
    4FIC    C30 5738   6.056  11.083   8.965  0.7761  0.9816 -0.0718
    4FIC    C31 5739   6.252  10.952   9.011  0.7386  0.8996 -0.1469
    5FIC     F1 5740   6.392  10.508  11.148 -0.1581 -0.4995 -0.1819
    5FIC     F2 5741   6.589  10.433  11.321 -0.1903 -0.2489 -0.0370
    5FIC     O1 5742   6.640  10.435  10.672  0.2024 -0.4232 -0.0060
    5FIC     N5 5743   7.049  10.274  11.230  0.0207  0.1659  0.2971
    5FIC     N6 5744   7.203  10.233  10.823  0.3090  0.1752  0.4053
    5FIC    C19 5745   6.916  10.338  10.668  0.2998 -0.1563  0.1948
    5FIC    C20 5746   6.846  10.360  10.781  0.2103 -0.1855  0.1450
    5FIC    C21 5747   6.705  10.410  10.775  0.1651 -0.3252  0.0420
    5FIC    C22 5748   6.658  10.421  10.915  0.0685 -0.3216  0.0095
    5FIC    C23 5749   6.534  10.464  10.959 -0.0004 -0.4275 -0.0806
    5FIC    C24 5750   6.513  10.467  11.097 -0.0868 -0.4001 -0.0946
    5FIC    C25 5751   6.615  10.428  11.185 -0.1031 -0.2706 -0.0194
    5FIC    C26 5752   6.739  10.386  11.141 -0.0347 -0.1650  0.0710
    5FIC    C27 5753   6.762  10.382  11.003  0.0532 -0.1907  0.0861
    5FIC    C28 5754   6.882  10.343  10.924  0.1397 -0.1016  0.1721
    5FIC    C29 5755   7.002  10.299  10.975  0.1521  0.0327  0.2604
    5FIC    C30 5756   7.027  10.285  11.115  0.0798  0.1054  0.2799
    5FIC    C31 5757   7.112  10.263  10.891  0.2382  0.1101  0.3395
    1BTD     S2 5758   5.080  10.894   5.330  0.4060 -0.6099  0.6367
    1BTD     N1 5759   4.957  11.024   5.307  0.2007 -0.8826  0.1653
    1BTD     N2 5760   5.044  10.871   5.505  0.4793 -0.0012  0.7374
    1BTD     N3 5761   4.749  11.057   5.819  0.2575  0.7482  0.0917
    1BTD     N4 5762   4.643  11.246   5.576 -0.0859 -0.3383 -0.6133
    1BTD     C5 5763   4.794  11.137   5.450  0.0553 -0.5851 -0.2326
    1BTD     C6 5764   4.899  11.042   5.425  0.1975 -0.5243  0.1101
    1BTD     C7 5765   4.947  10.956   5.535  0.3535 -0.0308  0.4305
    1BTD     C8 5766   4.889  10.971   5.666  0.3594  0.3769  0.3917
    1BTD    C15 5767   4.787  11.065   5.686  0.2172  0.2996  0.0508
    1BTD    C16 5768   4.740  11.148   5.580  0.0668 -0.1756 -0.2578
    1BTD    C43 5769   4.535  11.270   5.685 -0.6133 -1.5949  0.3049
    1BTD    C44 5770   4.382  11.197   5.682 -0.3347  1.9860  0.8030
    1BTD    C45 5771   4.350  11.074   5.596 -1.2668 -0.7724 -0.5798
    1BTD    C46 5772   4.426  10.945   5.629 -0.4311 -0.4667  0.7335
    1BTD    C47 5773   4.272  11.228   5.792  0.3279 -0.2125  1.0576
    1BTD    C48 5774   4.352  11.187   5.922  0.8768 -0.2340 -0.3546
    1BTD    C49 5775   4.269  11.113   6.037  0.1108 -0.5872 -0.0504
    1BTD    C50 5776   4.346  11.027   6.139 -0.6915 -1.5416 -1.5966
    1BTD    C75 5777   4.714  11.164   5.929 -0.6196 -0.4893  0.7628
    1BTD    C76 5778   4.826  11.256   5.994 -0.8876 -0.4381 -0.8133
    1BTD    C77 5779   4.909  11.335   5.894 -0.3947 -0.3642  1.0053
    1BTD    C78 5780   4.841  11.471   5.867 -0.9673 -0.6814  0.1646
    1BTD    C79 5781   4.776  11.334   6.122 -0.6735  0.2940  0.2705
    1BTD    C80 5782   4.732  11.283   6.251 -0.1560 -0.4683  0.5742
    1BTD    C81 5783   4.597  11.363   6.278 -1.2685 -0.5130 -0.3910
    1BTD    C82 5784   4.613  11.448   6.406  0.0634 -0.8643 -0.0539
    2TTP     S1 5785   4.731  11.291   5.201 -0.0350 -0.2474 -0.0359
    2TTP     S5 5786   4.405  11.480   5.409 -0.3592 -0.5512 -0.2664
    2TTP     C1 5787   4.397  11.527   5.233 -0.0216 -0.2063 -0.1937
    2TTP     C2 5788   4.497  11.471   5.159  0.0983 -0.0922 -0.1181
    2TTP     C3 5789   4.584  11.390   5.238 -0.0721 -0.2730 -0.1150
    2TTP     C4 5790   4.740  11.245   5.377 -0.3726 -0.5923 -0.1085
    2TTP    C17 5791   4.640  11.300   5.451 -0.4927 -0.7064 -0.1840
    2TTP    C18 5792   4.553  11.381   5.372 -0.3223 -0.5256 -0.1872
    2TTP    C32 5793   4.544  11.512   5.019  1.0200  1.8511 -0.9952
    2TTP    C33 5794   4.464  11.467   4.888  0.3411  0.0737  0.4129
    2TTP    C34 5795   4.443  11.310   4.876  0.0568  0.6157 -0.7252
    2TTP    C35 5796   4.388  11.254   4.743 -0.7068 -0.5742 -0.0669
    2TTP    C36 5797   4.248  11.270   4.746  2.0608 -0.7820  1.3046
    2TTP    C37 5798   4.154  11.199   4.849  0.8974  0.5806 -0.0943
    2TTP    C38 5799   4.006  11.205   4.805  0.0626 -0.5352  0.4463
    2TTP    C39 5800   3.889  11.177   4.906  0.5171  0.7860  0.3233
    2TTP    C40 5801   3.832  11.258   5.015 -0.0553 -0.5127 -1.2993
    2TTP    C41 5802   3.863  11.403   5.005  0.2809  0.6963 -0.3221
    2TTP    C42 5803   3.763  11.488   5.104  0.8717  0.4417 -0.1858
    3TTP     S1 5804   5.016  10.770   5.848 -0.2643 -0.3249  0.1635
    3TTP     S5 5805   4.794  10.935   6.177  0.3452  0.6793  0.0789
    3TTP     C1 5806   4.915  10.817   6.242  0.1204  0.4944  0.1670
    3TTP     C2 5807   4.991  10.759   6.145 -0.0811  0.1733  0.1981
    3TTP     C3 5808   4.956  10.806   6.014 -0.0651  0.0620  0.1540
    3TTP     C4 5809   4.894  10.888   5.782 -0.0393 -0.1402  0.0752
    3TTP    C17 5810   4.818  10.946   5.879  0.1620  0.1812  0.0441
    3TTP    C18 5811   4.854  10.899   6.010  0.1460  0.2925  0.0887
    3TTP    C32 5812   5.104  10.661   6.157 -0.3976  0.4332 -1.4313
    3TTP    C33 5813   5.234  10.749   6.178  1.1891  0.5989  1.3334
    3TTP    C34 5814   5.356  10.663   6.208  0.2386 -0.7801 -0.1977
    3TTP    C35 5815   5.415  10.591   6.094  0.8059  0.3945 -0.0431
    3TTP    C36 5816   5.539  10.537   6.149 -2.2471 -0.0187  0.0279
    3TTP    C37 5817   5.644  10.485   6.051 -0.2429  0.6364  0.2431
    3TTP    C38 5818   5.634  10.339   5.985  0.3068 -0.8286  0.4777
    3TTP    C39 5819   5.694  10.227   6.051  0.4789 -0.3401 -1.7932
    3TTP    C40 5820   5.788  10.125   5.985 -1.3421  1.5522 -0.2701
    3TTP    C41 5821   5.895  10.170   5.893  0.4437  0.2616  0.4280
    3TTP    C42 5822   6.017  10.094   5.877 -0.7046  1.2335 -0.0482
    4FIC     F1 5823   3.761  11.931   5.527  0.2065  0.1508  0.1316
    4FIC     F2 5824   3.784  12.108   5.321  0.2192  0.1926  0.1686
    4FIC     O1 5825   4.153  11.579   5.404 -0.0471 -0.0406 -0.1309
    4FIC     N5 5826   4.097  12.111   4.938  0.0565  0.1163  0.0348
    4FIC     N6 5827   4.399  11.800   4.883 -0.1441 -0.0416 -0.1777
    4FIC    C19 5828   4.315  11.622   5.164 -0.1251 -0.0686 -0.1887
    4FIC    C20 5829   4.215  11.704   5.203 -0.0619 -0.0221 -0.1242
    4FIC    C21 5830   4.137  11.675   5.327 -0.0249 -0.0106 -0.0981
    4FIC    C22 5831   4.037  11.783   5.340  0.0421  0.0430 -0.0266
    4FIC    C23 5832   3.941  11.799   5.440  0.0941  0.0708  0.0187
    4FIC    C24 5833   3.858  11.909   5.431  0.1531  0.1211  0.0841
    4FIC    C25 5834   3.870  12.000   5.325  0.1595  0.1425  0.1033
    4FIC    C26 5835   3.965  11.985   5.225  0.1078  0.1150  0.0582
    4FIC    C27 5836   4.051  11.874   5.233  0.0477  0.0641 -0.0082
    4FIC    C28 5837   4.161  11.829   5.144 -0.0157  0.0249 -0.0675
    4FIC    C29 5838   4.203  11.891   5.029 -0.0296  0.0311 -0.0693
    4FIC    C30 5839   4.145  12.012   4.979  0.0178  0.0779 -0.0120
    4FIC    C31 5840   4.311  11.841   4.949 -0.0925 -0.0089 -0.1291
    5FIC     F1 5841   4.771  11.242   6.925 -0.4867  0.0052 -0.2980
    5FIC     F2 5842   4.795  11.011   7.066  0.0907  0.2270 -0.0255
    5FIC     O1 5843   4.881  11.069   6.424 -0.3009 -0.3564 -0.1330
    5FIC     N5 5844   4.907  10.554   6.912  1.0533  0.2873  0.4840
    5FIC     N6 5845   4.988  10.465   6.492  1.0819 -0.0401  0.5579
    5FIC    C19 5846   4.942  10.786   6.381  0.3167 -0.2733  0.1860
    5FIC    C20 5847   4.914  10.839   6.502  0.2475 -0.1912  0.1338
    5FIC    C21 5848   4.883  10.985   6.516 -0.0756 -0.2413 -0.0319
    5FIC    C22 5849   4.857  11.009   6.659 -0.0703 -0.1266 -0.0495
    5FIC    C23 5850   4.824  11.129   6.721 -0.3155 -0.1242 -0.1825
    5FIC    C24 5851   4.804  11.127   6.858 -0.2546 -0.0040 -0.1710
    5FIC    C25 5852   4.816  11.007   6.930  0.0430  0.1098 -0.0304
    5FIC    C26 5853   4.849  10.887   6.869  0.2888  0.1082  0.1028
    5FIC    C27 5854   4.870  10.887   6.731  0.2316 -0.0126  0.0935
    5FIC    C28 5855   4.905  10.778   6.637  0.4388 -0.0474  0.2115
    5FIC    C29 5856   4.926  10.646   6.669  0.7485  0.0367  0.3639
    5FIC    C30 5857   4.915  10.596   6.802  0.9149  0.1743  0.4293
    5FIC    C31 5858   4.960  10.547   6.571  0.9302 -0.0060  0.4699
    1BTD     S2 5859   9.089   8.578   4.696  0.2026 -0.1683  0.0831
    1BTD     N1 5860   9.231   8.603   4.802  0.2048 -0.8857  0.2574
    1BTD     N2 5861   8.968   8.604   4.827  0.1600  0.5026 -0.0775
    1BTD     N3 5862   8.980   8.700   5.286  0.0772  0.5736 -0.0902
    1BTD     N4 5863   9.304   8.699   5.256  0.1323 -1.1375  0.3223
    1BTD     C5 5864   9.265   8.653   5.040  0.1664 -0.9964  0.2865
    1BTD     C6 5865   9.184   8.628   4.924  0.1752 -0.6032  0.1904
    1BTD     C7 5866   9.037   8.628   4.937  0.1502  0.1740  0.0029
    1BTD     C8 5867   8.978   8.654   5.066  0.1175  0.5190 -0.0792
    1BTD    C15 5868   9.062   8.678   5.177  0.1101  0.1127  0.0199
    1BTD    C16 5869   9.204   8.678   5.164  0.1339 -0.6362  0.2006
    1BTD    C43 5870   9.298   8.787   5.374 -0.5042 -0.8000  0.4468
    1BTD    C44 5871   9.322   8.935   5.360 -0.0754 -0.1485  0.0688
    1BTD    C45 5872   9.444   9.002   5.299  1.1700 -1.2359  0.7082
    1BTD    C46 5873   9.446   9.012   5.135 -0.3700  1.3355 -0.0338
    1BTD    C47 5874   9.310   9.009   5.497  0.8585  0.1994  0.6192
    1BTD    C48 5875   9.380   8.947   5.618  0.8532 -0.6220 -0.9236
    1BTD    C49 5876   9.517   8.902   5.623 -0.7105 -0.2218  0.8625
    1BTD    C50 5877   9.603   8.888   5.754 -0.4134  0.3633  0.2673
    1BTD    C75 5878   9.010   8.624   5.414 -0.9022 -0.7792 -0.9192
    1BTD    C76 5879   8.959   8.679   5.552 -0.7769  0.3774 -1.1369
    1BTD    C77 5880   8.935   8.561   5.665 -0.2176  0.1920 -0.1318
    1BTD    C78 5881   8.844   8.447   5.628  0.1091 -0.0628 -1.3274
    1BTD    C79 5882   9.009   8.808   5.628 -0.4548 -1.0913  0.2843
    1BTD    C80 5883   8.907   8.871   5.729 -1.0022 -1.2528  0.3029
    1BTD    C81 5884   8.830   8.807   5.857 -0.1372  1.4310  0.7557
    1BTD    C82 5885   8.925   8.755   5.969  0.0194 -0.6748 -0.5918
    2TTP     S1 5886   9.564   8.594   4.979 -0.0669 -0.5934  0.0178
    2TTP     S5 5887   9.653   8.687   5.390 -0.6442 -0.5322  0.1314
    2TTP     C1 5888   9.808   8.643   5.305 -0.5119 -0.4564  0.3332
    2TTP     C2 5889   9.790   8.612   5.173 -0.3259 -0.4711  0.3098
    2TTP     C3 5890   9.653   8.622   5.134 -0.2811 -0.5422  0.1320
    2TTP     C4 5891   9.409   8.638   5.064 -0.1993 -0.6692 -0.1841
    2TTP    C17 5892   9.427   8.669   5.196 -0.3854 -0.6546 -0.1607
    2TTP    C18 5893   9.565   8.660   5.234 -0.4301 -0.5836  0.0173
    2TTP    C32 5894   9.897   8.585   5.067 -0.3112 -0.4823  0.6947
    2TTP    C33 5895   9.875   8.526   4.936  0.9011  1.0685  0.5104
    2TTP    C34 5896   9.880   8.591   4.804  0.0990 -0.1033  0.1537
    2TTP    C35 5897   9.877   8.506   4.689 -1.0696  1.1410  0.6612
    2TTP    C36 5898   9.909   8.583   4.547  0.5964 -0.1018 -1.1101
    2TTP    C37 5899   9.907   8.469   4.453  0.4526  0.7742  0.9845
    2TTP    C38 5900   9.809   8.521   4.345  0.1194 -0.6333 -1.4305
    2TTP    C39 5901   9.665   8.471   4.381  0.3554  0.8089  0.5286
    2TTP    C40 5902   9.545   8.532   4.304  1.5907  0.0102  0.8810
    2TTP    C41 5903   9.431   8.557   4.401 -0.6366  0.1941 -0.5683
    2TTP    C42 5904   9.302   8.633   4.370  0.4118 -1.1705 -0.4648
    3TTP     S1 5905   8.689   8.654   5.036  0.2255  0.2249  0.1149
    3TTP     S5 5906   8.640   8.764   5.448  0.2015 -0.4668  0.2990
    3TTP     C1 5907   8.477   8.767   5.368  0.1695 -0.5844  0.3586
    3TTP     C2 5908   8.482   8.733   5.236  0.1750 -0.3779  0.3053
    3TTP     C3 5909   8.615   8.704   5.193  0.2050 -0.1190  0.2153
    3TTP     C4 5910   8.852   8.651   5.116  0.2575  0.3424  0.0551
    3TTP    C17 5911   8.846   8.685   5.248  0.2521  0.1360  0.1085
    3TTP    C18 5912   8.713   8.714   5.291  0.2224 -0.1228  0.1985
    3TTP    C32 5913   8.388   8.730   5.115  0.3256 -1.2782 -0.0923
    3TTP    C33 5914   8.346   8.589   5.097  0.8176 -0.1095  0.8681
    3TTP    C34 5915   8.235   8.553   5.010  0.2839 -0.2725  0.1353
    3TTP    C35 5916   8.298   8.495   4.887  0.5831 -0.6807  0.0838
    3TTP    C36 5917   8.212   8.405   4.802  0.1703  0.7080 -0.5128
    3TTP    C37 5918   8.283   8.309   4.710  0.3079  0.1887  0.0194
    3TTP    C38 5919   8.202   8.216   4.617 -0.0309 -0.3481 -0.3042
    3TTP    C39 5920   8.276   8.165   4.497  1.8987 -0.1387  1.4634
    3TTP    C40 5921   8.258   8.272   4.391 -0.5615 -0.4359  0.4631
    3TTP    C41 5922   8.339   8.275   4.265  1.2424 -1.2426 -0.7376
    3TTP    C42 5923   8.250   8.346   4.156  0.3545  0.2535  0.1363
    4FIC     F1 5924  10.052   8.799   6.066  0.8543 -0.3967  0.2984
    4FIC     F2 5925  10.290   8.884   5.965  0.4909  0.1869 -0.0764
    4FIC     O1 5926   9.802   8.632   5.615  0.2167 -0.1841  0.5705
    4FIC     N5 5927  10.454   8.887   5.498 -0.4861  1.1775 -0.4213
    4FIC     N6 5928  10.211   8.740   5.166 -0.9108  1.2262 -0.1330
    4FIC    C19 5929   9.941   8.654   5.358 -0.3570  0.4489  0.3092
    4FIC    C20 5930   9.994   8.693   5.476 -0.1826  0.3729  0.2552
    4FIC    C21 5931   9.917   8.678   5.604  0.1094  0.0422  0.3980
    4FIC    C22 5932  10.004   8.729   5.711  0.2415  0.0410  0.2925
    4FIC    C23 5933   9.975   8.736   5.847  0.5116 -0.2124  0.3643
    4FIC    C24 5934  10.073   8.789   5.930  0.5897 -0.1562  0.2368
    4FIC    C25 5935  10.196   8.833   5.878  0.4024  0.1444  0.0439
    4FIC    C26 5936  10.225   8.826   5.742  0.1321  0.3984 -0.0287
    4FIC    C27 5937  10.127   8.773   5.657  0.0494  0.3462  0.0980
    4FIC    C28 5938  10.126   8.752   5.510 -0.2184  0.5624  0.0676
    4FIC    C29 5939  10.228   8.783   5.422 -0.4547  0.8771 -0.1024
    4FIC    C30 5940  10.352   8.840   5.464 -0.4711  1.0414 -0.2770
    4FIC    C31 5941  10.218   8.759   5.282 -0.7045  1.0674 -0.1183
    5FIC     F1 5942   8.194   9.018   6.104  0.4392  0.1380 -0.1003
    5FIC     F2 5943   7.961   9.091   5.984  0.4733  0.6051  0.1122
    5FIC     O1 5944   8.470   8.820   5.682 -0.2251 -0.1366 -0.4088
    5FIC     N5 5945   7.823   9.055   5.510  0.0496  1.0808  0.1978
    5FIC     N6 5946   8.086   8.886   5.205 -0.4764  0.7722 -0.0862
    5FIC    C19 5947   8.346   8.820   5.418 -0.4277  0.2121 -0.3153
    5FIC    C20 5948   8.285   8.867   5.528 -0.2625  0.2627 -0.2460
    5FIC    C21 5949   8.356   8.864   5.661 -0.1664  0.0741 -0.3006
    5FIC    C22 5950   8.263   8.922   5.759  0.0091  0.1886 -0.2009
    5FIC    C23 5951   8.283   8.940   5.896  0.1447  0.0849 -0.2073
    5FIC    C24 5952   8.180   8.997   5.969  0.2994  0.2292 -0.1005
    5FIC    C25 5953   8.060   9.035   5.907  0.3168  0.4697  0.0088
    5FIC    C26 5954   8.039   9.017   5.771  0.1822  0.5744  0.0157
    5FIC    C27 5955   8.142   8.959   5.695  0.0243  0.4313 -0.0913
    5FIC    C28 5956   8.151   8.927   5.550 -0.1416  0.4864 -0.1146
    5FIC    C29 5957   8.054   8.949   5.455 -0.1769  0.7033 -0.0306
    5FIC    C30 5958   7.928   9.007   5.486 -0.0522  0.9100  0.0947
    5FIC    C31 5959   8.072   8.914   5.318 -0.3412  0.7401 -0.0618
    1BTD     S2 5960   1.751   7.132   0.880 -0.2831 -0.1881 -0.2895
    1BTD     N1 5961   1.741   6.960   0.930 -0.1392 -0.1204 -0.0223
    1BTD     N2 5962   1.928   7.127   0.846 -0.3211 -0.1518 -0.4964
    1BTD     N3 5963   2.269   6.805   0.868 -0.1390  0.0447 -0.4357
    1BTD     N4 5964   2.038   6.599   0.971  0.0854  0.0834  0.1486
    1BTD     C5 5965   1.899   6.774   0.950 -0.0246 -0.0144  0.0599
    1BTD     C6 5966   1.863   6.910   0.920 -0.1275 -0.0764 -0.0972
    1BTD     C7 5967   1.968   7.004   0.873 -0.2294 -0.0941 -0.3626
    1BTD     C8 5968   2.103   6.956   0.859 -0.2233 -0.0486 -0.4577
    1BTD    C15 5969   2.133   6.823   0.890 -0.1208  0.0112 -0.2970
    1BTD    C16 5970   2.032   6.732   0.935 -0.0226  0.0283 -0.0412
    1BTD    C43 5971   2.103   6.474   0.919 -0.4622  0.3540 -0.2610
    1BTD    C44 5972   2.033   6.378   0.828  1.1553 -0.4783  1.3126
    1BTD    C45 5973   2.101   6.242   0.843  0.8856 -1.2824 -0.7062
    1BTD    C46 5974   2.236   6.209   0.806  0.0594  1.4774 -0.0498
    1BTD    C47 5975   2.033   6.412   0.676 -1.0907  0.8844  1.0548
    1BTD    C48 5976   1.990   6.543   0.631 -1.1434  0.4199  1.3194
    1BTD    C49 5977   1.896   6.538   0.528  0.8303  0.2800  1.0595
    1BTD    C50 5978   1.804   6.663   0.492  0.1192  0.7668  0.9415
    1BTD    C75 5979   2.347   6.699   0.930 -0.1932 -0.0624 -0.9398
    1BTD    C76 5980   2.424   6.747   1.068  0.3219  0.6132  0.9360
    1BTD    C77 5981   2.521   6.637   1.094  1.4053 -0.3268 -1.0616
    1BTD    C78 5982   2.612   6.576   0.982  0.7878  0.7852 -1.2774
    1BTD    C79 5983   2.328   6.792   1.189 -0.5750  0.9336  0.3337
    1BTD    C80 5984   2.410   6.857   1.300  0.3772  0.5466  1.0244
    1BTD    C81 5985   2.347   6.866   1.438 -1.1144 -0.6524  0.7861
    1BTD    C82 5986   2.316   6.745   1.498  0.0471  0.3072 -0.2765
    2TTP     S1 5987   1.693   6.665   1.148  0.3701  0.1885  0.0822
    2TTP     S5 5988   1.970   6.350   1.243  0.0856 -0.2297 -0.4631
    2TTP     C1 5989   1.839   6.353   1.370  0.2057 -0.1904 -0.3397
    2TTP     C2 5990   1.746   6.450   1.348  0.3006 -0.0588 -0.1641
    2TTP     C3 5991   1.775   6.526   1.230  0.2819  0.0155 -0.1206
    2TTP     C4 5992   1.824   6.663   1.021  0.2500  0.1493 -0.0412
    2TTP    C17 5993   1.917   6.565   1.043  0.1551  0.0177 -0.2169
    2TTP    C18 5994   1.889   6.489   1.161  0.1738 -0.0566 -0.2604
    2TTP    C32 5995   1.646   6.503   1.444 -0.2003  0.8994  0.3639
    2TTP    C33 5996   1.519   6.575   1.421 -0.0487  0.1559  0.7851
    2TTP    C34 5997   1.450   6.611   1.552 -1.0540  0.0605  0.3820
    2TTP    C35 5998   1.501   6.714   1.662 -0.1835  1.1310 -0.2137
    2TTP    C36 5999   1.407   6.807   1.752 -0.4684  0.2410  1.0454
    2TTP    C37 6000   1.431   6.826   1.903 -0.4428 -1.1841 -1.5502
    2TTP    C38 6001   1.492   6.710   1.974 -0.0768 -0.5228  0.4721
    2TTP    C39 6002   1.513   6.725   2.119  0.2534 -1.0120 -0.3667
    2TTP    C40 6003   1.660   6.777   2.154  0.1605 -0.5061  0.7364
    2TTP    C41 6004   1.676   6.832   2.296 -0.2218  0.2728 -0.6151
    2TTP    C42 6005   1.642   6.739   2.418  0.5191  0.1764 -0.2345
    3TTP     S1 6006   2.290   7.189   0.814  0.2892  0.0130  0.0630
    3TTP     S5 6007   2.626   6.920   0.824 -0.0725 -0.4594 -0.4160
    3TTP     C1 6008   2.688   7.090   0.803  0.1541 -0.5100 -0.1583
    3TTP     C2 6009   2.588   7.183   0.799  0.2791 -0.3669  0.0048
    3TTP     C3 6010   2.459   7.124   0.812  0.2006 -0.2126 -0.0678
    3TTP     C4 6011   2.228   7.020   0.835  0.0627  0.0634 -0.1947
    3TTP    C17 6012   2.328   6.926   0.839 -0.0624 -0.0795 -0.3578
    3TTP    C18 6013   2.457   6.986   0.826  0.0162 -0.2341 -0.2851
    3TTP    C32 6014   2.598   7.339   0.773 -0.3975  0.6621 -0.2999
    3TTP    C33 6015   2.542   7.362   0.639 -0.3567 -0.0331 -0.2710
    3TTP    C34 6016   2.631   7.489   0.612  0.3885 -0.7240 -0.3104
    3TTP    C35 6017   2.597   7.628   0.676  1.0270 -0.0569 -0.6838
    3TTP    C36 6018   2.651   7.714   0.562 -1.7890 -0.7466 -0.0167
    3TTP    C37 6019   2.653   7.869   0.603  0.4115  0.5692 -1.5750
    3TTP    C38 6020   2.708   7.954   0.492 -0.3236  0.6617  0.7467
    3TTP    C39 6021   2.727   7.926   0.339 -0.5826  0.4646 -0.3917
    3TTP    C40 6022   2.876   7.940   0.315  0.8216  0.7003  0.6337
    3TTP    C41 6023   2.917   7.948   0.169  0.7260 -1.2519  0.5791
    3TTP    C42 6024   2.856   7.826   0.082 -1.1550 -0.2283  0.7963
    4FIC     F1 6025   2.212   5.661   1.618 -0.3165 -0.1906 -0.1114
    4FIC     F2 6026   2.070   5.676   1.850 -0.3919 -0.3431 -0.1476
    4FIC     O1 6027   2.028   6.099   1.358 -0.0615  0.1100  0.2125
    4FIC     N5 6028   1.735   6.009   1.997 -0.3187 -0.3481  0.0312
    4FIC     N6 6029   1.620   6.348   1.747 -0.1042 -0.0825  0.2916
    4FIC    C19 6030   1.828   6.269   1.487 -0.0430  0.0711  0.2930
    4FIC    C20 6031   1.879   6.158   1.543 -0.1042  0.0013  0.2129
    4FIC    C21 6032   1.982   6.076   1.470 -0.1096  0.0271  0.1760
    4FIC    C22 6033   2.017   5.964   1.560 -0.1828 -0.0652  0.0885
    4FIC    C23 6034   2.107   5.861   1.536 -0.2129 -0.0781  0.0293
    4FIC    C24 6035   2.123   5.765   1.635 -0.2834 -0.1725 -0.0497
    4FIC    C25 6036   2.050   5.773   1.754 -0.3221 -0.2510 -0.0683
    4FIC    C26 6037   1.959   5.875   1.779 -0.2924 -0.2385 -0.0094
    4FIC    C27 6038   1.942   5.973   1.679 -0.2211 -0.1435  0.0709
    4FIC    C28 6039   1.854   6.093   1.674 -0.1744 -0.1056  0.1466
    4FIC    C29 6040   1.767   6.135   1.772 -0.1927 -0.1596  0.1538
    4FIC    C30 6041   1.750   6.066   1.895 -0.2619 -0.2631  0.0864
    4FIC    C31 6042   1.687   6.252   1.758 -0.1439 -0.1169  0.2295
    5FIC     F1 6043   3.418   6.709   0.910 -0.3295  0.1811  0.3154
    5FIC     F2 6044   3.541   6.944   0.849 -0.4783  0.2208  0.1715
    5FIC     O1 6045   2.897   6.851   0.868 -0.4182 -0.2315  0.0084
    5FIC     N5 6046   3.346   7.384   0.730 -0.7556 -0.0160 -0.2541
    5FIC     N6 6047   2.914   7.447   0.709 -0.7950 -0.3465 -0.4650
    5FIC    C19 6048   2.830   7.126   0.794 -0.5920 -0.3403 -0.2381
    5FIC    C20 6049   2.956   7.081   0.807 -0.5639 -0.2381 -0.1553
    5FIC    C21 6050   2.983   6.939   0.845 -0.4736 -0.1876 -0.0303
    5FIC    C22 6051   3.129   6.924   0.851 -0.4643 -0.0768  0.0360
    5FIC    C23 6052   3.202   6.809   0.882 -0.3921  0.0010  0.1552
    5FIC    C24 6053   3.340   6.819   0.880 -0.3987  0.1005  0.1983
    5FIC    C25 6054   3.403   6.940   0.849 -0.4753  0.1207  0.1241
    5FIC    C26 6055   3.331   7.055   0.817 -0.5477  0.0435  0.0051
    5FIC    C27 6056   3.191   7.047   0.818 -0.5423 -0.0576 -0.0402
    5FIC    C28 6057   3.087   7.149   0.790 -0.6065 -0.1560 -0.1607
    5FIC    C29 6058   3.108   7.280   0.756 -0.6896 -0.1684 -0.2586
    5FIC    C30 6059   3.239   7.336   0.742 -0.7256 -0.0846 -0.2558
    5FIC    C31 6060   3.001   7.371   0.730 -0.7471 -0.2662 -0.3716
    1BTD     S2 6061   8.147  10.170   7.538 -0.0217  0.3591 -0.1484
    1BTD     N1 6062   7.984  10.226   7.487 -0.2223 -0.1125 -0.0322
    1BTD     N2 6063   8.114  10.186   7.714  0.1917  0.6373 -0.1321
    1BTD     N3 6064   7.751  10.320   7.981  0.2651  0.3514  0.1117
    1BTD     N4 6065   7.591  10.368   7.701 -0.2450 -0.5722  0.2346
    1BTD     C5 6066   7.781  10.300   7.603 -0.2279 -0.3414  0.1056
    1BTD     C6 6067   7.917  10.252   7.598 -0.1247 -0.0422  0.0108
    1BTD     C7 6068   7.990  10.230   7.725  0.1070  0.3777 -0.0452
    1BTD     C8 6069   7.923  10.257   7.850  0.2239  0.4766 -0.0033
    1BTD    C15 6070   7.790  10.303   7.849  0.1160  0.1742  0.0897
    1BTD    C16 6071   7.720  10.324   7.727 -0.1072 -0.2305  0.1437
    1BTD    C43 6072   7.454  10.327   7.753 -1.1307 -0.0317  0.1572
    1BTD    C44 6073   7.447  10.191   7.837  0.2582 -1.3209  0.7677
    1BTD    C45 6074   7.519  10.076   7.751  0.0718  0.3560 -0.0144
    1BTD    C46 6075   7.547   9.916   7.785  1.2331 -0.1724 -0.6847
    1BTD    C47 6076   7.301  10.185   7.890 -0.8386  0.7152  0.8702
    1BTD    C48 6077   7.259  10.263   8.003 -0.7509 -0.1978 -1.4326
    1BTD    C49 6078   7.294  10.194   8.144 -0.0614 -0.9837  0.3251
    1BTD    C50 6079   7.237  10.244   8.271  0.0702 -0.1113  0.3002
    1BTD    C75 6080   7.661  10.412   8.034  1.0419  1.2872 -0.0162
    1BTD    C76 6081   7.664  10.559   7.982  0.1311  1.0467  0.8710
    1BTD    C77 6082   7.532  10.638   8.009 -0.2429 -0.4215 -0.5376
    1BTD    C78 6083   7.386  10.589   7.960  0.1931  0.0329 -0.2156
    1BTD    C79 6084   7.789  10.638   8.021 -0.5646  0.2590 -0.1310
    1BTD    C80 6085   7.800  10.760   7.963 -1.1253 -0.4513  0.3900
    1BTD    C81 6086   7.792  10.801   7.810 -0.0566  0.7184 -0.4556
    1BTD    C82 6087   7.873  10.727   7.705  0.3561  0.1705  0.5290
    2TTP     S1 6088   7.712  10.435   7.330  0.2098  0.1767 -0.1069
    2TTP     S5 6089   7.306  10.477   7.465  0.2450 -0.4060  0.1898
    2TTP     C1 6090   7.316  10.531   7.291 -0.0761 -0.9289  0.0041
    2TTP     C2 6091   7.442  10.521   7.240 -0.1057 -0.7799 -0.0983
    2TTP     C3 6092   7.535  10.471   7.335  0.1241 -0.2472 -0.0339
    2TTP     C4 6093   7.703  10.381   7.504  0.5310  0.6995  0.0788
    2TTP    C17 6094   7.577  10.391   7.556  0.5607  0.5504  0.1814
    2TTP    C18 6095   7.483  10.441   7.460  0.3313  0.0179  0.1171
    2TTP    C32 6096   7.496  10.523   7.089  0.3374 -1.2026 -0.1864
    2TTP    C33 6097   7.581  10.648   7.064  0.8535  0.6820  2.4574
    2TTP    C34 6098   7.542  10.674   6.922 -0.2099  0.2364 -0.4223
    2TTP    C35 6099   7.536  10.816   6.889 -0.9455  0.7384  0.3055
    2TTP    C36 6100   7.485  10.927   6.995 -0.0477  1.5835  0.2952
    2TTP    C37 6101   7.368  11.029   7.001 -0.9849  1.2668  0.4486
    2TTP    C38 6102   7.232  10.957   6.965 -1.1060 -0.5304  0.4868
    2TTP    C39 6103   7.228  10.917   6.809  1.4906  0.7539 -0.7967
    2TTP    C40 6104   7.253  11.027   6.712 -0.3384  0.9273 -0.6467
    2TTP    C41 6105   7.172  11.048   6.583  0.2606  0.3769 -0.3755
    2TTP    C42 6106   7.215  11.162   6.503 -1.2727 -0.0332 -0.2494
    3TTP     S1 6107   8.115  10.207   8.089 -0.0234 -0.4945 -0.0787
    3TTP     S5 6108   7.809  10.353   8.354  0.3165 -0.4051  0.2673
    3TTP     C1 6109   7.961  10.325   8.450  0.5030 -0.1737  0.0444
    3TTP     C2 6110   8.064  10.278   8.374  0.4091 -0.1876 -0.0753
    3TTP     C3 6111   8.027  10.263   8.237  0.1867 -0.3815  0.0041
    3TTP     C4 6112   7.964  10.236   7.992 -0.2097 -0.7260  0.1441
    3TTP    C17 6113   7.860  10.282   8.069 -0.1159 -0.7120  0.2639
    3TTP    C18 6114   7.897  10.297   8.206  0.1069 -0.5181  0.1843
    3TTP    C32 6115   8.219  10.281   8.393 -0.0792 -0.6175  0.5562
    3TTP    C33 6116   8.299  10.381   8.299  0.9004  0.6847 -0.0319
    3TTP    C34 6117   8.419  10.331   8.225 -0.8390  1.0030  0.1758
    3TTP    C35 6118   8.550  10.356   8.283 -1.1686  0.4268 -0.7242
    3TTP    C36 6119   8.609  10.492   8.288 -0.4681 -0.5249 -0.5334
    3TTP    C37 6120   8.734  10.503   8.373  0.3792  0.4993  1.9481
    3TTP    C38 6121   8.855  10.574   8.317  0.3665 -0.3042  0.0914
    3TTP    C39 6122   9.003  10.535   8.325  0.0763 -0.4856 -1.1360
    3TTP    C40 6123   9.032  10.471   8.454  0.3237  1.1182 -0.6104
    3TTP    C41 6124   9.188  10.423   8.464  1.0129 -0.1615 -0.1745
    3TTP    C42 6125   9.194  10.283   8.533 -0.2529  0.3948 -0.7540
    4FIC     F1 6126   6.502  10.628   7.428  0.0546  0.6535 -0.3999
    4FIC     F2 6127   6.473  10.684   7.163  0.2385 -0.0741 -0.5789
    4FIC     O1 6128   7.037  10.547   7.457  0.0329  0.7141  0.1906
    4FIC     N5 6129   6.812  10.707   6.803  0.4874 -1.0774 -0.4147
    4FIC     N6 6130   7.235  10.632   6.879  0.4336 -0.8836  0.0829
    4FIC    C19 6131   7.199  10.572   7.214  0.2010  0.0402  0.2296
    4FIC    C20 6132   7.065  10.590   7.217  0.1993  0.0534  0.0880
    4FIC    C21 6133   6.989  10.575   7.346  0.1101  0.4101  0.0776
    4FIC    C22 6134   6.847  10.601   7.314  0.1328  0.3269 -0.0925
    4FIC    C23 6135   6.739  10.600   7.401  0.0726  0.5708 -0.1606
    4FIC    C24 6136   6.614  10.628   7.348  0.1101  0.4278 -0.3246
    4FIC    C25 6137   6.599  10.656   7.211  0.2049  0.0528 -0.4165
    4FIC    C26 6138   6.707  10.658   7.124  0.2654 -0.1917 -0.3493
    4FIC    C27 6139   6.834  10.630   7.176  0.2286 -0.0525 -0.1833
    4FIC    C28 6140   6.967  10.624   7.111  0.2732 -0.2353 -0.0761
    4FIC    C29 6141   6.995  10.647   6.978  0.3655 -0.6025 -0.1205
    4FIC    C30 6142   6.894  10.679   6.883  0.4323 -0.8624 -0.2822
    4FIC    C31 6143   7.127  10.638   6.925  0.4023 -0.7548 -0.0085
    5FIC     F1 6144   7.486  10.450   9.111  0.1699  0.0486  0.4694
    5FIC     F2 6145   7.714  10.497   9.251  0.2611  0.1187  0.2971
    5FIC     O1 6146   7.688  10.324   8.625 -0.1611  0.2112  0.2890
    5FIC     N5 6147   8.187  10.474   9.106  0.1564  0.3355 -0.0796
    5FIC     N6 6148   8.299  10.366   8.698 -0.1204  0.4487 -0.1857
    5FIC    C19 6149   7.978  10.324   8.586 -0.1914  0.3362  0.0602
    5FIC    C20 6150   7.918  10.354   8.703 -0.1117  0.2925  0.1123
    5FIC    C21 6151   7.768  10.351   8.715 -0.1013  0.2294  0.2298
    5FIC    C22 6152   7.737  10.388   8.854 -0.0069  0.1934  0.2606
    5FIC    C23 6153   7.611  10.400   8.913  0.0345  0.1326  0.3619
    5FIC    C24 6154   7.607  10.437   9.047  0.1248  0.1089  0.3718
    5FIC    C25 6155   7.725  10.461   9.119  0.1716  0.1449  0.2826
    5FIC    C26 6156   7.850  10.449   9.061  0.1307  0.2060  0.1817
    5FIC    C27 6157   7.857  10.412   8.925  0.0395  0.2310  0.1700
    5FIC    C28 6158   7.973  10.392   8.835 -0.0232  0.2933  0.0756
    5FIC    C29 6159   8.106  10.406   8.868 -0.0029  0.3421 -0.0272
    5FIC    C30 6160   8.150  10.443   8.999  0.0849  0.3383 -0.0553
    5FIC    C31 6161   8.211  10.384   8.774 -0.0677  0.4003 -0.1137
    1BTD     S2 6162   0.756   4.657   7.565  0.0741 -0.1431 -0.1327
    1BTD     N1 6163   0.724   4.756   7.418 -0.0830 -0.5816 -0.4008
    1BTD     N2 6164   0.934   4.656   7.543  0.1050  0.3809  0.0755
    1BTD     N3 6165   1.240   4.835   7.234 -0.1157  0.6564  0.0153
    1BTD     N4 6166   0.980   4.958   7.081 -0.3473 -0.5295 -0.5714
    1BTD     C5 6167   0.861   4.860   7.244 -0.2182 -0.5400 -0.4829
    1BTD     C6 6168   0.841   4.782   7.364 -0.1033 -0.3281 -0.3253
    1BTD     C7 6169   0.959   4.726   7.433  0.0019  0.2106 -0.0587
    1BTD     C8 6170   1.091   4.751   7.380 -0.0131  0.5105  0.0371
    1BTD    C15 6171   1.105   4.827   7.262 -0.1273  0.2868 -0.1243
    1BTD    C16 6172   0.991   4.881   7.195 -0.2286 -0.2322 -0.3810
    1BTD    C43 6173   1.068   5.071   7.061 -0.2031 -1.1825 -1.1195
    1BTD    C44 6174   1.024   5.200   7.136 -1.6781 -0.4382 -1.5048
    1BTD    C45 6175   1.022   5.211   7.297 -0.3375 -0.5858 -0.5781
    1BTD    C46 6176   0.902   5.259   7.355  1.3605 -0.4851  0.1516
    1BTD    C47 6177   1.050   5.332   7.057  0.6288 -1.0097  0.1384
    1BTD    C48 6178   1.043   5.329   6.904  0.1089 -0.2375 -1.4285
    1BTD    C49 6179   0.895   5.354   6.858 -1.1637 -0.5675  0.4892
    1BTD    C50 6180   0.896   5.393   6.710 -0.3643  0.1159 -0.8373
    1BTD    C75 6181   1.305   4.866   7.108  0.6973 -0.6080  1.1347
    1BTD    C76 6182   1.440   4.944   7.107  1.0030 -0.3678  1.1386
    1BTD    C77 6183   1.517   4.930   6.967 -0.6141 -1.5802 -0.7420
    1BTD    C78 6184   1.619   4.825   6.964 -0.4623 -0.4602 -0.0632
    1BTD    C79 6185   1.411   5.093   7.152  0.2917  0.2421  0.1693
    1BTD    C80 6186   1.508   5.125   7.262 -0.0100  0.7522 -0.2240
    1BTD    C81 6187   1.464   5.238   7.345  1.7117 -0.7442 -0.4158
    1BTD    C82 6188   1.576   5.275   7.467  0.8435 -0.0662  0.7044
    2TTP     S1 6189   0.592   4.905   7.127  0.1858  0.4332 -0.2513
    2TTP     S5 6190   0.785   5.035   6.765  0.0013  1.1312 -0.1025
    2TTP     C1 6191   0.608   5.014   6.732  0.0614  0.7132 -0.1790
    2TTP     C2 6192   0.538   4.973   6.842  0.1218  0.4730 -0.2294
    2TTP     C3 6193   0.622   4.956   6.956  0.1230  0.6105 -0.2095
    2TTP     C4 6194   0.770   4.925   7.160  0.1258  0.8514 -0.1746
    2TTP    C17 6195   0.840   4.967   7.050  0.0653  1.0915 -0.1245
    2TTP    C18 6196   0.756   4.984   6.936  0.0642  0.9540 -0.1444
    2TTP    C32 6197   0.392   4.952   6.851  0.1754 -0.1119 -0.6056
    2TTP    C33 6198   0.292   5.017   6.952  0.3237  1.1714 -0.4140
    2TTP    C34 6199   0.299   5.153   6.998  0.0438 -0.3894  0.7735
    2TTP    C35 6200   0.292   5.254   6.877  0.9501  0.5098  1.2810
    2TTP    C36 6201   0.254   5.392   6.928 -0.7109 -0.0149  0.4271
    2TTP    C37 6202   0.256   5.508   6.828  0.4607 -0.3357  0.9494
    2TTP    C38 6203   0.260   5.646   6.876 -0.6171 -0.2630  0.7260
    2TTP    C39 6204   0.278   5.733   6.738 -0.1338  1.1516 -0.1920
    2TTP    C40 6205   0.302   5.891   6.738  0.4089 -0.1288 -0.7864
    2TTP    C41 6206   0.307   5.969   6.884 -1.4742  0.4710 -0.2395
    2TTP    C42 6207   0.357   6.111   6.883 -0.1152 -0.7455  1.9498
    3TTP     S1 6208   1.284   4.562   7.521  0.4401 -0.4303 -0.4562
    3TTP     S5 6209   1.598   4.661   7.245  0.7979  0.5472  0.2896
    3TTP     C1 6210   1.662   4.538   7.363  0.6319  0.0974 -0.0834
    3TTP     C2 6211   1.569   4.500   7.455  0.5116 -0.2310 -0.3359
    3TTP     C3 6212   1.444   4.567   7.436  0.5462 -0.1392 -0.2434
    3TTP     C4 6213   1.221   4.685   7.403  0.6061  0.0196 -0.0830
    3TTP    C17 6214   1.314   4.723   7.311  0.7263  0.3481  0.1692
    3TTP    C18 6215   1.439   4.656   7.330  0.6917  0.2559  0.0770
    3TTP    C32 6216   1.599   4.440   7.592 -0.6673 -0.6497  0.9859
    3TTP    C33 6217   1.546   4.487   7.721  0.2970  2.1783 -0.3053
    3TTP    C34 6218   1.553   4.398   7.836 -0.3808 -0.5119  0.3035
    3TTP    C35 6219   1.451   4.293   7.840  0.2788  0.3054 -0.1678
    3TTP    C36 6220   1.492   4.153   7.870 -1.4590  0.1072  0.8040
    3TTP    C37 6221   1.631   4.081   7.924 -1.3326  0.1081 -0.5414
    3TTP    C38 6222   1.637   3.987   8.041  0.5158  0.5413 -0.9405
    3TTP    C39 6223   1.542   4.024   8.167 -0.2205 -0.4614  0.3270
    3TTP    C40 6224   1.625   4.071   8.291  1.7628 -0.1127  1.4394
    3TTP    C41 6225   1.577   4.209   8.325  0.6416  0.4387  0.2637
    3TTP    C42 6226   1.683   4.266   8.419  1.4652  1.2760 -1.1759
    4FIC     F1 6227   0.891   4.916   5.965 -0.2451 -0.1823 -0.3201
    4FIC     F2 6228   0.646   4.989   5.871  0.0569  1.0487 -0.1982
    4FIC     O1 6229   0.810   4.950   6.499 -0.1455 -0.9413 -0.2555
    4FIC     N5 6230   0.236   5.116   6.117  0.5621  2.2773  0.0234
    4FIC     N6 6231   0.222   5.127   6.553  0.5791  1.4361  0.0494
    4FIC    C19 6232   0.547   5.030   6.599  0.1785 -0.0348 -0.1159
    4FIC    C20 6233   0.577   5.019   6.469  0.1416  0.1080 -0.1371
    4FIC    C21 6234   0.715   4.977   6.425 -0.0278 -0.3836 -0.2096
    4FIC    C22 6235   0.713   4.975   6.278 -0.0257 -0.0724 -0.2151
    4FIC    C23 6236   0.818   4.942   6.192 -0.1545 -0.3384 -0.2725
    4FIC    C24 6237   0.792   4.948   6.056 -0.1232  0.0500 -0.2654
    4FIC    C25 6238   0.666   4.985   6.007  0.0325  0.6840 -0.2025
    4FIC    C26 6239   0.561   5.018   6.092  0.1616  0.9525 -0.1448
    4FIC    C27 6240   0.585   5.013   6.231  0.1323  0.5666 -0.1513
    4FIC    C28 6241   0.496   5.041   6.346  0.2412  0.7027 -0.1006
    4FIC    C29 6242   0.365   5.081   6.341  0.4034  1.2715 -0.0331
    4FIC    C30 6243   0.294   5.100   6.218  0.4901  1.8225 -0.0023
    4FIC    C31 6244   0.287   5.106   6.458  0.4991  1.3589  0.0118
    5FIC     F1 6245   2.405   4.606   7.003 -0.0312  0.3413  0.1410
    5FIC     F2 6246   2.485   4.385   7.140 -0.2185 -0.2176 -0.6334
    5FIC     O1 6247   1.897   4.659   7.182  0.2078  0.5051  0.7770
    5FIC     N5 6248   2.238   4.106   7.465 -0.3176 -0.9046 -1.2933
    5FIC     N6 6249   1.825   4.192   7.577 -0.0930 -0.6640 -0.6402
    5FIC    C19 6250   1.793   4.467   7.376  0.1138  0.0290  0.2631
    5FIC    C20 6251   1.918   4.462   7.326  0.0609  0.0098  0.1333
    5FIC    C21 6252   1.964   4.565   7.226  0.1148  0.2639  0.4157
    5FIC    C22 6253   2.103   4.531   7.192  0.0353  0.1696  0.1788
    5FIC    C23 6254   2.188   4.597   7.104  0.0483  0.3308  0.3108
    5FIC    C24 6255   2.316   4.546   7.088 -0.0385  0.1948  0.0309
    5FIC    C25 6256   2.357   4.432   7.159 -0.1349 -0.0932 -0.3679
    5FIC    C26 6257   2.273   4.365   7.248 -0.1484 -0.2551 -0.5016
    5FIC    C27 6258   2.143   4.416   7.265 -0.0615 -0.1212 -0.2227
    5FIC    C28 6259   2.031   4.369   7.350 -0.0496 -0.2309 -0.2663
    5FIC    C29 6260   2.031   4.261   7.434 -0.1263 -0.5037 -0.6114
    5FIC    C30 6261   2.145   4.176   7.451 -0.2312 -0.7231 -0.9851
    5FIC    C31 6262   1.918   4.223   7.512 -0.1075 -0.5903 -0.6253
    1BTD     S2 6263  10.670   8.660   1.427 -0.0543 -0.0466  0.0077
    1BTD     N1 6264  10.784   8.684   1.564 -0.0455  0.4144 -0.0785
    1BTD     N2 6265  10.799   8.630   1.306 -0.0572 -0.3254  0.0733
    1BTD     N3 6266  11.268   8.612   1.306 -0.0467 -0.0610  0.0513
    1BTD     N4 6267  11.249   8.679   1.624 -0.0324  0.8502 -0.1357
    1BTD     C5 6268  11.027   8.681   1.591 -0.0386  0.6311 -0.1061
    1BTD     C6 6269  10.906   8.669   1.515 -0.0451  0.3405 -0.0551
    1BTD     C7 6270  10.914   8.639   1.370 -0.0517 -0.0737  0.0298
    1BTD     C8 6271  11.043   8.621   1.310 -0.0517 -0.1762  0.0595
    1BTD    C15 6272  11.159   8.633   1.388 -0.0454  0.1177  0.0075
    1BTD    C16 6273  11.151   8.663   1.528 -0.0389  0.5166 -0.0743
    1BTD    C43 6274  11.382   8.606   1.625  0.0517 -1.7910 -1.5645
    1BTD    C44 6275  11.506   8.659   1.708  0.0351 -0.3073  0.1593
    1BTD    C45 6276  11.631   8.590   1.693 -0.7776 -0.0429  0.2131
    1BTD    C46 6277  11.643   8.444   1.721 -0.9726  0.6766  0.3076
    1BTD    C47 6278  11.532   8.809   1.655 -1.9284  1.1172 -0.8132
    1BTD    C48 6279  11.643   8.886   1.727  0.0758 -0.2233 -0.1356
    1BTD    C49 6280  11.698   9.014   1.680  0.0030  0.2252 -0.7911
    1BTD    C50 6281  11.850   9.036   1.684  0.5585  0.4897  0.0582
    1BTD    C75 6282  11.386   8.682   1.301 -0.1792  0.9263  0.2216
    1BTD    C76 6283  11.541   8.664   1.246  0.6536 -0.5412 -0.9783
    1BTD    C77 6284  11.607   8.808   1.212 -0.4477 -0.9083 -1.0652
    1BTD    C78 6285  11.678   8.860   1.343 -0.6888  0.2355  0.3272
    1BTD    C79 6286  11.631   8.549   1.301  0.5410 -0.4584 -0.3745
    1BTD    C80 6287  11.756   8.504   1.228 -0.6263  0.4785 -1.2086
    1BTD    C81 6288  11.885   8.595   1.235  0.3960 -0.6912  0.0276
    1BTD    C82 6289  11.993   8.558   1.330 -1.3436  0.0733 -0.3949
    2TTP     S1 6290  10.951   8.719   1.875 -0.3132  0.1829 -0.0297
    2TTP     S5 6291  11.365   8.678   1.985 -0.4706  0.3304  0.6282
    2TTP     C1 6292  11.266   8.691   2.137 -0.6783  0.6748  0.4659
    2TTP     C2 6293  11.132   8.704   2.112 -0.6421  0.6495  0.2532
    2TTP     C3 6294  11.103   8.705   1.972 -0.4487  0.3569  0.2107
    2TTP     C4 6295  11.050   8.706   1.723 -0.1056 -0.1614  0.1325
    2TTP    C17 6296  11.184   8.693   1.748 -0.1419 -0.1362  0.3452
    2TTP    C18 6297  11.213   8.692   1.888 -0.3352  0.1562  0.3878
    2TTP    C32 6298  11.031   8.727   2.229 -0.3016  0.6043  0.6499
    2TTP    C33 6299  10.973   8.866   2.222 -0.2013 -0.3367  0.2888
    2TTP    C34 6300  10.838   8.850   2.275  0.5926  1.5286 -0.1498
    2TTP    C35 6301  10.748   8.970   2.307  0.2624 -0.2212  0.9450
    2TTP    C36 6302  10.778   9.076   2.407  1.0577 -1.2426  0.1293
    2TTP    C37 6303  10.785   9.013   2.550  0.3811 -0.3455  0.9555
    2TTP    C38 6304  10.845   9.095   2.668  0.7196  0.2188 -1.6034
    2TTP    C39 6305  10.992   9.145   2.669 -0.7334 -1.0357 -0.8667
    2TTP    C40 6306  11.072   9.171   2.547  0.4680  0.7199  0.3032
    2TTP    C41 6307  11.196   9.238   2.584 -1.4331  0.7335 -0.5227
    2TTP    C42 6308  11.275   9.288   2.465  0.3024  0.2913  0.9415
    3TTP     S1 6309  11.007   8.539   1.019  0.1918  0.1264 -0.6104
    3TTP     S5 6310  11.421   8.424   1.014  0.1671 -0.0024  0.1161
    3TTP     C1 6311  11.342   8.361   0.863  0.3827 -0.0893  0.0383
    3TTP     C2 6312  11.209   8.393   0.855  0.4029 -0.0548 -0.1906
    3TTP     C3 6313  11.165   8.468   0.969  0.2487  0.0415 -0.3128
    3TTP     C4 6314  11.086   8.601   1.170 -0.0241  0.2131 -0.5326
    3TTP    C17 6315  11.219   8.570   1.178 -0.0443  0.1782 -0.3036
    3TTP    C18 6316  11.262   8.495   1.064  0.1094  0.0820 -0.1814
    3TTP    C32 6317  11.104   8.338   0.755 -0.5159 -0.2707 -0.8357
    3TTP    C33 6318  11.010   8.438   0.692  0.5692 -1.0724  0.6499
    3TTP    C34 6319  10.860   8.395   0.694  0.7118  0.4263  0.3631
    3TTP    C35 6320  10.770   8.461   0.587  0.4252  0.4182  0.2175
    3TTP    C36 6321  10.751   8.355   0.480  0.8670 -0.8768  0.2873
    3TTP    C37 6322  10.657   8.405   0.382  0.2708 -0.0288 -0.9140
    3TTP    C38 6323  10.508   8.349   0.373  0.3340 -0.2411 -0.7171
    3TTP    C39 6324  10.396   8.421   0.289 -1.4530 -0.8683 -0.0402
    3TTP    C40 6325  10.409   8.571   0.235  0.3027 -0.4836  0.8775
    3TTP    C41 6326  10.275   8.658   0.261  0.4298 -1.1208  0.0328
    3TTP    C42 6327  10.163   8.650   0.162 -0.8132 -0.9256 -0.4687
    4FIC     F1 6328  12.015   8.560   2.453 -0.1424 -0.3409 -0.0362
    4FIC     F2 6329  11.927   8.659   2.691 -0.1377 -0.6192  0.0817
    4FIC     O1 6330  11.564   8.589   2.156 -0.1365  0.0513 -0.0087
    4FIC     N5 6331  11.477   8.821   2.821 -0.1268 -0.7391  0.2707
    4FIC     N6 6332  11.143   8.823   2.540 -0.1231 -0.3765  0.2685
    4FIC    C19 6333  11.319   8.693   2.277 -0.1300 -0.0750  0.1137
    4FIC    C20 6334  11.436   8.682   2.343 -0.1316 -0.1628  0.1022
    4FIC    C21 6335  11.557   8.627   2.274 -0.1350 -0.0896  0.0380
    4FIC    C22 6336  11.666   8.629   2.373 -0.1361 -0.2170  0.0418
    4FIC    C23 6337  11.798   8.588   2.355 -0.1391 -0.2060 -0.0060
    4FIC    C24 6338  11.884   8.599   2.464 -0.1395 -0.3433  0.0088
    4FIC    C25 6339  11.838   8.650   2.586 -0.1371 -0.4863  0.0696
    4FIC    C26 6340  11.706   8.691   2.605 -0.1342 -0.4983  0.1174
    4FIC    C27 6341  11.618   8.681   2.496 -0.1336 -0.3603  0.1034
    4FIC    C28 6342  11.475   8.715   2.482 -0.1308 -0.3331  0.1429
    4FIC    C29 6343  11.394   8.768   2.580 -0.1279 -0.4437  0.2053
    4FIC    C30 6344  11.440   8.797   2.712 -0.1273 -0.6061  0.2410
    4FIC    C31 6345  11.256   8.798   2.558 -0.1253 -0.4063  0.2397
    5FIC     F1 6346  12.028   7.915   0.831  0.0673  0.5952 -0.1017
    5FIC     F2 6347  12.016   7.935   0.560 -0.5278 -0.2631 -0.1466
    5FIC     O1 6348  11.577   8.180   0.972  0.3613  1.0161  0.0512
    5FIC     N5 6349  11.679   8.152   0.271 -1.1738 -1.1966 -0.1020
    5FIC     N6 6350  11.329   8.355   0.436 -0.8241 -0.6952  0.0266
    5FIC    C19 6351  11.406   8.293   0.763 -0.1028  0.3459  0.0628
    5FIC    C20 6352  11.520   8.225   0.738 -0.1535  0.2735  0.0260
    5FIC    C21 6353  11.603   8.170   0.851  0.0966  0.6347  0.0225
    5FIC    C22 6354  11.719   8.103   0.789 -0.0349  0.4456 -0.0213
    5FIC    C23 6355  11.823   8.037   0.854  0.1099  0.6552 -0.0395
    5FIC    C24 6356  11.922   7.982   0.774 -0.0616  0.4088 -0.0817
    5FIC    C25 6357  11.916   7.992   0.634 -0.3681 -0.0336 -0.1048
    5FIC    C26 6358  11.812   8.057   0.569 -0.5140 -0.2441 -0.0868
    5FIC    C27 6359  11.711   8.115   0.648 -0.3441 -0.0002 -0.0441
    5FIC    C28 6360  11.589   8.190   0.612 -0.4293 -0.1237 -0.0159
    5FIC    C29 6361  11.547   8.221   0.484 -0.7100 -0.5288 -0.0267
    5FIC    C30 6362  11.619   8.183   0.367 -0.9640 -0.8945 -0.0681
    5FIC    C31 6363  11.427   8.294   0.458 -0.7711 -0.6177  0.0027
    1BTD     S2 6364   9.925   6.842   7.437  0.3122 -0.1586 -0.0707
    1BTD     N1 6365  10.033   6.803   7.576  0.0572 -0.4113  0.0603
    1BTD     N2 6366   9.796   6.916   7.539  0.3033  0.0221 -0.2128
    1BTD     N3 6367   9.730   6.998   7.997 -0.1755 -0.0663 -0.2655
    1BTD     N4 6368  10.021   6.859   8.042 -0.4790 -0.6003  0.0710
    1BTD     C5 6369  10.023   6.834   7.819 -0.2191 -0.5035  0.0618
    1BTD     C6 6370   9.971   6.846   7.685 -0.0179 -0.3512 -0.0050
    1BTD     C7 6371   9.839   6.909   7.665  0.1202 -0.1087 -0.1580
    1BTD     C8 6372   9.765   6.957   7.779  0.0496 -0.0306 -0.2363
    1BTD    C15 6373   9.820   6.944   7.907 -0.1486 -0.1859 -0.1663
    1BTD    C16 6374   9.948   6.883   7.927 -0.2818 -0.4196 -0.0189
    1BTD    C43 6375   9.960   6.826   8.174 -0.5175  0.5371 -1.1424
    1BTD    C44 6376  10.017   6.804   8.320 -0.1163  0.2452  1.4255
    1BTD    C45 6377  10.069   6.936   8.381 -0.7551 -0.2470 -0.7711
    1BTD    C46 6378  10.121   6.961   8.527  1.0461  0.0711  0.2052
    1BTD    C47 6379   9.921   6.731   8.407  0.0888 -0.8871 -0.8427
    1BTD    C48 6380   9.924   6.580   8.408 -0.7935 -0.0561  0.4382
    1BTD    C49 6381   9.803   6.518   8.478  0.0542  0.2885 -0.2650
    1BTD    C50 6382   9.750   6.369   8.472 -0.3591 -1.1979  0.4871
    1BTD    C75 6383   9.751   7.070   8.124  0.1373  0.2252 -0.4832
    1BTD    C76 6384   9.796   7.216   8.115 -0.2849  1.1312 -0.0661
    1BTD    C77 6385   9.739   7.307   8.204  0.2473  0.3427 -0.3350
    1BTD    C78 6386   9.770   7.303   8.352 -0.3572  0.9861  1.0276
    1BTD    C79 6387   9.936   7.243   8.050  0.1415  0.1082 -1.5398
    1BTD    C80 6388  10.033   7.288   8.161  0.0628 -1.1578  0.2232
    1BTD    C81 6389  10.138   7.373   8.088  0.1596  0.4354 -0.0990
    1BTD    C82 6390  10.210   7.462   8.181  1.1218 -1.1372  0.5175
    2TTP     S1 6391  10.312   6.725   7.828  0.3478 -0.1610  0.2565
    2TTP     S5 6392  10.327   6.811   8.250 -0.5033  0.0640  0.2453
    2TTP     C1 6393  10.491   6.753   8.196 -0.3797  0.0846  0.5965
    2TTP     C2 6394  10.496   6.723   8.063 -0.1099  0.0162  0.6206
    2TTP     C3 6395  10.371   6.744   7.998  0.0095 -0.0546  0.3628
    2TTP     C4 6396  10.148   6.782   7.882  0.2244 -0.1813 -0.0944
    2TTP    C17 6397  10.143   6.812   8.015 -0.0455 -0.1131 -0.1185
    2TTP    C18 6398  10.269   6.791   8.080 -0.1647 -0.0422  0.1392
    2TTP    C32 6399  10.604   6.651   7.979  0.7432 -0.9891  1.1877
    2TTP    C33 6400  10.589   6.503   7.921 -1.3493 -1.3884 -0.4884
    2TTP    C34 6401  10.721   6.480   7.834  0.3380  0.7573  0.2795
    2TTP    C35 6402  10.728   6.345   7.781  0.3730 -0.3419  0.0710
    2TTP    C36 6403  10.881   6.326   7.726  1.5489  0.1760 -0.0678
    2TTP    C37 6404  10.923   6.387   7.594 -0.1844 -0.9576 -0.8821
    2TTP    C38 6405  10.964   6.289   7.486 -0.4743  0.2705  0.2624
    2TTP    C39 6406  11.072   6.320   7.387  0.5202  1.4604  0.3046
    2TTP    C40 6407  11.202   6.220   7.394 -1.4670 -1.2437 -0.5042
    2TTP    C41 6408  11.302   6.265   7.280  1.4876  0.5776  0.3386
    2TTP    C42 6409  11.440   6.212   7.289 -0.7890  1.4647  0.8734
    3TTP     S1 6410   9.496   7.041   7.683 -0.1823 -0.0237  0.0832
    3TTP     S5 6411   9.370   7.097   8.090  0.0761 -0.6255  0.2472
    3TTP     C1 6412   9.226   7.121   7.981  0.0605 -0.2144  0.3543
    3TTP     C2 6413   9.256   7.105   7.849 -0.0198 -0.0044  0.3098
    3TTP     C3 6414   9.394   7.074   7.829 -0.0722 -0.1603  0.1898
    3TTP     C4 6415   9.639   7.017   7.792 -0.1669 -0.4348 -0.0241
    3TTP    C17 6416   9.609   7.033   7.924 -0.0864 -0.6446  0.0204
    3TTP    C18 6417   9.471   7.065   7.944 -0.0339 -0.4885  0.1405
    3TTP    C32 6418   9.180   7.135   7.725  0.0049  1.0375  0.3026
    3TTP    C33 6419   9.135   7.279   7.695 -0.6197  1.3392  0.1000
    3TTP    C34 6420   9.255   7.366   7.609  0.3433  0.3120  0.5761
    3TTP    C35 6421   9.266   7.515   7.637  0.5997  1.1710 -0.2347
    3TTP    C36 6422   9.331   7.551   7.777  0.4831 -0.7723  1.1793
    3TTP    C37 6423   9.213   7.556   7.886 -0.2162 -0.3390  0.3854
    3TTP    C38 6424   9.256   7.608   8.025 -0.1272 -0.2198 -0.3419
    3TTP    C39 6425   9.142   7.657   8.123 -0.2079 -1.0475  1.1110
    3TTP    C40 6426   9.050   7.544   8.180 -1.0066  0.7608 -0.0377
    3TTP    C41 6427   8.933   7.602   8.258  0.0866 -0.2328 -0.2770
    3TTP    C42 6428   8.788   7.575   8.219 -1.4645 -1.2290  1.6984
    4FIC     F1 6429  10.772   6.965   8.933  0.0432  0.3320 -0.5000
    4FIC     F2 6430  10.986   6.801   8.892 -0.3104 -0.1802 -0.3185
    4FIC     O1 6431  10.509   6.907   8.463  0.0622  0.6007 -0.5436
    4FIC     N5 6432  11.106   6.526   8.499 -0.8047 -0.7255 -0.0887
    4FIC     N6 6433  10.857   6.514   8.140 -0.7188 -0.4123 -0.1595
    4FIC    C19 6434  10.620   6.731   8.257 -0.2687  0.2064 -0.3858
    4FIC    C20 6435  10.678   6.752   8.377 -0.2596  0.1589 -0.3819
    4FIC    C21 6436  10.615   6.844   8.478 -0.0846  0.3716 -0.4659
    4FIC    C22 6437  10.703   6.844   8.596 -0.1223  0.2544 -0.4377
    4FIC    C23 6438  10.686   6.914   8.715 -0.0017  0.3756 -0.4921
    4FIC    C24 6439  10.783   6.898   8.813 -0.0685  0.2246 -0.4501
    4FIC    C25 6440  10.893   6.814   8.791 -0.2509 -0.0393 -0.3566
    4FIC    C26 6441  10.910   6.743   8.673 -0.3719 -0.1615 -0.3018
    4FIC    C27 6442  10.813   6.758   8.573 -0.3066 -0.0117 -0.3433
    4FIC    C28 6443  10.802   6.698   8.437 -0.3982 -0.0811 -0.3052
    4FIC    C29 6444  10.891   6.610   8.379 -0.5774 -0.3214 -0.2162
    4FIC    C30 6445  11.009   6.564   8.445 -0.7017 -0.5429 -0.1464
    4FIC    C31 6446  10.872   6.558   8.248 -0.6540 -0.3701 -0.1855
    5FIC     F1 6447   8.828   7.211   8.694  0.1934  1.0591  0.0758
    5FIC     F2 6448   8.592   7.191   8.560  0.1631 -0.9772  0.3593
    5FIC     O1 6449   9.181   7.166   8.287  0.1042  1.8713 -0.0942
    5FIC     N5 6450   8.504   7.132   8.077  0.0556 -3.3253  0.6452
    5FIC     N6 6451   8.828   7.100   7.785 -0.0079 -2.2804  0.4554
    5FIC    C19 6452   9.081   7.131   8.014  0.0436  0.2146  0.1160
    5FIC    C20 6453   9.002   7.143   8.122  0.0672  0.0896  0.1481
    5FIC    C21 6454   9.061   7.161   8.259  0.0980  0.9787  0.0336
    5FIC    C22 6455   8.947   7.171   8.352  0.1180  0.5791  0.1044
    5FIC    C23 6456   8.952   7.188   8.490  0.1488  1.1175  0.0420
    5FIC    C24 6457   8.831   7.194   8.558  0.1634  0.5742  0.1304
    5FIC    C25 6458   8.709   7.184   8.488  0.1476 -0.4749  0.2763
    5FIC    C26 6459   8.704   7.167   8.351  0.1168 -1.0169  0.3393
    5FIC    C27 6460   8.825   7.160   8.281  0.1020 -0.4799  0.2513
    5FIC    C28 6461   8.854   7.143   8.136  0.0701 -0.8222  0.2837
    5FIC    C29 6462   8.761   7.130   8.035  0.0474 -1.7982  0.4153
    5FIC    C30 6463   8.620   7.131   8.059  0.0520 -2.6345  0.5412
    5FIC    C31 6464   8.799   7.114   7.898  0.0172 -2.0578  0.4364
    1BTD     S2 6465   4.808   5.469   6.116 -0.1367  0.1364  0.3721
    1BTD     N1 6466   4.768   5.305   6.055 -0.9353  0.7243 -0.7663
    1BTD     N2 6467   4.680   5.468   6.243  0.6772 -0.5863  1.2140
    1BTD     N3 6468   4.350   5.170   6.391  0.8948 -0.9979  0.8748
    1BTD     N4 6469   4.458   4.968   6.159 -1.0924  0.6171 -1.5655
    1BTD     C5 6470   4.605   5.132   6.112 -0.9934  0.6490 -1.1542
    1BTD     C6 6471   4.668   5.260   6.128 -0.5727  0.3698 -0.4750
    1BTD     C7 6472   4.618   5.352   6.234  0.3301 -0.3638  0.6336
    1BTD     C8 6473   4.509   5.310   6.318  0.7668 -0.7818  1.0077
    1BTD    C15 6474   4.451   5.183   6.298  0.3294 -0.4865  0.3145
    1BTD    C16 6475   4.498   5.095   6.197 -0.5404  0.2204 -0.7536
    1BTD    C43 6476   4.438   4.851   6.245  0.8791 -0.7545  1.2631
    1BTD    C44 6477   4.467   4.850   6.390 -0.8367 -0.0068 -0.7749
    1BTD    C45 6478   4.604   4.932   6.421 -0.8794  0.2451 -0.4599
    1BTD    C46 6479   4.636   4.982   6.556 -0.2757  0.1297 -0.1109
    1BTD    C47 6480   4.447   4.707   6.459 -0.6177 -0.3165 -0.0879
    1BTD    C48 6481   4.537   4.592   6.400  0.0835  0.2826  0.7421
    1BTD    C49 6482   4.533   4.448   6.456 -0.9195  0.2943  0.2996
    1BTD    C50 6483   4.654   4.356   6.415 -0.2931 -1.0845 -0.6903
    1BTD    C75 6484   4.229   5.081   6.370 -0.0531  0.8567  0.1251
    1BTD    C76 6485   4.145   5.042   6.251 -0.5095  0.9651 -0.9077
    1BTD    C77 6486   4.007   4.993   6.303  1.5142 -0.2881  0.4941
    1BTD    C78 6487   3.891   5.087   6.290 -0.0786 -0.3332 -1.0970
    1BTD    C79 6488   4.176   5.134   6.127 -0.7631 -0.8811 -1.2621
    1BTD    C80 6489   4.128   5.278   6.116  0.1215 -0.6542  0.5442
    1BTD    C81 6490   4.001   5.322   6.043  1.2579 -0.1390  0.3556
    1BTD    C82 6491   3.997   5.272   5.905 -0.1374  0.6473  0.4939
    2TTP     S1 6492   4.740   4.969   5.889  0.0013  0.0636 -0.1743
    2TTP     S5 6493   4.465   4.643   5.948  0.1279 -0.0503 -0.2097
    2TTP     C1 6494   4.573   4.603   5.808  0.2930 -0.0932 -0.0699
    2TTP     C2 6495   4.665   4.701   5.781  0.2636 -0.0606 -0.0505
    2TTP     C3 6496   4.652   4.812   5.871  0.1097 -0.0005 -0.1457
    2TTP     C4 6497   4.631   5.009   6.029 -0.1639  0.1063 -0.3141
    2TTP    C17 6498   4.540   4.911   6.056 -0.1346  0.0739 -0.3332
    2TTP    C18 6499   4.552   4.801   5.966  0.0196  0.0139 -0.2383
    2TTP    C32 6500   4.768   4.712   5.660 -0.1560  0.3545 -0.5834
    2TTP    C33 6501   4.730   4.805   5.549  0.0620  0.7443  0.5860
    2TTP    C34 6502   4.601   4.786   5.450 -1.4534 -1.0146 -0.8173
    2TTP    C35 6503   4.479   4.854   5.481 -1.3851 -0.7355 -0.6865
    2TTP    C36 6504   4.380   4.766   5.560 -0.6933 -0.5570  1.1684
    2TTP    C37 6505   4.272   4.836   5.646 -0.6964  0.8245 -0.0451
    2TTP    C38 6506   4.157   4.729   5.670 -0.7003 -0.2500  0.0876
    2TTP    C39 6507   4.031   4.806   5.679  0.1303 -1.8713 -0.1932
    2TTP    C40 6508   3.921   4.705   5.681  0.5878  0.4672  0.0646
    2TTP    C41 6509   3.864   4.652   5.803 -0.0671 -0.5808 -1.9223
    2TTP    C42 6510   3.832   4.510   5.819  0.7951  0.4751 -0.2801
    3TTP     S1 6511   4.431   5.536   6.499 -0.1638  0.0085 -0.5266
    3TTP     S5 6512   4.107   5.298   6.653  0.0042  0.1088 -0.0148
    3TTP     C1 6513   4.105   5.460   6.737  0.1712  0.1184 -0.0277
    3TTP     C2 6514   4.205   5.543   6.694  0.1295  0.0880 -0.1864
    3TTP     C3 6515   4.286   5.482   6.594 -0.0364  0.0561 -0.3035
    3TTP     C4 6516   4.433   5.375   6.416 -0.3308 -0.0010 -0.5136
    3TTP    C17 6517   4.333   5.291   6.459 -0.2889  0.0294 -0.3549
    3TTP    C18 6518   4.251   5.353   6.559 -0.1231  0.0614 -0.2376
    3TTP    C32 6519   4.225   5.673   6.733 -0.3019 -1.1354 -0.9335
    3TTP    C33 6520   4.170   5.773   6.627 -0.4341 -0.4553  0.3604
    3TTP    C34 6521   4.131   5.909   6.678  0.8365  0.2552  1.4058
    3TTP    C35 6522   3.972   5.904   6.705 -0.2272 -0.4948 -0.4914
    3TTP    C36 6523   3.858   5.995   6.634 -0.6072  0.2268 -0.6739
    3TTP    C37 6524   3.879   6.029   6.487 -0.2242  0.4700 -0.4065
    3TTP    C38 6525   3.733   6.066   6.443  0.3831 -0.1811 -0.4411
    3TTP    C39 6526   3.727   6.073   6.295  0.4666 -1.4988  0.2088
    3TTP    C40 6527   3.759   6.192   6.195 -0.0642 -0.2414  0.9451
    3TTP    C41 6528   3.665   6.309   6.177 -0.7303 -1.0240 -0.1954
    3TTP    C42 6529   3.714   6.454   6.166  0.6850  0.0262 -0.0764
    4FIC     F1 6530   4.596   3.856   6.123 -0.7570  0.2570  0.5738
    4FIC     F2 6531   4.505   3.762   5.885  0.3345 -0.0778  0.2820
    4FIC     O1 6532   4.655   4.382   6.009 -0.6919  0.1791  0.2480
    4FIC     N5 6533   4.418   4.000   5.460  1.9500 -0.6146 -0.3695
    4FIC     N6 6534   4.482   4.430   5.419  1.7809 -0.6082 -0.5654
    4FIC    C19 6535   4.589   4.479   5.740  0.3738 -0.1685 -0.1466
    4FIC    C20 6536   4.578   4.350   5.778  0.3150 -0.1358 -0.0533
    4FIC    C21 6537   4.613   4.308   5.918 -0.2469  0.0465  0.1495
    4FIC    C22 6538   4.590   4.163   5.926 -0.1626  0.0355  0.2071
    4FIC    C23 6539   4.609   4.079   6.036 -0.5625  0.1713  0.3828
    4FIC    C24 6540   4.579   3.945   6.019 -0.3832  0.1292  0.4039
    4FIC    C25 6541   4.533   3.896   5.896  0.1793 -0.0434  0.2532
    4FIC    C26 6542   4.514   3.979   5.786  0.5804 -0.1794  0.0778
    4FIC    C27 6543   4.543   4.115   5.801  0.4070 -0.1392  0.0536
    4FIC    C28 6544   4.534   4.229   5.706  0.7229 -0.2515 -0.1122
    4FIC    C29 6545   4.492   4.222   5.575  1.2857 -0.4289 -0.2872
    4FIC    C30 6546   4.451   4.100   5.512  1.6490 -0.5304 -0.3318
    4FIC    C31 6547   4.487   4.337   5.490  1.5548 -0.5264 -0.4392
    5FIC     F1 6548   3.468   5.098   7.113 -0.1616  0.0136 -0.3370
    5FIC     F2 6549   3.529   5.242   7.336 -0.6557  0.2981 -0.3825
    5FIC     O1 6550   3.841   5.282   6.767  0.3569 -0.1402  0.1379
    5FIC     N5 6551   3.883   5.580   7.409 -0.9964  0.5974 -0.1096
    5FIC     N6 6552   4.162   5.695   7.094 -0.4917  0.4200  0.2705
    5FIC    C19 6553   4.032   5.485   6.856  0.0691  0.0770  0.2630
    5FIC    C20 6554   3.936   5.433   6.935 -0.0421  0.1045  0.1452
    5FIC    C21 6555   3.841   5.329   6.881  0.1188 -0.0126  0.0873
    5FIC    C22 6556   3.750   5.295   6.992 -0.0616  0.0535 -0.0402
    5FIC    C23 6557   3.645   5.203   6.990 -0.0026 -0.0126 -0.1297
    5FIC    C24 6558   3.573   5.188   7.107 -0.2063  0.0722 -0.2441
    5FIC    C25 6559   3.604   5.262   7.222 -0.4606  0.2188 -0.2673
    5FIC    C26 6560   3.709   5.353   7.224 -0.5209  0.2855 -0.1786
    5FIC    C27 6561   3.783   5.371   7.107 -0.3172  0.2012 -0.0622
    5FIC    C28 6562   3.899   5.459   7.076 -0.3153  0.2385  0.0510
    5FIC    C29 6563   3.960   5.547   7.163 -0.5266  0.3716  0.0653
    5FIC    C30 6564   3.917   5.565   7.298 -0.7841  0.4953 -0.0310
    5FIC    C31 6565   4.071   5.628   7.124 -0.5062  0.3974  0.1782
    1BTD     S2 6566   9.699   0.061   1.203 -0.1881  0.4237  0.6371
    1BTD     N1 6567   9.681  -0.034   1.355  0.1249  0.8278  0.9270
    1BTD     N2 6568   9.535   0.134   1.213 -0.4470 -0.1075  0.3914
    1BTD     N3 6569   9.170   0.115   1.508 -0.4101 -0.4605  0.4143
    1BTD     N4 6570   9.351  -0.092   1.684  0.2949  0.6919  1.0742
    1BTD     C5 6571   9.507  -0.062   1.525  0.2053  0.7429  0.9959
    1BTD     C6 6572   9.561  -0.007   1.403  0.0253  0.5597  0.8307
    1BTD     C7 6573   9.479   0.087   1.324 -0.2952  0.0362  0.5309
    1BTD     C8 6574   9.347   0.122   1.369 -0.4191 -0.2779  0.4113
    1BTD    C15 6575   9.298   0.065   1.489 -0.2351 -0.0825  0.5810
    1BTD    C16 6576   9.377  -0.026   1.565  0.0740  0.4219  0.8699
    1BTD    C43 6577   9.258  -0.071   1.809 -1.2333  0.7857  0.6090
    1BTD    C44 6578   9.319   0.017   1.922  0.4260 -0.3866 -0.3495
    1BTD    C45 6579   9.396   0.164   1.887  0.6226  0.7470 -0.3274
    1BTD    C46 6580   9.467   0.208   2.007 -0.9256  0.4124  0.5743
    1BTD    C47 6581   9.231   0.005   2.050  1.0150 -0.2155  0.1638
    1BTD    C48 6582   9.073   0.046   2.063 -0.9426 -0.0920 -0.4499
    1BTD    C49 6583   8.948   0.034   1.986 -0.1652 -1.2127  0.0381
    1BTD    C50 6584   8.881  -0.112   1.981 -1.4888 -0.9010  0.0094
    1BTD    C75 6585   9.053   0.069   1.600 -0.7403  0.1069  0.5609
    1BTD    C76 6586   8.955  -0.014   1.528  0.4144  0.1998 -0.5351
    1BTD    C77 6587   9.000  -0.143   1.452  0.6748  0.6626  0.5803
    1BTD    C78 6588   9.091  -0.252   1.508 -0.7834  1.5753 -0.3228
    1BTD    C79 6589   8.822   0.047   1.470 -0.4455 -1.7707  0.9415
    1BTD    C80 6590   8.689   0.004   1.509  0.2608 -0.9636  0.3876
    1BTD    C81 6591   8.591   0.063   1.602  0.0167  0.1324 -0.4350
    1BTD    C82 6592   8.457  -0.001   1.581 -1.0059  0.5717  0.6095
    2TTP     S1 6593   9.631  -0.314   1.576  0.5490  0.1894  0.5209
    2TTP     S5 6594   9.331  -0.404   1.871  0.0033 -0.1318 -0.1257
    2TTP     C1 6595   9.425  -0.556   1.835  0.2647 -0.0247  0.0983
    2TTP     C2 6596   9.523  -0.537   1.742  0.4487  0.0808  0.3112
    2TTP     C3 6597   9.527  -0.402   1.695  0.3898  0.0808  0.3050
    2TTP     C4 6598   9.537  -0.163   1.611  0.2875  0.0823  0.2968
    2TTP    C17 6599   9.439  -0.181   1.705  0.1035 -0.0235  0.0839
    2TTP    C18 6600   9.434  -0.316   1.751  0.1624 -0.0234  0.0901
    2TTP    C32 6601   9.600  -0.639   1.663 -0.4749  0.3382 -0.1540
    2TTP    C33 6602   9.711  -0.708   1.732  0.6184  0.5400 -0.2662
    2TTP    C34 6603   9.777  -0.796   1.631  0.0404  2.0507 -0.6614
    2TTP    C35 6604   9.794  -0.943   1.695 -1.0834 -0.5406  1.1376
    2TTP    C36 6605   9.754  -0.987   1.840 -0.2930  0.4598  0.2944
    2TTP    C37 6606   9.867  -0.957   1.941  0.2180  0.0109  0.6624
    2TTP    C38 6607   9.833  -0.890   2.067 -0.5347  0.0270 -2.0117
    2TTP    C39 6608   9.752  -0.985   2.169 -2.0538  1.9415  0.0648
    2TTP    C40 6609   9.685  -0.921   2.280  0.2707  1.0211  0.1400
    2TTP    C41 6610   9.541  -0.898   2.237 -0.5844  0.0513  0.7851
    2TTP    C42 6611   9.481  -0.802   2.333  0.4230  0.8906  0.0870
    3TTP     S1 6612   9.226   0.332   1.199 -0.4511 -0.4705  0.0960
    3TTP     S5 6613   8.907   0.394   1.481  0.1891  0.9966  0.5184
    3TTP     C1 6614   8.888   0.512   1.344  0.1171  0.5672  0.1514
    3TTP     C2 6615   8.985   0.500   1.249 -0.0849  0.0888 -0.0007
    3TTP     C3 6616   9.079   0.397   1.281 -0.1900  0.0442  0.1672
    3TTP     C4 6617   9.246   0.213   1.336 -0.3791 -0.0411  0.4630
    3TTP    C17 6618   9.148   0.225   1.431 -0.1770  0.4373  0.6151
    3TTP    C18 6619   9.055   0.329   1.399 -0.0720  0.4819  0.4472
    3TTP    C32 6620   9.032   0.591   1.142 -0.3659  0.3701  0.6915
    3TTP    C33 6621   9.010   0.561   0.994 -0.1393 -0.7038 -0.4338
    3TTP    C34 6622   8.883   0.479   0.961  0.3404 -1.0489 -0.1050
    3TTP    C35 6623   8.898   0.319   0.958  0.9504 -0.6845 -0.1798
    3TTP    C36 6624   8.769   0.248   0.898 -0.0896 -1.1369 -0.5322
    3TTP    C37 6625   8.806   0.189   0.766 -0.0706 -0.4006  0.8991
    3TTP    C38 6626   8.692   0.176   0.661  0.8693  1.0155 -0.7902
    3TTP    C39 6627   8.643   0.291   0.583 -0.5872  0.2764  0.9658
    3TTP    C40 6628   8.675   0.304   0.429  0.3962  0.1934  0.7284
    3TTP    C41 6629   8.651   0.433   0.358  0.0055  0.1925 -0.8031
    3TTP    C42 6630   8.730   0.462   0.236 -0.4227  0.0661 -0.1050
    4FIC     F1 6631   8.917  -0.779   2.431  0.0002 -0.3116  0.0644
    4FIC     F2 6632   8.896  -1.024   2.314 -0.2630 -0.1562 -0.2183
    4FIC     O1 6633   9.269  -0.537   2.098  0.1636 -0.2635  0.2716
    4FIC     N5 6634   9.117  -1.204   1.910 -0.5243  0.1016 -0.4770
    4FIC     N6 6635   9.396  -0.966   1.673 -0.3433  0.1078 -0.2581
    4FIC    C19 6636   9.374  -0.686   1.868 -0.0294 -0.0981  0.0752
    4FIC    C20 6637   9.286  -0.737   1.957 -0.0603 -0.1161  0.0341
    4FIC    C21 6638   9.237  -0.654   2.072  0.0443 -0.2027  0.1413
    4FIC    C22 6639   9.143  -0.740   2.148 -0.0226 -0.2010  0.0613
    4FIC    C23 6640   9.073  -0.707   2.263  0.0339 -0.2666  0.1151
    4FIC    C24 6641   8.990  -0.804   2.317 -0.0493 -0.2493  0.0185
    4FIC    C25 6642   8.979  -0.931   2.257 -0.1847 -0.1696 -0.1271
    4FIC    C26 6643   9.050  -0.964   2.142 -0.2418 -0.1035 -0.1814
    4FIC    C27 6644   9.134  -0.867   2.086 -0.1590 -0.1197 -0.0854
    4FIC    C28 6645   9.221  -0.870   1.966 -0.1879 -0.0644 -0.1079
    4FIC    C29 6646   9.238  -0.976   1.880 -0.3092  0.0191 -0.2358
    4FIC    C30 6647   9.171  -1.101   1.897 -0.4270  0.0641 -0.3680
    4FIC    C31 6648   9.325  -0.970   1.767 -0.3273  0.0672 -0.2474
    5FIC     F1 6649   8.156   0.600   1.706  0.3347  0.2428 -0.0146
    5FIC     F2 6650   8.111   0.819   1.550  0.3936  0.2308 -0.0487
    5FIC     O1 6651   8.644   0.447   1.529  0.2432  0.0159 -0.0704
    5FIC     N5 6652   8.394   1.023   1.200  0.4129  0.0517 -0.1376
    5FIC     N6 6653   8.784   0.859   1.093  0.3295 -0.1232 -0.1743
    5FIC    C19 6654   8.774   0.601   1.317  0.2671 -0.0762 -0.1229
    5FIC    C20 6655   8.653   0.631   1.368  0.2878 -0.0187 -0.1075
    5FIC    C21 6656   8.593   0.547   1.477  0.2737  0.0261 -0.0808
    5FIC    C22 6657   8.462   0.607   1.508  0.3028  0.0839 -0.0694
    5FIC    C23 6658   8.369   0.564   1.603  0.3023  0.1386 -0.0449
    5FIC    C24 6659   8.252   0.637   1.615  0.3333  0.1873 -0.0384
    5FIC    C25 6660   8.229   0.750   1.534  0.3633  0.1810 -0.0561
    5FIC    C26 6661   8.321   0.793   1.440  0.3643  0.1265 -0.0806
    5FIC    C27 6662   8.440   0.720   1.426  0.3328  0.0767 -0.0874
    5FIC    C28 6663   8.557   0.739   1.336  0.3250  0.0134 -0.1116
    5FIC    C29 6664   8.572   0.839   1.243  0.3479 -0.0107 -0.1334
    5FIC    C30 6665   8.474   0.940   1.219  0.3836  0.0237 -0.1356
    5FIC    C31 6666   8.689   0.849   1.161  0.3376 -0.0724 -0.1558
    1BTD     S2 6667   5.918   8.105   1.305  0.0025  0.0127 -0.0893
    1BTD     N1 6668   5.783   8.195   1.383 -0.4766 -0.3805 -0.4469
    1BTD     N2 6669   5.964   8.240   1.196  0.3711  0.4001  0.5372
    1BTD     N3 6670   5.817   8.678   1.116  0.2571  0.4795  1.1683
    1BTD     N4 6671   5.594   8.623   1.346 -0.7875 -0.4818 -0.0443
    1BTD     C5 6672   5.687   8.419   1.361 -0.6264 -0.4218 -0.2221
    1BTD     C6 6673   5.780   8.315   1.327 -0.3440 -0.2115 -0.0989
    1BTD     C7 6674   5.882   8.340   1.222  0.1304  0.2253  0.4520
    1BTD     C8 6675   5.885   8.468   1.157  0.2990  0.4301  0.8521
    1BTD    C15 6676   5.791   8.567   1.194  0.0103  0.2116  0.7132
    1BTD    C16 6677   5.694   8.543   1.294 -0.4468 -0.2089  0.1824
    1BTD    C43 6678   5.605   8.771   1.368 -1.0038  1.4310 -0.5636
    1BTD    C44 6679   5.707   8.821   1.472 -0.1211  1.2490 -0.8196
    1BTD    C45 6680   5.631   8.916   1.571  1.4152 -0.7356 -0.7894
    1BTD    C46 6681   5.517   9.016   1.543  2.3883 -0.5817  1.2538
    1BTD    C47 6682   5.826   8.866   1.399 -0.5914  0.3474 -0.3761
    1BTD    C48 6683   5.932   8.921   1.491 -1.3726 -0.4337  0.8166
    1BTD    C49 6684   6.055   8.982   1.430  0.1677 -0.3774  1.1422
    1BTD    C50 6685   6.040   9.040   1.282 -0.6241  1.3856 -0.2039
    1BTD    C75 6686   5.726   8.795   1.073  0.6322 -1.0235 -0.2506
    1BTD    C76 6687   5.609   8.801   0.978  0.1069 -0.4057 -0.0898
    1BTD    C77 6688   5.528   8.930   1.002 -0.7126  0.7290  1.1070
    1BTD    C78 6689   5.614   9.052   0.956  1.0723 -0.0197 -1.0906
    1BTD    C79 6690   5.627   8.747   0.837 -0.4276  0.3584  1.2108
    1BTD    C80 6691   5.485   8.720   0.758  0.0351  0.1936  0.1669
    1BTD    C81 6692   5.389   8.627   0.812 -0.0176  0.0073 -1.1576
    1BTD    C82 6693   5.259   8.655   0.734 -0.0450 -0.3668 -0.9436
    2TTP     S1 6694   5.496   8.346   1.596  0.0611 -0.1642 -0.1643
    2TTP     S5 6695   5.310   8.729   1.543 -0.1005 -0.2518 -0.2277
    2TTP     C1 6696   5.224   8.641   1.677 -0.3206 -0.4274 -0.4800
    2TTP     C2 6697   5.277   8.518   1.702 -0.2836 -0.4106 -0.4753
    2TTP     C3 6698   5.387   8.488   1.615 -0.0802 -0.2584 -0.2722
    2TTP     C4 6699   5.582   8.434   1.462  0.2813  0.0112  0.0880
    2TTP    C17 6700   5.529   8.557   1.437  0.2442 -0.0056  0.0833
    2TTP    C18 6701   5.419   8.587   1.524  0.0407 -0.1576 -0.1198
    2TTP    C32 6702   5.258   8.427   1.818  1.4829 -0.1679  0.6967
    2TTP    C33 6703   5.166   8.305   1.780  0.6900 -0.5700  0.3439
    2TTP    C34 6704   5.155   8.187   1.866 -1.2820  0.3862 -0.8589
    2TTP    C35 6705   5.300   8.122   1.883  1.8344  0.1920 -1.2309
    2TTP    C36 6706   5.288   8.009   1.990 -0.2610  0.3264 -0.7855
    2TTP    C37 6707   5.409   7.913   1.974 -0.3819 -0.5637  2.1923
    2TTP    C38 6708   5.378   7.789   2.046  0.5305 -0.9351 -0.9964
    2TTP    C39 6709   5.388   7.770   2.204 -0.7233  0.5106 -0.3423
    2TTP    C40 6710   5.514   7.813   2.284 -0.3458 -0.2462  0.8796
    2TTP    C41 6711   5.549   7.960   2.279 -0.6513  0.1050 -0.7239
    2TTP    C42 6712   5.625   8.009   2.406 -0.1168  0.3952  1.2573
    3TTP     S1 6713   6.131   8.477   0.988 -0.1139  0.0184  0.1605
    3TTP     S5 6714   6.059   8.894   0.912  0.1712 -0.1106 -0.8510
    3TTP     C1 6715   6.222   8.850   0.844  0.3191 -0.2947 -0.3858
    3TTP     C2 6716   6.254   8.718   0.863  0.2398 -0.2654 -0.0461
    3TTP     C3 6717   6.151   8.648   0.933  0.0595 -0.0973 -0.1408
    3TTP     C4 6718   5.968   8.521   1.056 -0.2619  0.2024 -0.3046
    3TTP    C17 6719   5.936   8.652   1.036 -0.1827  0.1732 -0.6444
    3TTP    C18 6720   6.039   8.723   0.967 -0.0020  0.0045 -0.5496
    3TTP    C32 6721   6.361   8.639   0.789 -0.0129  0.6313 -0.2609
    3TTP    C33 6722   6.505   8.623   0.835 -0.2384  0.1287 -0.1153
    3TTP    C34 6723   6.544   8.494   0.774 -1.4175 -1.1486  1.0541
    3TTP    C35 6724   6.698   8.490   0.755  0.1554 -0.6997 -1.1470
    3TTP    C36 6725   6.767   8.611   0.698 -1.3960 -0.6175  0.4452
    3TTP    C37 6726   6.928   8.602   0.661 -0.0734 -1.1736 -0.4374
    3TTP    C38 6727   6.962   8.717   0.562 -0.6652  0.4160 -1.5298
    3TTP    C39 6728   6.945   8.689   0.414  0.0828  0.6119  0.8185
    3TTP    C40 6729   6.891   8.821   0.339 -0.1306  1.0580  0.7893
    3TTP    C41 6730   6.986   8.900   0.262  0.1934  0.4990  0.8326
    3TTP    C42 6731   6.996   9.049   0.241 -0.4944 -0.0671 -0.1261
    4FIC     F1 6732   4.859   9.365   1.751  0.1140  0.4337 -0.0757
    4FIC     F2 6733   4.639   9.237   1.847  0.1305  0.5360  0.0992
    4FIC     O1 6734   5.197   8.948   1.680 -0.0429  0.3083 -0.0875
    4FIC     N5 6735   4.563   8.755   1.934  0.0423  0.5937  0.3424
    4FIC     N6 6736   4.872   8.455   1.859 -0.0836  0.4749  0.2978
    4FIC    C19 6737   5.107   8.677   1.746 -0.0831  0.3609  0.0754
    4FIC    C20 6738   5.030   8.787   1.760 -0.0441  0.3886  0.0716
    4FIC    C21 6739   5.084   8.923   1.724 -0.0256  0.3583 -0.0147
    4FIC    C22 6740   4.975   9.019   1.752  0.0166  0.4005  0.0046
    4FIC    C23 6741   4.978   9.157   1.734  0.0457  0.3924 -0.0546
    4FIC    C24 6742   4.863   9.228   1.767  0.0840  0.4389 -0.0209
    4FIC    C25 6743   4.750   9.162   1.816  0.0923  0.4914  0.0692
    4FIC    C26 6744   4.747   9.024   1.834  0.0634  0.5000  0.1287
    4FIC    C27 6745   4.862   8.951   1.801  0.0247  0.4537  0.0958
    4FIC    C28 6746   4.891   8.806   1.809 -0.0124  0.4487  0.1405
    4FIC    C29 6747   4.805   8.707   1.852 -0.0165  0.4907  0.2290
    4FIC    C30 6748   4.672   8.734   1.897  0.0161  0.5472  0.2910
    4FIC    C31 6749   4.842   8.569   1.855 -0.0534  0.4816  0.2664
    5FIC     F1 6750   6.379   9.633   1.025  0.1482 -0.0443 -0.0667
    5FIC     F2 6751   6.567   9.636   0.828  0.1372 -0.1631 -0.0797
    5FIC     O1 6752   6.203   9.122   0.989 -0.0226  0.0033  0.0899
    5FIC     N5 6753   6.711   9.278   0.519 -0.0007 -0.2995  0.0131
    5FIC     N6 6754   6.535   8.878   0.530 -0.1322 -0.2384  0.1381
    5FIC    C19 6755   6.320   8.944   0.788 -0.0940 -0.0930  0.1331
    5FIC    C20 6756   6.357   9.072   0.805 -0.0507 -0.1006  0.0942
    5FIC    C21 6757   6.292   9.157   0.910 -0.0159 -0.0489  0.0740
    5FIC    C22 6758   6.355   9.290   0.901  0.0275 -0.0722  0.0322
    5FIC    C23 6759   6.328   9.403   0.979  0.0695 -0.0405  0.0020
    5FIC    C24 6760   6.401   9.518   0.952  0.1057 -0.0725 -0.0354
    5FIC    C25 6761   6.497   9.519   0.850  0.0999 -0.1337 -0.0420
    5FIC    C26 6762   6.525   9.408   0.773  0.0582 -0.1650 -0.0120
    5FIC    C27 6763   6.452   9.290   0.798  0.0210 -0.1340  0.0260
    5FIC    C28 6764   6.457   9.156   0.735 -0.0273 -0.1540  0.0639
    5FIC    C29 6765   6.539   9.118   0.631 -0.0466 -0.2103  0.0696
    5FIC    C30 6766   6.633   9.206   0.570 -0.0213 -0.2592  0.0385
    5FIC    C31 6767   6.536   8.986   0.576 -0.0935 -0.2255  0.1073
    1BTD     S2 6768   9.765   0.089   1.820  0.2775 -0.3240  0.2046
    1BTD     N1 6769   9.894   0.103   1.695 -0.0811 -0.6177 -0.2039
    1BTD     N2 6770   9.660   0.215   1.746  0.4003  0.0305  0.6273
    1BTD     N3 6771   9.678   0.497   1.371  0.0048  0.2226  0.7514
    1BTD     N4 6772   9.966   0.359   1.308 -0.5887 -0.5762 -0.2729
    1BTD     C5 6773   9.928   0.238   1.494 -0.3388 -0.5864 -0.2275
    1BTD     C6 6774   9.854   0.196   1.609 -0.0896 -0.4453 -0.0139
    1BTD     C7 6775   9.723   0.259   1.638  0.1798 -0.0825  0.4514
    1BTD     C8 6776   9.673   0.361   1.550  0.1869  0.1211  0.6798
    1BTD    C15 6777   9.749   0.399   1.438 -0.0623 -0.0278  0.4574
    1BTD    C16 6778   9.875   0.338   1.410 -0.3219 -0.3774  0.0090
    1BTD    C43 6779   9.937   0.390   1.165  0.7445  0.6627 -1.3417
    1BTD    C44 6780  10.045   0.429   1.067 -0.2025 -0.5421  0.2343
    1BTD    C45 6781  10.106   0.581   1.078 -0.0913 -0.0756  1.3976
    1BTD    C46 6782  10.140   0.669   0.961 -1.7306 -0.3818  0.7890
    1BTD    C47 6783   9.982   0.383   0.933 -0.7433 -1.3552 -0.0102
    1BTD    C48 6784   9.949   0.240   0.897  1.3764 -1.0245  1.3540
    1BTD    C49 6785   9.926   0.235   0.739  0.1702 -0.7245  0.6601
    1BTD    C50 6786  10.037   0.287   0.649  0.1982 -0.8641  0.1809
    1BTD    C75 6787   9.737   0.608   1.279  1.1447  0.3367 -0.4857
    1BTD    C76 6788   9.646   0.665   1.164 -0.1465  0.6247 -0.0209
    1BTD    C77 6789   9.711   0.808   1.115  0.5239 -0.4240 -0.3368
    1BTD    C78 6790   9.863   0.839   1.090  0.9258 -0.9101  0.4452
    1BTD    C79 6791   9.620   0.544   1.070 -0.9999  1.0120 -0.3184
    1BTD    C80 6792   9.538   0.565   0.952  0.0400  0.6082 -0.3473
    1BTD    C81 6793   9.491   0.445   0.876  0.3237  0.2355  0.2430
    1BTD    C82 6794   9.445   0.465   0.713 -0.7108 -1.5449 -0.4946
    2TTP     S1 6795  10.200   0.107   1.498  0.3764  0.0708  0.1504
    2TTP     S5 6796  10.335   0.351   1.170  0.1142  0.2304  0.1600
    2TTP     C1 6797  10.474   0.247   1.227  0.3731  0.7477  0.4918
    2TTP     C2 6798  10.440   0.166   1.331  0.4694  0.7289  0.5083
    2TTP     C3 6799  10.304   0.182   1.371  0.3419  0.3053  0.2596
    2TTP     C4 6800  10.061   0.211   1.442  0.1175 -0.4465 -0.1813
    2TTP    C17 6801  10.095   0.292   1.337  0.0212 -0.4278 -0.1979
    2TTP    C18 6802  10.231   0.275   1.298  0.1485 -0.0041  0.0508
    2TTP    C32 6803  10.528   0.064   1.418 -0.5572 -0.5656  0.1772
    2TTP    C33 6804  10.514  -0.099   1.411 -0.7513 -1.4501 -0.3776
    2TTP    C34 6805  10.616  -0.156   1.512 -0.1587 -0.1777 -0.5230
    2TTP    C35 6806  10.604  -0.308   1.515 -0.7385 -0.1040  0.7160
    2TTP    C36 6807  10.673  -0.439   1.466 -0.1256 -1.6338  0.9299
    2TTP    C37 6808  10.586  -0.520   1.376  0.7619  1.7631 -0.2669
    2TTP    C38 6809  10.624  -0.657   1.421  0.6204 -0.7242 -0.3010
    2TTP    C39 6810  10.556  -0.751   1.340  0.4423  1.5285 -0.4193
    2TTP    C40 6811  10.490  -0.860   1.412  0.0272  0.4017 -0.4392
    2TTP    C41 6812  10.494  -0.905   1.561  0.5375 -0.2107  0.3769
    2TTP    C42 6813  10.348  -0.900   1.617  1.9184  0.8811 -0.2512
    3TTP     S1 6814   9.398   0.467   1.648 -0.1760 -0.3806 -0.3209
    3TTP     S5 6815   9.419   0.779   1.352 -0.5510  0.3328  0.3963
    3TTP     C1 6816   9.276   0.810   1.459 -0.5844 -0.0826  0.4768
    3TTP     C2 6817   9.261   0.716   1.557 -0.4704 -0.3273  0.2601
    3TTP     C3 6818   9.362   0.615   1.551 -0.3526 -0.1957  0.0226
    3TTP     C4 6819   9.542   0.436   1.541 -0.1426  0.0347 -0.4014
    3TTP    C17 6820   9.557   0.530   1.443 -0.2566  0.2795 -0.1847
    3TTP    C18 6821   9.455   0.631   1.449 -0.3741  0.1478  0.0528
    3TTP    C32 6822   9.169   0.708   1.685 -0.5834 -0.3397  0.0029
    3TTP    C33 6823   9.217   0.770   1.827  0.3085  0.1000  1.2043
    3TTP    C34 6824   9.256   0.913   1.807 -0.8466 -0.0582  0.5828
    3TTP    C35 6825   9.364   0.955   1.906  1.2436 -1.1648 -1.3884
    3TTP    C36 6826   9.317   1.089   1.978 -0.0335 -0.4762 -2.8323
    3TTP    C37 6827   9.424   1.171   2.062 -0.7734 -1.5110  0.2171
    3TTP    C38 6828   9.491   1.087   2.171 -0.5587  0.5775 -0.0799
    3TTP    C39 6829   9.424   1.058   2.305  0.0622 -0.2232 -0.8608
    3TTP    C40 6830   9.510   0.978   2.411 -0.3479 -0.0611  0.0491
    3TTP    C41 6831   9.465   0.971   2.550  0.3867  0.4263 -1.1197
    3TTP    C42 6832   9.562   0.964   2.656  0.2042 -0.3167  0.4620
    4FIC     F1 6833  10.945   0.808   0.854  0.0918  0.4758  0.1918
    4FIC     F2 6834  11.121   0.610   0.791 -0.2549  0.3991 -0.5621
    4FIC     O1 6835  10.573   0.530   1.133  0.3514  0.3420  0.4064
    4FIC     N5 6836  11.108   0.127   0.900 -0.5684  0.1935 -1.4930
    4FIC     N6 6837  10.782  -0.050   1.130 -0.2959  0.1044 -1.1733
    4FIC    C19 6838  10.609   0.243   1.172  0.1125  0.2212 -0.2375
    4FIC    C20 6839  10.695   0.320   1.104  0.0606  0.2579 -0.2621
    4FIC    C21 6840  10.670   0.467   1.088  0.1912  0.3194  0.0817
    4FIC    C22 6841  10.783   0.521   1.010  0.0916  0.3470 -0.0439
    4FIC    C23 6842  10.804   0.653   0.970  0.1564  0.4038  0.1746
    4FIC    C24 6843  10.918   0.680   0.897  0.0366  0.4202 -0.0073
    4FIC    C25 6844  11.008   0.578   0.864 -0.1420  0.3806 -0.3957
    4FIC    C26 6845  10.988   0.446   0.904 -0.2074  0.3238 -0.6155
    4FIC    C27 6846  10.873   0.417   0.978 -0.0882  0.3065 -0.4363
    4FIC    C28 6847  10.823   0.289   1.035 -0.1144  0.2501 -0.5859
    4FIC    C29 6848  10.883   0.166   1.025 -0.2708  0.2003 -0.9541
    4FIC    C30 6849  11.007   0.145   0.956 -0.4339  0.1967 -1.2491
    4FIC    C31 6850  10.827   0.048   1.083 -0.2837  0.1478 -1.0726
    5FIC     F1 6851   9.233   1.499   1.013  0.0081 -0.3284 -0.8883
    5FIC     F2 6852   8.973   1.525   1.088  0.3996  0.7488  0.1578
    5FIC     O1 6853   9.371   1.045   1.273 -0.7486 -0.7713 -1.2529
    5FIC     N5 6854   8.697   1.238   1.382  0.4234  1.9818  1.4019
    5FIC     N6 6855   8.858   0.878   1.571 -0.2472  1.4185  0.9062
    5FIC    C19 6856   9.172   0.909   1.438 -0.6436  0.1004 -0.3829
    5FIC    C20 6857   9.147   1.022   1.369 -0.4687  0.1698 -0.3321
    5FIC    C21 6858   9.255   1.086   1.287 -0.5369 -0.2983 -0.7978
    5FIC    C22 6859   9.195   1.206   1.226 -0.3042 -0.0834 -0.6061
    5FIC    C23 6860   9.256   1.298   1.142 -0.2742 -0.3653 -0.8946
    5FIC    C24 6861   9.179   1.405   1.097 -0.0350 -0.0749 -0.6272
    5FIC    C25 6862   9.045   1.418   1.136  0.1665  0.4800 -0.0883
    5FIC    C26 6863   8.983   1.326   1.220  0.1378  0.7639  0.2019
    5FIC    C27 6864   9.060   1.218   1.267 -0.1030  0.4768 -0.0619
    5FIC    C28 6865   9.025   1.105   1.356 -0.1957  0.6544  0.1279
    5FIC    C29 6866   8.903   1.082   1.415 -0.0560  1.1696  0.6335
    5FIC    C30 6867   8.790   1.168   1.397  0.2072  1.6143  1.0542
    5FIC    C31 6868   8.879   0.970   1.501 -0.1619  1.3036  0.7806
    1BTD     S2 6869  10.971   6.294  10.000 -0.4084 -0.6084  0.1572
    1BTD     N1 6870  10.816   6.202  10.008 -0.7236 -0.0463  0.6423
    1BTD     N2 6871  11.012   6.267  10.173  0.1845 -0.9946 -0.0365
    1BTD     N3 6872  10.816   6.048  10.539  0.8242 -0.7666  0.4449
    1BTD     N4 6873  10.575   5.969  10.336 -0.2949  0.4016  1.2813
    1BTD     C5 6874  10.693   6.081  10.181 -0.4864  0.1736  0.9658
    1BTD     C6 6875  10.804   6.159  10.132 -0.3879 -0.1692  0.6354
    1BTD     C7 6876  10.913   6.195  10.225  0.1204 -0.6999  0.2551
    1BTD     C8 6877  10.907   6.152  10.362  0.5047 -0.8614  0.2246
    1BTD    C15 6878  10.797   6.076  10.405  0.3916 -0.5128  0.5561
    1BTD    C16 6879  10.691   6.041  10.316 -0.0981 -0.0014  0.9224
    1BTD    C43 6880  10.488   5.954  10.445 -0.3590  1.2859 -0.5581
    1BTD    C44 6881  10.408   5.836  10.510  0.8097 -0.1130  0.0924
    1BTD    C45 6882  10.518   5.734  10.513 -0.5534  0.6633 -0.6942
    1BTD    C46 6883  10.455   5.606  10.563 -0.0060  0.5790  0.5175
    1BTD    C47 6884  10.339   5.867  10.646 -0.6383  0.5597  0.6764
    1BTD    C48 6885  10.223   5.977  10.640  0.8973 -0.7828 -0.6701
    1BTD    C49 6886  10.106   5.949  10.554  0.1233 -1.2804  0.7784
    1BTD    C50 6887   9.976   5.875  10.603 -0.0629 -0.2258  0.1184
    1BTD    C75 6888  10.732   5.975  10.632  0.3399 -0.6099 -0.2669
    1BTD    C76 6889  10.797   5.896  10.758 -0.1734 -1.8617  1.6232
    1BTD    C77 6890  10.700   5.878  10.880 -0.2518 -1.1081  1.0516
    1BTD    C78 6891  10.620   5.983  10.955 -0.1578 -0.6627  0.3753
    1BTD    C79 6892  10.892   5.775  10.751 -0.4598  0.4708  0.6878
    1BTD    C80 6893  11.019   5.793  10.661  1.0299 -0.0090 -0.2693
    1BTD    C81 6894  11.098   5.670  10.680  0.1568  0.1067 -0.2967
    1BTD    C82 6895  11.220   5.679  10.589  0.9732 -0.4165 -0.9727
    2TTP     S1 6896  10.530   5.984   9.939 -0.2743 -0.0474  0.2687
    2TTP     S5 6897  10.368   5.680  10.196  0.4885 -1.0957 -0.4747
    2TTP     C1 6898  10.325   5.639  10.024 -0.1425 -0.3214 -0.5137
    2TTP     C2 6899  10.373   5.731   9.934 -0.4156  0.0478 -0.2868
    2TTP     C3 6900  10.445   5.837   9.999 -0.1354 -0.2673 -0.0734
    2TTP     C4 6901  10.573   6.025  10.111  0.3567 -0.8214  0.3076
    2TTP    C17 6902  10.525   5.934  10.201  0.6297 -1.1910  0.0803
    2TTP    C18 6903  10.453   5.828  10.137  0.3500 -0.8757 -0.1326
    2TTP    C32 6904  10.379   5.718   9.789  0.1412  1.2398  0.4207
    2TTP    C33 6905  10.494   5.628   9.715 -0.2343  0.1108 -0.2112
    2TTP    C34 6906  10.638   5.651   9.753  0.4538 -0.3022  0.0152
    2TTP    C35 6907  10.716   5.596   9.645 -1.0273  0.3082 -0.5027
    2TTP    C36 6908  10.869   5.632   9.655 -1.4161  0.0018  0.6770
    2TTP    C37 6909  10.946   5.587   9.774 -0.5708  0.2982 -0.1393
    2TTP    C38 6910  11.090   5.619   9.740 -0.5118 -1.1295  0.8225
    2TTP    C39 6911  11.190   5.587   9.849  0.3497 -0.0526 -1.1921
    2TTP    C40 6912  11.176   5.704   9.943  0.0438 -0.9884 -1.5045
    2TTP    C41 6913  11.117   5.653  10.077  0.1529 -1.6073 -1.0539
    2TTP    C42 6914  11.070   5.781  10.158 -1.3909  0.0592  1.0477
    3TTP     S1 6915  11.102   6.327  10.512 -0.5691  0.5342 -0.1715
    3TTP     S5 6916  10.923   6.182  10.876 -0.3393  0.2862 -0.1569
    3TTP     C1 6917  11.034   6.321  10.917  0.0223 -0.0225 -0.0771
    3TTP     C2 6918  11.095   6.374  10.807 -0.0270  0.0360 -0.0768
    3TTP     C3 6919  11.058   6.307  10.686 -0.3529  0.3265 -0.1397
    3TTP     C4 6920  10.991   6.188  10.471 -0.9310  0.8429 -0.2511
    3TTP    C17 6921  10.930   6.136  10.581 -0.8815  0.7844 -0.2516
    3TTP    C18 6922  10.967   6.203  10.702 -0.5558  0.4938 -0.1888
    3TTP    C32 6923  11.172   6.503  10.792  0.8266  0.2614 -0.9709
    3TTP    C33 6924  11.309   6.528  10.718  0.5015 -1.0148  0.3929
    3TTP    C34 6925  11.354   6.668  10.746  1.0587 -0.1158  0.2533
    3TTP    C35 6926  11.504   6.661  10.795  1.0728  1.0992  0.3036
    3TTP    C36 6927  11.561   6.800  10.829  0.6538  0.4088  0.0282
    3TTP    C37 6928  11.606   6.915  10.730  0.4383  0.3143 -0.4272
    3TTP    C38 6929  11.740   6.962  10.754 -0.1987  0.1555  0.8633
    3TTP    C39 6930  11.854   6.894  10.667  0.3699  0.0716  0.2909
    3TTP    C40 6931  11.876   6.895  10.513  1.6106  0.2264 -0.7805
    3TTP    C41 6932  12.018   6.871  10.479 -1.1844  0.4499 -0.6529
    3TTP    C42 6933  12.030   6.821  10.348  0.8504 -0.6514  0.3231
    4FIC     F1 6934   9.921   4.980  10.302  0.1171 -0.1280 -0.0217
    4FIC     F2 6935   9.801   4.961  10.058  0.1819 -0.3315 -0.0379
    4FIC     O1 6936  10.247   5.405  10.223 -0.1938  0.0882 -0.1481
    4FIC     N5 6937   9.862   5.237   9.652  0.0532 -0.4700 -0.1509
    4FIC     N6 6938  10.141   5.573   9.640 -0.2029 -0.2604 -0.2463
    4FIC    C19 6939  10.249   5.538   9.963 -0.2425 -0.0295 -0.2083
    4FIC    C20 6940  10.171   5.432   9.992 -0.1669 -0.0761 -0.1760
    4FIC    C21 6941  10.176   5.369  10.128 -0.1466 -0.0101 -0.1462
    4FIC    C22 6942  10.080   5.257  10.126 -0.0596 -0.0851 -0.1149
    4FIC    C23 6943  10.050   5.169  10.229 -0.0134 -0.0612 -0.0811
    4FIC    C24 6944   9.956   5.070  10.204  0.0675 -0.1459 -0.0557
    4FIC    C25 6945   9.894   5.061  10.078  0.1009 -0.2505 -0.0642
    4FIC    C26 6946   9.924   5.148   9.974  0.0551 -0.2748 -0.0978
    4FIC    C27 6947  10.019   5.249   9.998 -0.0274 -0.1905 -0.1237
    4FIC    C28 6948  10.073   5.356   9.911 -0.0916 -0.1889 -0.1614
    4FIC    C29 6949  10.038   5.380   9.780 -0.0832 -0.2759 -0.1798
    4FIC    C30 6950   9.941   5.301   9.710 -0.0086 -0.3824 -0.1638
    4FIC    C31 6951  10.095   5.486   9.704 -0.1493 -0.2668 -0.2162
    5FIC     F1 6952  10.914   6.066  11.685 -0.3607  0.2505 -0.1659
    5FIC     F2 6953  11.083   6.260  11.771  0.4759 -0.4729 -0.1516
    5FIC     O1 6954  10.925   6.149  11.150 -0.5987  0.7181 -0.0992
    5FIC     N5 6955  11.336   6.600  11.513  1.5091 -1.1793 -0.0837
    5FIC     N6 6956  11.311   6.626  11.078  1.1545 -0.6680 -0.0346
    5FIC    C19 6957  11.092   6.365  11.042  0.1160  0.1933 -0.0620
    5FIC    C20 6958  11.082   6.336  11.173  0.1431  0.1037 -0.0792
    5FIC    C21 6959  10.994   6.224  11.221 -0.2384  0.3891 -0.0978
    5FIC    C22 6960  11.007   6.220  11.368 -0.0992  0.2006 -0.1137
    5FIC    C23 6961  10.945   6.133  11.456 -0.3417  0.3520 -0.1338
    5FIC    C24 6962  10.972   6.149  11.591 -0.1398  0.1190 -0.1461
    5FIC    C25 6963  11.060   6.249  11.636  0.2915 -0.2536 -0.1388
    5FIC    C26 6964  11.122   6.337  11.548  0.5352 -0.4065 -0.1187
    5FIC    C27 6965  11.096   6.322  11.411  0.3366 -0.1748 -0.1061
    5FIC    C28 6966  11.145   6.397  11.293  0.5025 -0.2490 -0.0844
    5FIC    C29 6967  11.233   6.503  11.295  0.9111 -0.5815 -0.0722
    5FIC    C30 6968  11.289   6.556  11.415  1.2385 -0.9091 -0.0784
    5FIC    C31 6969  11.275   6.570  11.176  1.0427 -0.6273 -0.0513
    1BTD     S2 6970   8.551   0.449   2.900  0.2519  0.3309  0.0901
    1BTD     N1 6971   8.618   0.592   2.814 -0.4284  0.6273  0.0420
    1BTD     N2 6972   8.450   0.394   2.762  0.6030 -0.2732  0.0664
    1BTD     N3 6973   8.364   0.540   2.324  0.0892 -0.9691 -0.0687
    1BTD     N4 6974   8.571   0.784   2.388 -1.1818  0.1406 -0.0987
    1BTD     C5 6975   8.591   0.689   2.590 -0.8066  0.3598 -0.0311
    1BTD     C6 6976   8.564   0.591   2.692 -0.3624  0.2788  0.0123
    1BTD     C7 6977   8.470   0.480   2.663  0.2148 -0.2253  0.0260
    1BTD     C8 6978   8.408   0.473   2.534  0.3192 -0.6232 -0.0044
    1BTD    C15 6979   8.437   0.571   2.437 -0.1282 -0.5265 -0.0466
    1BTD    C16 6980   8.527   0.678   2.465 -0.6845 -0.0408 -0.0598
    1BTD    C43 6981   8.545   0.809   2.247  0.7015  0.4692  0.6009
    1BTD    C44 6982   8.649   0.829   2.142 -0.0830 -0.1881  0.2004
    1BTD    C45 6983   8.571   0.818   2.017 -0.3495  0.6800 -0.1997
    1BTD    C46 6984   8.620   0.852   1.871  0.6070 -0.2484 -0.9269
    1BTD    C47 6985   8.774   0.738   2.125  0.1248  0.2254  0.2777
    1BTD    C48 6986   8.774   0.600   2.062 -0.3514 -0.1465 -0.8776
    1BTD    C49 6987   8.875   0.492   2.113  0.0972 -0.8492 -0.0006
    1BTD    C50 6988   8.941   0.481   2.241 -0.5746  0.1102 -0.0740
    1BTD    C75 6989   8.286   0.631   2.230  0.1757  0.4869  0.8518
    1BTD    C76 6990   8.138   0.665   2.258 -1.3994  0.3967 -0.6236
    1BTD    C77 6991   8.029   0.686   2.155 -1.1571 -0.1456 -0.6303
    1BTD    C78 6992   8.054   0.813   2.060 -0.7414 -0.7336 -0.4007
    1BTD    C79 6993   8.134   0.715   2.391 -0.1856  0.4093  1.2257
    1BTD    C80 6994   8.016   0.728   2.479  0.3638  0.5695  0.9672
    1BTD    C81 6995   7.962   0.621   2.570  0.3360  0.7652  0.6602
    1BTD    C82 6996   7.803   0.635   2.633  0.1258 -0.4732  0.8969
    2TTP     S1 6997   8.777   0.887   2.698 -0.5077 -0.0934  0.1214
    2TTP     S5 6998   8.790   1.105   2.327  1.2918 -0.7443 -0.2183
    2TTP     C1 6999   8.898   1.189   2.448  0.8332 -0.6226  0.1107
    2TTP     C2 7000   8.900   1.127   2.569  0.2503 -0.4145  0.2350
    2TTP     C3 7001   8.817   1.010   2.572  0.1450 -0.3435  0.0748
    2TTP     C4 7002   8.670   0.803   2.578 -0.0491 -0.2150 -0.2075
    2TTP    C17 7003   8.668   0.865   2.456  0.5335 -0.4232 -0.3319
    2TTP    C18 7004   8.751   0.982   2.454  0.6390 -0.4942 -0.1718
    2TTP    C32 7005   8.985   1.215   2.681  0.5619  0.1008  0.6290
    2TTP    C33 7006   9.026   1.168   2.813  0.0720  1.2759 -0.7349
    2TTP    C34 7007   9.138   1.255   2.876  0.3829 -0.8595 -0.0671
    2TTP    C35 7008   9.230   1.208   2.990 -0.3998 -0.0579  0.0724
    2TTP    C36 7009   9.316   1.079   2.976 -1.0560  0.2640 -0.9844
    2TTP    C37 7010   9.241   0.957   2.954  0.9581 -0.0806 -0.3826
    2TTP    C38 7011   9.164   0.906   3.062  0.3017 -1.7517 -0.9874
    2TTP    C39 7012   9.098   0.776   3.042 -0.1316  0.2938 -0.3682
    2TTP    C40 7013   8.989   0.765   3.146  1.4212  0.3754  1.0449
    2TTP    C41 7014   8.877   0.667   3.106 -0.4136  0.1951 -0.1599
    2TTP    C42 7015   8.814   0.581   3.224  1.3107 -0.4703  0.5254
    3TTP     S1 7016   8.227   0.229   2.515  0.3021 -0.1524 -0.2024
    3TTP     S5 7017   8.189   0.309   2.094  0.0782 -0.3549 -0.2210
    3TTP     C1 7018   8.110   0.149   2.130 -0.0482 -0.2599 -0.0742
    3TTP     C2 7019   8.117   0.115   2.262  0.0131 -0.1918 -0.0598
    3TTP     C3 7020   8.185   0.214   2.339  0.1626 -0.2122 -0.1642
    3TTP     C4 7021   8.306   0.389   2.479  0.4282 -0.2474 -0.3492
    3TTP    C17 7022   8.299   0.423   2.347  0.3669 -0.3156 -0.3635
    3TTP    C18 7023   8.231   0.324   2.269  0.2174 -0.2952 -0.2592
    3TTP    C32 7024   8.090  -0.024   2.317  0.0371 -0.3580  0.5862
    3TTP    C33 7025   8.193  -0.135   2.266  0.6995 -0.8775  0.5586
    3TTP    C34 7026   8.197  -0.260   2.350 -0.0800  0.8742 -0.3266
    3TTP    C35 7027   8.318  -0.351   2.393  0.0484  0.3419 -0.3616
    3TTP    C36 7028   8.427  -0.387   2.296  0.2239 -0.5476  1.5397
    3TTP    C37 7029   8.544  -0.471   2.343  1.6860  1.0883 -0.3044
    3TTP    C38 7030   8.623  -0.580   2.294  0.6484  1.2186 -0.8466
    3TTP    C39 7031   8.681  -0.539   2.155  0.5872  0.3508  0.4416
    3TTP    C40 7032   8.683  -0.659   2.051 -0.4982 -0.7690 -1.6324
    3TTP    C41 7033   8.794  -0.681   1.971 -0.2556 -0.3809 -0.0657
    3TTP    C42 7034   8.803  -0.810   1.898  1.0605 -0.1523 -0.7259
    4FIC     F1 7035   8.807   1.807   1.895 -0.1807  0.6385  0.2071
    4FIC     F2 7036   9.031   1.922   1.998  0.3085  0.1000 -0.2472
    4FIC     O1 7037   8.768   1.364   2.204 -0.4451  0.5728  0.0806
    4FIC     N5 7038   9.327   1.772   2.365  0.8237 -0.7214 -0.9903
    4FIC     N6 7039   9.252   1.402   2.585  0.5183 -0.6643 -0.9975
    4FIC    C19 7040   8.969   1.317   2.412 -0.0718  0.0347 -0.3982
    4FIC    C20 7041   8.970   1.424   2.330 -0.0243  0.0724 -0.3487
    4FIC    C21 7042   8.863   1.441   2.226 -0.2258  0.3554 -0.0979
    4FIC    C22 7043   8.894   1.567   2.155 -0.1121  0.3225 -0.1072
    4FIC    C23 7044   8.823   1.625   2.050 -0.2258  0.5274  0.0814
    4FIC    C24 7045   8.872   1.745   1.999 -0.0798  0.4465  0.0290
    4FIC    C25 7046   8.987   1.804   2.052  0.1722  0.1689 -0.2051
    4FIC    C26 7047   9.059   1.746   2.157  0.2871 -0.0366 -0.3942
    4FIC    C27 7048   9.011   1.625   2.209  0.1421  0.0412 -0.3446
    4FIC    C28 7049   9.063   1.540   2.319  0.2060 -0.1235 -0.5024
    4FIC    C29 7050   9.174   1.563   2.396  0.4351 -0.4039 -0.7445
    4FIC    C30 7051   9.258   1.678   2.378  0.6480 -0.5775 -0.8788
    4FIC    C31 7052   9.216   1.475   2.500  0.4795 -0.5455 -0.8823
    5FIC     F1 7053   7.933   0.181   1.332 -0.8038  0.5706  0.5370
    5FIC     F2 7054   7.730   0.006   1.379 -0.0123 -0.3598  0.5453
    5FIC     O1 7055   8.147   0.226   1.827 -0.1333  0.4552  0.2607
    5FIC     N5 7056   7.591  -0.214   1.799  1.6036 -1.7798  0.3602
    5FIC     N6 7057   7.799  -0.144   2.177  1.9681 -1.6823  0.1426
    5FIC    C19 7058   8.029   0.074   2.048  0.8612 -0.4747  0.1705
    5FIC    C20 7059   7.983   0.070   1.922  0.6615 -0.4093  0.2397
    5FIC    C21 7060   8.049   0.151   1.813  0.1478  0.0799  0.2826
    5FIC    C22 7061   7.975   0.123   1.689  0.0471  0.0236  0.3551
    5FIC    C23 7062   7.999   0.175   1.562 -0.3818  0.3779  0.4137
    5FIC    C24 7063   7.915   0.134   1.460 -0.3913  0.2385  0.4770
    5FIC    C25 7064   7.810   0.043   1.484  0.0169 -0.2410  0.4811
    5FIC    C26 7065   7.786  -0.009   1.610  0.4458 -0.5964  0.4229
    5FIC    C27 7066   7.870   0.032   1.716  0.4627 -0.4622  0.3583
    5FIC    C28 7067   7.871  -0.004   1.859  0.8565 -0.7473  0.2876
    5FIC    C29 7068   7.784  -0.091   1.923  1.3142 -1.2319  0.2698
    5FIC    C30 7069   7.678  -0.158   1.855  1.4718 -1.5314  0.3196
    5FIC    C31 7070   7.793  -0.119   2.062  1.6713 -1.4768  0.1999
    1BTD     S2 7071   3.741   7.964   9.390  0.0447  0.0760 -0.3225
    1BTD     N1 7072   3.623   8.079   9.464  0.7709  0.5515  0.1209
    1BTD     N2 7073   3.728   7.844   9.523 -0.5426 -0.2564 -0.6728
    1BTD     N3 7074   3.490   7.805   9.926 -0.4278 -0.0757 -0.5872
    1BTD     N4 7075   3.361   8.095   9.853  1.1907  0.9201  0.3903
    1BTD     C5 7076   3.488   8.084   9.668  0.9705  0.7319  0.2496
    1BTD     C6 7077   3.583   8.024   9.578  0.5497  0.4435 -0.0091
    1BTD     C7 7078   3.641   7.892   9.611 -0.1855 -0.0089 -0.4530
    1BTD     C8 7079   3.602   7.827   9.733 -0.4632 -0.1501 -0.6166
    1BTD    C15 7080   3.509   7.889   9.818 -0.0319  0.1436 -0.3520
    1BTD    C16 7081   3.453   8.016   9.786  0.6767  0.5794  0.0764
    1BTD    C43 7082   3.313   8.086   9.999  0.7491 -0.5772  0.1145
    1BTD    C44 7083   3.409   8.171  10.094  0.0280 -0.4885 -0.0334
    1BTD    C45 7084   3.341   8.204  10.228 -0.1170  0.0212  0.3975
    1BTD    C46 7085   3.300   8.349  10.238  0.0830 -0.2500  1.9437
    1BTD    C47 7086   3.553   8.142  10.083 -1.0622 -0.8816 -0.8391
    1BTD    C48 7087   3.641   8.265  10.123  0.9962 -1.2124 -1.6807
    1BTD    C49 7088   3.766   8.251  10.206 -1.1975  0.5668  0.3954
    1BTD    C50 7089   3.894   8.333  10.171  0.9521  0.5166  0.2497
    1BTD    C75 7090   3.373   7.784  10.014  1.1761 -0.1419  0.6139
    1BTD    C76 7091   3.241   7.710   9.953 -0.5230  0.1744  0.5893
    1BTD    C77 7092   3.105   7.759   9.991 -0.6171 -0.6549 -0.3086
    1BTD    C78 7093   3.084   7.775  10.137  0.5438 -0.4777 -1.0441
    1BTD    C79 7094   3.260   7.551   9.942  0.0090  0.6502 -1.3573
    1BTD    C80 7095   3.179   7.441   9.880  0.3306 -0.0094  1.0458
    1BTD    C81 7096   3.255   7.313   9.900 -0.3427 -0.4942  0.6767
    1BTD    C82 7097   3.153   7.216   9.837  0.4637  0.4779 -0.1760
    2TTP     S1 7098   3.395   8.348   9.554  0.1660 -0.2684  0.4234
    2TTP     S5 7099   3.087   8.360   9.853 -0.3179  0.0737 -0.0858
    2TTP     C1 7100   3.058   8.495   9.735  0.0035  0.0796 -0.1588
    2TTP     C2 7101   3.151   8.499   9.635  0.1717 -0.0253 -0.0060
    2TTP     C3 7102   3.249   8.396   9.649  0.0531 -0.1147  0.1745
    2TTP     C4 7103   3.425   8.214   9.673 -0.1553 -0.2744  0.4969
    2TTP    C17 7104   3.331   8.209   9.772 -0.3236 -0.1692  0.3438
    2TTP    C18 7105   3.233   8.312   9.758 -0.2049 -0.0799  0.1633
    2TTP    C32 7106   3.157   8.595   9.521  0.8176  0.5685 -0.9502
    2TTP    C33 7107   3.282   8.622   9.430  0.0941  0.7799  1.6713
    2TTP    C34 7108   3.426   8.656   9.488  0.1164  0.7087  0.1186
    2TTP    C35 7109   3.429   8.756   9.594 -0.4777  0.2326 -0.2384
    2TTP    C36 7110   3.561   8.815   9.659 -0.1915  0.0875 -0.8832
    2TTP    C37 7111   3.590   8.782   9.809  0.8516 -0.1839 -0.6254
    2TTP    C38 7112   3.484   8.830   9.914  0.7425 -0.3423  0.6971
    2TTP    C39 7113   3.504   8.847  10.065  0.2263  0.2253 -1.0710
    2TTP    C40 7114   3.627   8.944  10.103  0.0864 -0.1489 -0.3983
    2TTP    C41 7115   3.655   8.989  10.243 -0.1556  0.2764  1.3851
    2TTP    C42 7116   3.757   9.092  10.254 -0.4057 -0.7751  0.6760
    3TTP     S1 7117   3.811   7.628   9.802  0.8859  0.2012  0.3988
    3TTP     S5 7118   3.630   7.579  10.188 -0.7227 -1.2492 -0.5100
    3TTP     C1 7119   3.789   7.491  10.188 -0.6341 -1.0969 -0.1270
    3TTP     C2 7120   3.854   7.501  10.068 -0.1323 -0.6398  0.1762
    3TTP     C3 7121   3.781   7.578   9.973  0.2006 -0.3937  0.1171
    3TTP     C4 7122   3.652   7.716   9.802  0.7973  0.0489  0.0157
    3TTP    C17 7123   3.587   7.706   9.922  0.2953 -0.4082 -0.2874
    3TTP    C18 7124   3.660   7.629  10.017 -0.0374 -0.6543 -0.2282
    3TTP    C32 7125   3.983   7.459  10.019 -0.2277  0.3954 -0.5324
    3TTP    C33 7126   4.039   7.314   9.995  0.6574 -0.2940 -0.6013
    3TTP    C34 7127   3.959   7.205   9.914 -0.0579  0.8707  0.3555
    3TTP    C35 7128   3.834   7.136   9.987 -0.4786 -1.2081  0.8158
    3TTP    C36 7129   3.775   7.013   9.903 -0.7056 -0.8990 -0.6758
    3TTP    C37 7130   3.852   6.924   9.807  1.1560 -0.1702 -0.2431
    3TTP    C38 7131   3.767   6.799   9.791 -0.1073 -0.4303 -0.7060
    3TTP    C39 7132   3.837   6.693   9.732 -0.5211  0.0553  0.4789
    3TTP    C40 7133   3.765   6.579   9.664  0.6977  1.5868  0.6084
    3TTP    C41 7134   3.654   6.606   9.562 -1.1529  0.4521  1.9083
    3TTP    C42 7135   3.646   6.495   9.448 -0.9222  1.0006 -0.5428
    4FIC     F1 7136   2.329   8.492  10.114 -0.0002  0.2675 -0.2897
    4FIC     F2 7137   2.295   8.753  10.043 -0.2096  0.1483 -0.6342
    4FIC     O1 7138   2.809   8.386   9.887  0.2007  0.4234  0.0610
    4FIC     N5 7139   2.589   9.052   9.779 -0.3672  0.0882 -0.8795
    4FIC     N6 7140   2.971   8.916   9.616 -0.1679  0.2339 -0.5364
    4FIC    C19 7141   2.947   8.597   9.739  0.0723  0.3648 -0.1440
    4FIC    C20 7142   2.828   8.613   9.799  0.0299  0.3302 -0.2186
    4FIC    C21 7143   2.763   8.500   9.873  0.1012  0.3638 -0.1044
    4FIC    C22 7144   2.635   8.552   9.925  0.0296  0.3121 -0.2275
    4FIC    C23 7145   2.540   8.484  10.001  0.0588  0.3197 -0.1836
    4FIC    C24 7146   2.427   8.554  10.039 -0.0234  0.2638 -0.3234
    4FIC    C25 7147   2.410   8.688  10.002 -0.1312  0.2024 -0.5006
    4FIC    C26 7148   2.504   8.757   9.927 -0.1608  0.1948 -0.5453
    4FIC    C27 7149   2.620   8.687   9.887 -0.0788  0.2508 -0.4058
    4FIC    C28 7150   2.737   8.731   9.808 -0.0829  0.2592 -0.4072
    4FIC    C29 7151   2.758   8.855   9.754 -0.1739  0.2110 -0.5555
    4FIC    C30 7152   2.665   8.963   9.768 -0.2798  0.1435 -0.7331
    4FIC    C31 7153   2.875   8.888   9.679 -0.1701  0.2236 -0.5438
    5FIC     F1 7154   3.791   7.623  11.003 -0.3586  0.0149 -0.0460
    5FIC     F2 7155   3.896   7.375  11.036 -0.3300  0.0346  0.0091
    5FIC     O1 7156   3.772   7.655  10.463 -0.5190 -0.1724 -0.0513
    5FIC     N5 7157   4.034   7.039  10.699 -0.4028 -0.0709  0.0844
    5FIC     N6 7158   3.997   7.114  10.270 -0.5339 -0.2213  0.0691
    5FIC    C19 7159   3.865   7.428  10.303 -0.5484 -0.2204 -0.0007
    5FIC    C20 7160   3.866   7.430  10.437 -0.5092 -0.1738 -0.0014
    5FIC    C21 7161   3.817   7.550  10.513 -0.4964 -0.1519 -0.0284
    5FIC    C22 7162   3.831   7.519  10.656 -0.4522 -0.1013 -0.0217
    5FIC    C23 7163   3.798   7.600  10.764 -0.4267 -0.0666 -0.0401
    5FIC    C24 7164   3.821   7.549  10.891 -0.3856 -0.0212 -0.0290
    5FIC    C25 7165   3.876   7.421  10.908 -0.3710 -0.0111 -0.0007
    5FIC    C26 7166   3.909   7.339  10.800 -0.3962 -0.0457  0.0176
    5FIC    C27 7167   3.886   7.389  10.671 -0.4378 -0.0918  0.0069
    5FIC    C28 7168   3.910   7.330  10.538 -0.4722 -0.1361  0.0205
    5FIC    C29 7169   3.962   7.205  10.512 -0.4703 -0.1410  0.0482
    5FIC    C30 7170   4.001   7.114  10.615 -0.4332 -0.1024  0.0679
    5FIC    C31 7171   3.981   7.156  10.379 -0.5053 -0.1853  0.0596
    1BTD     S2 7172  10.648   8.619   3.745  0.0781  0.0474  0.2074
    1BTD     N1 7173  10.709   8.600   3.577  0.0961 -0.2046  0.2409
    1BTD     N2 7174  10.802   8.685   3.809  0.0691  0.1516  0.1225
    1BTD     N3 7175  11.227   8.787   3.637  0.0818 -0.0913  0.0100
    1BTD     N4 7176  11.112   8.682   3.351  0.1152 -0.5300  0.1560
    1BTD     C5 7177  10.921   8.644   3.462  0.1059 -0.3693  0.1948
    1BTD     C6 7178  10.835   8.642   3.577  0.0944 -0.1986  0.1898
    1BTD     C7 7179  10.887   8.690   3.708  0.0789  0.0010  0.1235
    1BTD     C8 7180  11.022   8.737   3.716  0.0761  0.0198  0.0656
    1BTD    C15 7181  11.103   8.737   3.600  0.0876 -0.1521  0.0729
    1BTD    C16 7182  11.053   8.691   3.475  0.1022 -0.3439  0.1368
    1BTD    C43 7183  11.247   8.623   3.331 -0.5484 -0.5225  0.3147
    1BTD    C44 7184  11.270   8.461   3.344  0.6937  0.4364 -0.3419
    1BTD    C45 7185  11.399   8.402   3.292 -1.4326 -0.4408  0.6788
    1BTD    C46 7186  11.452   8.457   3.163  0.5039  0.5778 -0.3796
    1BTD    C47 7187  11.212   8.390   3.473 -0.1435  0.4719 -0.3517
    1BTD    C48 7188  11.196   8.235   3.457  0.9765 -0.1656 -0.0477
    1BTD    C49 7189  11.060   8.209   3.528 -1.0278  0.0456 -0.0467
    1BTD    C50 7190  11.008   8.076   3.510  0.8729 -0.4938 -0.1328
    1BTD    C75 7191  11.325   8.860   3.546  0.0935  0.7203 -0.1804
    1BTD    C76 7192  11.296   9.003   3.493 -0.7813 -0.1556 -1.3885
    1BTD    C77 7193  11.204   9.011   3.371  0.7305 -0.0634 -0.0896
    1BTD    C78 7194  11.285   9.036   3.250  0.2880  0.0252  0.5332
    1BTD    C79 7195  11.285   9.099   3.617 -0.4652  0.1242  1.8801
    1BTD    C80 7196  11.167   9.135   3.707 -0.7967  0.8846  0.1300
    1BTD    C81 7197  11.101   9.258   3.728  0.8748 -1.5244 -0.5932
    1BTD    C82 7198  11.037   9.279   3.873  1.1421 -0.3785  1.1092
    2TTP     S1 7199  10.779   8.534   3.214 -0.0700  0.0572  0.1553
    2TTP     S5 7200  11.138   8.617   2.991 -0.6833 -0.1616 -0.9263
    2TTP     C1 7201  11.016   8.542   2.879 -1.0286 -0.1921 -0.5354
    2TTP     C2 7202  10.898   8.512   2.941 -0.8595 -0.1261 -0.1784
    2TTP     C3 7203  10.900   8.547   3.080 -0.4511 -0.0496 -0.2006
    2TTP     C4 7204  10.901   8.609   3.326  0.2754  0.0873 -0.2356
    2TTP    C17 7205  11.019   8.639   3.264  0.1062  0.0217 -0.5925
    2TTP    C18 7206  11.017   8.604   3.125 -0.3018 -0.0553 -0.5703
    2TTP    C32 7207  10.776   8.445   2.888  1.5844  0.1617 -1.0520
    2TTP    C33 7208  10.652   8.535   2.883  0.3525 -0.4729  0.6642
    2TTP    C34 7209  10.664   8.657   2.791  0.7762 -0.0083  0.3525
    2TTP    C35 7210  10.571   8.762   2.856 -1.2171 -1.4408 -0.6126
    2TTP    C36 7211  10.555   8.897   2.782 -0.4922 -0.1323  0.0635
    2TTP    C37 7212  10.439   8.894   2.689 -0.3719 -0.2117 -1.1177
    2TTP    C38 7213  10.291   8.904   2.737 -1.1075  0.3678 -0.1924
    2TTP    C39 7214  10.234   8.811   2.847 -0.8045  0.6286 -0.4031
    2TTP    C40 7215  10.215   8.672   2.821  0.4285  0.8097 -0.6916
    2TTP    C41 7216  10.122   8.612   2.719 -0.9615  0.1226  0.8907
    2TTP    C42 7217  10.155   8.635   2.568 -0.4196  0.4739 -0.1547
    3TTP     S1 7218  11.085   8.783   4.005  0.7173 -1.1004  0.4159
    3TTP     S5 7219  11.483   8.903   3.895 -0.2060  1.5359 -0.2161
    3TTP     C1 7220  11.466   8.917   4.076  0.1566  0.8374 -0.1173
    3TTP     C2 7221  11.342   8.881   4.120  0.4632 -0.0176  0.0837
    3TTP     C3 7222  11.256   8.841   4.014  0.4225 -0.1521  0.1670
    3TTP     C4 7223  11.102   8.768   3.825  0.3545 -0.4020  0.3172
    3TTP    C17 7224  11.226   8.804   3.780  0.0479  0.4534  0.1163
    3TTP    C18 7225  11.312   8.845   3.887  0.0885  0.5879  0.0330
    3TTP    C32 7226  11.287   8.870   4.269 -1.0144  0.8420 -0.5392
    3TTP    C33 7227  11.147   8.831   4.310 -0.5307 -0.4108 -0.3810
    3TTP    C34 7228  11.138   8.870   4.450 -1.1812 -0.6626  0.0016
    3TTP    C35 7229  11.021   8.851   4.523  0.4634 -1.0121 -1.3539
    3TTP    C36 7230  11.020   8.891   4.676 -0.1243  0.2074 -0.6526
    3TTP    C37 7231  10.889   8.856   4.728  0.3605 -0.9154 -0.0699
    3TTP    C38 7232  10.907   8.759   4.844  0.8194  0.6529  1.1951
    3TTP    C39 7233  10.782   8.654   4.858 -0.0226  0.3234 -0.1440
    3TTP    C40 7234  10.730   8.570   4.749 -0.3473 -0.9227  0.5571
    3TTP    C41 7235  10.643   8.443   4.771 -1.2112  0.5136  0.0538
    3TTP    C42 7236  10.498   8.479   4.781 -1.6523 -0.3785 -0.2895
    4FIC     F1 7237  11.719   8.258   2.528  0.3817  0.8023 -0.1267
    4FIC     F2 7238  11.592   8.259   2.288  0.3123  0.1433 -0.0970
    4FIC     O1 7239  11.318   8.417   2.856  0.1104  0.4170 -0.2696
    4FIC     N5 7240  11.124   8.374   2.175  0.0198 -1.0786 -0.1561
    4FIC     N6 7241  10.836   8.498   2.479 -0.1779 -1.2467 -0.2737
    4FIC    C19 7242  11.054   8.475   2.742 -0.0518 -0.3493 -0.2920
    4FIC    C20 7243  11.160   8.435   2.669  0.0193 -0.2267 -0.2572
    4FIC    C21 7244  11.292   8.407   2.735  0.1004  0.1714 -0.2478
    4FIC    C22 7245  11.385   8.366   2.628  0.1640  0.2105 -0.2080
    4FIC    C23 7246  11.519   8.330   2.640  0.2489  0.5288 -0.1866
    4FIC    C24 7247  11.586   8.295   2.524  0.2971  0.4980 -0.1493
    4FIC    C25 7248  11.520   8.295   2.400  0.2615  0.1584 -0.1341
    4FIC    C26 7249  11.387   8.331   2.387  0.1771 -0.1605 -0.1552
    4FIC    C27 7250  11.317   8.367   2.503  0.1268 -0.1349 -0.1930
    4FIC    C28 7251  11.176   8.409   2.524  0.0365 -0.4170 -0.2226
    4FIC    C29 7252  11.080   8.422   2.427 -0.0205 -0.7842 -0.2187
    4FIC    C30 7253  11.104   8.396   2.289  0.0019 -0.9449 -0.1843
    4FIC    C31 7254  10.946   8.464   2.456 -0.1066 -1.0366 -0.2490
    5FIC     F1 7255  12.227   9.221   4.012  0.0327  0.7396  0.3991
    5FIC     F2 7256  12.241   9.211   4.284  0.0526 -0.2675  0.3694
    5FIC     O1 7257  11.721   9.045   3.930  0.1355  0.7360 -0.2302
    5FIC     N5 7258  11.901   9.072   4.615  0.1545 -1.7178 -0.1217
    5FIC     N6 7259  11.503   8.936   4.496  0.2308 -1.5178 -0.6076
    5FIC    C19 7260  11.555   8.973   4.160  0.1911 -0.2277 -0.4821
    5FIC    C20 7261  11.682   9.018   4.170  0.1644 -0.1872 -0.3226
    5FIC    C21 7262  11.761   9.053   4.047  0.1368  0.3216 -0.2005
    5FIC    C22 7263  11.893   9.097   4.094  0.1120  0.2289 -0.0397
    5FIC    C23 7264  12.001   9.140   4.016  0.0821  0.5856  0.1109
    5FIC    C24 7265  12.116   9.178   4.083  0.0626  0.4078  0.2464
    5FIC    C25 7266  12.123   9.173   4.223  0.0729 -0.1111  0.2308
    5FIC    C26 7267  12.017   9.130   4.301  0.1027 -0.4690  0.0809
    5FIC    C27 7268  11.899   9.092   4.235  0.1228 -0.2964 -0.0576
    5FIC    C28 7269  11.769   9.042   4.287  0.1554 -0.5727 -0.2322
    5FIC    C29 7270  11.736   9.024   4.420  0.1737 -1.0877 -0.2973
    5FIC    C30 7271  11.827   9.050   4.527  0.1631 -1.4322 -0.2005
    5FIC    C31 7272  11.608   8.976   4.461  0.2051 -1.3213 -0.4677
    1BTD     S2 7273   5.777   2.843   6.288 -0.0429  0.4039  0.0580
    1BTD     N1 7274   5.681   2.860   6.136 -0.1081  0.2256  0.0784
    1BTD     N2 7275   5.718   2.997   6.360 -0.0074  0.4915 -0.1004
    1BTD     N3 7276   5.426   3.342   6.232 -0.0533  0.3479 -0.3861
    1BTD     N4 7277   5.380   3.173   5.958 -0.1776  0.0201 -0.1659
    1BTD     C5 7278   5.525   3.025   6.046 -0.1429  0.1222 -0.0516
    1BTD     C6 7279   5.614   2.973   6.147 -0.1007  0.2397 -0.0283
    1BTD     C7 7280   5.635   3.050   6.272 -0.0442  0.3886 -0.1284
    1BTD     C8 7281   5.565   3.175   6.290 -0.0329  0.4126 -0.2469
    1BTD    C15 7282   5.479   3.221   6.189 -0.0756  0.2944 -0.2656
    1BTD    C16 7283   5.459   3.148   6.069 -0.1298  0.1508 -0.1690
    1BTD    C43 7284   5.337   3.298   5.895 -1.0107 -0.4336  0.1797
    1BTD    C44 7285   5.370   3.356   5.763 -1.2035 -0.5514 -2.0658
    1BTD    C45 7286   5.513   3.430   5.752  0.3957  0.3927 -0.5049
    1BTD    C46 7287   5.652   3.375   5.780 -0.7639 -0.2985 -0.6761
    1BTD    C47 7288   5.249   3.445   5.711  0.7610  0.0671 -0.0509
    1BTD    C48 7289   5.256   3.498   5.573 -0.1014 -1.5406 -0.1190
    1BTD    C49 7290   5.355   3.613   5.522 -0.3985  0.7224 -0.6289
    1BTD    C50 7291   5.389   3.565   5.379 -0.3360  0.9284  0.1275
    1BTD    C75 7292   5.308   3.427   6.192 -0.9768 -1.4750 -0.2980
    1BTD    C76 7293   5.292   3.580   6.193  0.4301 -0.1717  0.3767
    1BTD    C77 7294   5.417   3.650   6.163  0.0139 -1.8437  0.4927
    1BTD    C78 7295   5.523   3.626   6.058 -0.6908  0.1550 -0.2194
    1BTD    C79 7296   5.186   3.614   6.096  0.3193 -0.5483 -0.1212
    1BTD    C80 7297   5.042   3.574   6.104  0.3094  0.2144  0.6040
    1BTD    C81 7298   4.948   3.654   6.182  0.3045  0.6487 -0.2851
    1BTD    C82 7299   4.916   3.587   6.309 -0.1278  0.2583  0.0236
    2TTP     S1 7300   5.554   2.859   5.798  0.0337  0.2524 -0.0499
    2TTP     S5 7301   5.258   3.108   5.611  0.1551  0.6953  0.3417
    2TTP     C1 7302   5.317   2.987   5.489 -0.0428  0.7344  0.2051
    2TTP     C2 7303   5.412   2.903   5.540 -0.0919  0.6000  0.0763
    2TTP     C3 7304   5.442   2.931   5.676  0.0250  0.4612  0.0805
    2TTP     C4 7305   5.495   2.980   5.920  0.2315  0.2132  0.0865
    2TTP    C17 7306   5.400   3.064   5.869  0.2806  0.3477  0.2153
    2TTP    C18 7307   5.370   3.036   5.732  0.1637  0.4865  0.2112
    2TTP    C32 7308   5.507   2.814   5.465  0.1853 -0.6449  0.3291
    2TTP    C33 7309   5.485   2.650   5.473 -0.7326 -0.1261 -0.8300
    2TTP    C34 7310   5.540   2.528   5.401 -0.3887 -1.5013  0.1481
    2TTP    C35 7311   5.426   2.433   5.353 -0.8081 -0.3565  0.8681
    2TTP    C36 7312   5.335   2.342   5.443  0.1514 -1.2354 -0.4601
    2TTP    C37 7313   5.204   2.322   5.372  1.0990  0.6113  0.1118
    2TTP    C38 7314   5.078   2.365   5.454 -1.9735 -0.1246  0.3460
    2TTP    C39 7315   5.053   2.275   5.575 -0.8674 -0.2551  0.2031
    2TTP    C40 7316   4.921   2.224   5.622 -0.2663  0.7018  0.3009
    2TTP    C41 7317   4.918   2.098   5.721  0.1070 -0.8147  0.5918
    2TTP    C42 7318   4.787   2.083   5.795  0.7263  0.1316  0.9958
    3TTP     S1 7319   5.636   3.286   6.556 -0.1282  0.2230 -0.5324
    3TTP     S5 7320   5.383   3.627   6.488 -0.6243 -0.0961 -0.2991
    3TTP     C1 7321   5.466   3.647   6.649 -0.6634 -0.0910 -0.2796
    3TTP     C2 7322   5.549   3.543   6.679 -0.5125  0.0078 -0.3505
    3TTP     C3 7323   5.550   3.443   6.577 -0.3606  0.0831 -0.4227
    3TTP     C4 7324   5.553   3.265   6.396 -0.0892  0.2179 -0.5518
    3TTP    C17 7325   5.470   3.369   6.365 -0.2401  0.1192 -0.4809
    3TTP    C18 7326   5.469   3.469   6.467 -0.3920  0.0438 -0.4086
    3TTP    C32 7327   5.658   3.493   6.786  1.1096 -1.2675 -1.3584
    3TTP    C33 7328   5.767   3.602   6.840  0.2089  0.9310 -0.2817
    3TTP    C34 7329   5.890   3.535   6.898 -0.5411 -0.2408  0.8967
    3TTP    C35 7330   5.870   3.501   7.044 -0.5635  1.1985  0.1699
    3TTP    C36 7331   5.990   3.425   7.113  1.1669  1.4276  0.7368
    3TTP    C37 7332   6.130   3.457   7.099  0.0103  2.1614  1.3249
    3TTP    C38 7333   6.163   3.518   7.227 -0.7695 -0.6078 -0.2045
    3TTP    C39 7334   6.311   3.497   7.278 -0.8169  0.1999  1.3309
    3TTP    C40 7335   6.420   3.580   7.193  1.3554 -0.4853  0.4410
    3TTP    C41 7336   6.558   3.530   7.221  1.1347  0.8131 -0.4487
    3TTP    C42 7337   6.648   3.595   7.127  0.6243 -0.3714  0.3622
    4FIC     F1 7338   4.839   3.492   5.061 -0.5875 -0.3521  0.1749
    4FIC     F2 7339   4.772   3.282   4.901 -0.5969 -0.3987  0.2403
    4FIC     O1 7340   5.200   3.259   5.390 -0.0899 -0.0965 -0.1873
    4FIC     N5 7341   4.933   2.814   4.906 -0.2555 -0.2840  0.0759
    4FIC     N6 7342   5.229   2.674   5.196  0.1352 -0.0749 -0.2202
    4FIC    C19 7343   5.265   2.976   5.355  0.0779 -0.0504 -0.2537
    4FIC    C20 7344   5.176   3.042   5.278 -0.0468 -0.1129 -0.1650
    4FIC    C21 7345   5.149   3.188   5.302 -0.1270 -0.1328 -0.1364
    4FIC    C22 7346   5.049   3.229   5.202 -0.2571 -0.2034 -0.0362
    4FIC    C23 7347   4.992   3.355   5.185 -0.3644 -0.2438  0.0213
    4FIC    C24 7348   4.899   3.370   5.083 -0.4775 -0.3094  0.1141
    4FIC    C25 7349   4.865   3.261   5.001 -0.4821 -0.3333  0.1474
    4FIC    C26 7350   4.921   3.136   5.017 -0.3754 -0.2934  0.0907
    4FIC    C27 7351   5.015   3.119   5.120 -0.2599 -0.2269 -0.0035
    4FIC    C28 7352   5.092   3.000   5.163 -0.1309 -0.1721 -0.0814
    4FIC    C29 7353   5.087   2.874   5.108 -0.0962 -0.1758 -0.0767
    4FIC    C30 7354   5.002   2.841   4.997 -0.1839 -0.2353  0.0073
    4FIC    C31 7355   5.165   2.765   5.157  0.0309 -0.1202 -0.1557
    5FIC     F1 7356   5.128   4.380   6.570  0.2325 -0.3711  0.0180
    5FIC     F2 7357   5.200   4.437   6.827 -0.5400 -0.6073  0.2955
    5FIC     O1 7358   5.334   3.883   6.514  0.6310 -0.2149  0.0892
    5FIC     N5 7359   5.451   4.165   7.154 -1.3667 -0.8354  0.7453
    5FIC     N6 7360   5.598   3.765   7.059 -0.8996 -0.6655  0.7448
    5FIC    C19 7361   5.476   3.761   6.739  0.0344 -0.3849  0.3796
    5FIC    C20 7362   5.422   3.884   6.743 -0.0356 -0.4150  0.3508
    5FIC    C21 7363   5.350   3.940   6.623  0.2862 -0.3225  0.1986
    5FIC    C22 7364   5.303   4.074   6.662  0.1112 -0.3850  0.2060
    5FIC    C23 7365   5.232   4.165   6.584  0.2954 -0.3363  0.0921
    5FIC    C24 7366   5.198   4.286   6.642  0.0690 -0.4133  0.1255
    5FIC    C25 7367   5.236   4.315   6.774 -0.3289 -0.5348  0.2684
    5FIC    C26 7368   5.307   4.225   6.852 -0.5146 -0.5840  0.3827
    5FIC    C27 7369   5.342   4.102   6.795 -0.2903 -0.5075  0.3508
    5FIC    C28 7370   5.416   3.986   6.850 -0.3963 -0.5308  0.4456
    5FIC    C29 7371   5.470   3.976   6.977 -0.7594 -0.6390  0.5932
    5FIC    C30 7372   5.459   4.080   7.074 -1.0922 -0.7466  0.6762
    5FIC    C31 7373   5.540   3.860   7.021 -0.8345 -0.6530  0.6758
    1BTD     S2 7374   0.417  10.998   7.044 -0.2177  0.2811  0.0360
    1BTD     N1 7375   0.589  10.953   7.015 -0.2811 -0.1724  0.3513
    1BTD     N2 7376   0.456  11.135   7.153 -0.0413  0.5958 -0.4135
    1BTD     N3 7377   0.845  11.333   7.326  0.2040  0.4182 -0.7604
    1BTD     N4 7378   1.009  11.109   7.156 -0.0916 -0.5288  0.1818
    1BTD     C5 7379   0.806  11.037   7.091 -0.1786 -0.3469  0.2515
    1BTD     C6 7380   0.663  11.038   7.085 -0.1730 -0.0710  0.1173
    1BTD     C7 7381   0.588  11.140   7.163 -0.0388  0.3591 -0.3108
    1BTD     C8 7382   0.661  11.236   7.241  0.0832  0.4916 -0.5833
    1BTD    C15 7383   0.802  11.231   7.243  0.0728  0.2110 -0.4385
    1BTD    C16 7384   0.874  11.133   7.169 -0.0565 -0.2034 -0.0259
    1BTD    C43 7385   1.136  11.160   7.220  0.8292  1.5126 -0.1992
    1BTD    C44 7386   1.161  11.081   7.363 -0.4847 -0.0932  0.3920
    1BTD    C45 7387   1.055  11.051   7.455 -0.6571  0.7889 -0.2228
    1BTD    C46 7388   0.962  10.932   7.442  0.2364  0.0580  0.2624
    1BTD    C47 7389   1.299  11.044   7.411 -0.5718 -0.0164  0.2105
    1BTD    C48 7390   1.365  10.926   7.352 -0.1889  1.0642 -0.2894
    1BTD    C49 7391   1.479  10.873   7.434  0.6911  0.7532 -0.0178
    1BTD    C50 7392   1.456  10.831   7.582  0.4417  0.0616  0.8419
    1BTD    C75 7393   0.950  11.420   7.283  0.6300 -0.0643 -0.1686
    1BTD    C76 7394   1.028  11.525   7.372  0.0365  0.5377 -0.4356
    1BTD    C77 7395   1.121  11.620   7.282 -0.2430 -0.8076 -0.3866
    1BTD    C78 7396   1.168  11.762   7.348 -0.2013  1.0321 -0.1505
    1BTD    C79 7397   1.105  11.433   7.482 -0.5938 -0.9663 -0.5170
    1BTD    C80 7398   1.172  11.509   7.599 -0.1213 -0.0331  0.8354
    1BTD    C81 7399   1.218  11.391   7.681 -0.5717  0.4791 -0.0670
    1BTD    C82 7400   1.335  11.455   7.769  0.2956  0.0013  1.4394
    2TTP     S1 7401   0.902  10.823   6.895  0.0017 -0.1376  0.3930
    2TTP     S5 7402   1.301  10.972   6.958 -0.0261  0.2000 -0.2148
    2TTP     C1 7403   1.304  10.853   6.820 -0.0669 -0.0996  0.0389
    2TTP     C2 7404   1.182  10.800   6.792 -0.0607 -0.2213  0.2416
    2TTP     C3 7405   1.080  10.851   6.879 -0.0235 -0.0823  0.2038
    2TTP     C4 7406   0.899  10.942   7.033  0.0425  0.1621  0.1392
    2TTP    C17 7407   1.022  10.994   7.061  0.0364  0.2841 -0.0634
    2TTP    C18 7408   1.123  10.943   6.974 -0.0009  0.1450 -0.0257
    2TTP    C32 7409   1.156  10.696   6.673  0.5948 -0.3366 -0.0739
    2TTP    C33 7410   1.208  10.552   6.719 -0.2542  0.4274  1.1329
    2TTP    C34 7411   1.177  10.447   6.613  0.0471 -1.4801 -0.5278
    2TTP    C35 7412   1.193  10.302   6.640  0.7364 -0.2171 -1.7485
    2TTP    C36 7413   1.177  10.215   6.756  0.5288  0.2339  0.5229
    2TTP    C37 7414   1.230  10.085   6.700 -0.3823 -0.9414  0.5214
    2TTP    C38 7415   1.381  10.067   6.733 -1.3509  0.1823  1.4127
    2TTP    C39 7416   1.438   9.922   6.705 -0.0921 -0.3005  0.4036
    2TTP    C40 7417   1.587   9.893   6.672  0.4418  0.1796  1.1803
    2TTP    C41 7418   1.618   9.921   6.526  0.2121 -0.6775  0.3054
    2TTP    C42 7419   1.539   9.840   6.436 -1.6205  0.4880 -0.2444
    3TTP     S1 7420   0.467  11.421   7.392  0.0496 -0.1765 -0.4482
    3TTP     S5 7421   0.799  11.581   7.615 -0.2925  0.4857 -0.4101
    3TTP     C1 7422   0.644  11.650   7.683 -0.4208  0.3974 -0.6111
    3TTP     C2 7423   0.533  11.605   7.618 -0.3228  0.1877 -0.6348
    3TTP     C3 7424   0.565  11.514   7.513 -0.1427  0.0892 -0.4950
    3TTP     C4 7425   0.621  11.351   7.325  0.1779 -0.0882 -0.2474
    3TTP    C17 7426   0.733  11.397   7.390  0.0799  0.1215 -0.2235
    3TTP    C18 7427   0.700  11.488   7.495 -0.1002  0.2200 -0.3633
    3TTP    C32 7428   0.392  11.635   7.658  1.3169  0.4734  0.4390
    3TTP    C33 7429   0.350  11.759   7.565  2.2132 -0.0368 -1.2249
    3TTP    C34 7430   0.335  11.731   7.412 -0.1810 -2.2813 -0.6395
    3TTP    C35 7431   0.365  11.887   7.379 -0.5255 -1.2281  0.7783
    3TTP    C36 7432   0.332  11.935   7.231 -0.9972  0.5714 -0.1427
    3TTP    C37 7433   0.307  12.075   7.216  0.1443 -0.1389  1.1928
    3TTP    C38 7434   0.237  12.106   7.075  0.3562 -0.4971 -0.0111
    3TTP    C39 7435   0.096  12.147   7.120 -1.5770  0.8422  1.1216
    3TTP    C40 7436  -0.009  12.223   7.033 -0.5010 -0.6585 -1.0605
    3TTP    C41 7437  -0.054  12.369   7.064 -0.2978  0.1914  0.2150
    3TTP    C42 7438  -0.135  12.438   6.944 -0.2928 -0.5152 -1.4164
    4FIC     F1 7439   2.097  10.805   7.029  0.0779 -0.4804 -0.2513
    4FIC     F2 7440   2.147  10.687   6.790 -0.1931  0.2770 -0.6918
    4FIC     O1 7441   1.564  10.893   6.989  0.0154 -0.4196  0.6654
    4FIC     N5 7442   1.841  10.578   6.417 -0.6270  1.4098 -0.6715
    4FIC     N6 7443   1.414  10.671   6.433 -0.6213  1.3049  0.1336
    4FIC    C19 7444   1.423  10.811   6.746 -0.2656  0.3260  0.5703
    4FIC    C20 7445   1.555  10.794   6.765 -0.2393  0.2811  0.3569
    4FIC    C21 7446   1.620  10.839   6.893 -0.0919 -0.1116  0.4228
    4FIC    C22 7447   1.763  10.805   6.881 -0.1009 -0.0575  0.1440
    4FIC    C23 7448   1.864  10.827   6.975  0.0088 -0.3388  0.0956
    4FIC    C24 7449   1.992  10.786   6.941 -0.0254 -0.2176 -0.1878
    4FIC    C25 7450   2.018  10.725   6.818 -0.1651  0.1728 -0.4143
    4FIC    C26 7451   1.918  10.702   6.724 -0.2749  0.4547 -0.3678
    4FIC    C27 7452   1.788  10.743   6.756 -0.2424  0.3383 -0.0821
    4FIC    C28 7453   1.661  10.734   6.680 -0.3330  0.5615  0.0397
    4FIC    C29 7454   1.645  10.680   6.554 -0.4764  0.9537 -0.1127
    4FIC    C30 7455   1.753  10.624   6.479 -0.5588  1.2028 -0.4194
    4FIC    C31 7456   1.518  10.675   6.489 -0.5552  1.1444  0.0237
    5FIC     F1 7457   1.246  12.020   8.078  0.1627 -0.1884 -0.0422
    5FIC     F2 7458   1.111  11.979   8.311  0.0886 -0.1742 -0.0827
    5FIC     O1 7459   0.893  11.822   7.719  0.1790 -0.0006 -0.1627
    5FIC     N5 7460   0.665  11.779   8.389 -0.0062 -0.0198 -0.2260
    5FIC     N6 7461   0.416  11.632   8.061  0.0215  0.1240 -0.3116
    5FIC    C19 7462   0.638  11.712   7.813  0.1140  0.0797 -0.2436
    5FIC    C20 7463   0.733  11.764   7.895  0.1128  0.0319 -0.2118
    5FIC    C21 7464   0.861  11.818   7.838  0.1474 -0.0073 -0.1712
    5FIC    C22 7465   0.940  11.866   7.953  0.1363 -0.0547 -0.1436
    5FIC    C23 7466   1.066  11.924   7.951  0.1588 -0.1016 -0.1026
    5FIC    C24 7467   1.121  11.962   8.073  0.1420 -0.1411 -0.0829
    5FIC    C25 7468   1.052  11.940   8.193  0.1039 -0.1336 -0.1039
    5FIC    C26 7469   0.926  11.882   8.196  0.0813 -0.0870 -0.1445
    5FIC    C27 7470   0.868  11.844   8.073  0.0978 -0.0466 -0.1652
    5FIC    C28 7471   0.738  11.780   8.042  0.0818  0.0070 -0.2079
    5FIC    C29 7472   0.641  11.744   8.132  0.0453  0.0291 -0.2377
    5FIC    C30 7473   0.655  11.763   8.273  0.0171  0.0021 -0.2313
    5FIC    C31 7474   0.518  11.683   8.093  0.0324  0.0812 -0.2780
    1BTD     S2 7475   0.988   3.104   3.500  0.1994 -0.2759 -0.1955
    1BTD     N1 7476   1.104   3.237   3.533 -0.4277  0.0424  0.8276
    1BTD     N2 7477   1.084   2.978   3.586  0.8577 -0.5327 -1.2787
    1BTD     N3 7478   1.491   2.963   3.819  1.0672 -0.4808 -1.6390
    1BTD     N4 7479   1.516   3.282   3.754 -0.5167  0.2279  0.9562
    1BTD     C5 7480   1.319   3.256   3.650 -0.4551  0.1307  0.8634
    1BTD     C6 7481   1.204   3.184   3.603 -0.1294 -0.0539  0.3344
    1BTD     C7 7482   1.193   3.039   3.632  0.5901 -0.3759 -0.8445
    1BTD     C8 7483   1.297   2.974   3.707  0.9480 -0.4970 -1.4355
    1BTD    C15 7484   1.408   3.049   3.751  0.6086 -0.3077 -0.8837
    1BTD    C16 7485   1.418   3.189   3.722 -0.0847  0.0024  0.2522
    1BTD    C43 7486   1.667   3.258   3.759 -0.6884  0.1207 -0.9472
    1BTD    C44 7487   1.742   3.263   3.635 -0.3512  0.8763 -0.7604
    1BTD    C45 7488   1.724   3.119   3.569 -0.6231  0.6077 -1.1059
    1BTD    C46 7489   1.671   3.101   3.432 -0.2237 -1.1032 -0.7258
    1BTD    C47 7490   1.883   3.321   3.654 -0.7748  0.0926 -0.7289
    1BTD    C48 7491   1.912   3.468   3.699 -0.9474  0.4856 -0.0876
    1BTD    C49 7492   1.902   3.589   3.614 -0.1809 -0.1262 -0.5586
    1BTD    C50 7493   2.024   3.637   3.532 -0.0223 -1.8372 -0.0825
    1BTD    C75 7494   1.582   3.010   3.927  0.5351 -0.7463  1.6778
    1BTD    C76 7495   1.690   2.949   4.031  0.1113  1.1408  1.3920
    1BTD    C77 7496   1.744   3.025   4.145  0.9488 -0.7143  0.9479
    1BTD    C78 7497   1.655   3.126   4.207 -0.1030 -0.1304  0.4324
    1BTD    C79 7498   1.802   2.866   3.964  0.4165  1.3470  0.9380
    1BTD    C80 7499   1.893   2.779   4.058  0.6982  0.5610  0.0980
    1BTD    C81 7500   1.863   2.723   4.195  0.8548 -0.2639 -0.5299
    1BTD    C82 7501   1.920   2.589   4.240 -0.6780  0.2909 -1.0528
    2TTP     S1 7502   1.255   3.549   3.618  0.2986 -0.0620  0.1422
    2TTP     S5 7503   1.578   3.635   3.889 -0.1333  0.1458  0.5943
    2TTP     C1 7504   1.488   3.790   3.855 -0.4024  0.0249  0.7504
    2TTP     C2 7505   1.383   3.772   3.769 -0.2849 -0.0464  0.6200
    2TTP     C3 7506   1.370   3.636   3.727  0.0219 -0.0081  0.3920
    2TTP     C4 7507   1.345   3.395   3.652  0.5676  0.0589 -0.0140
    2TTP    C17 7508   1.450   3.412   3.738  0.4502  0.1303  0.1164
    2TTP    C18 7509   1.463   3.548   3.780  0.1433  0.0919  0.3443
    2TTP    C32 7510   1.300   3.879   3.693 -0.7108  0.1799 -0.2467
    2TTP    C33 7511   1.359   3.912   3.557 -0.1319  0.8966  0.0494
    2TTP    C34 7512   1.285   4.010   3.468  1.4260  0.2204  1.1029
    2TTP    C35 7513   1.137   3.980   3.424  0.0509 -0.5694  0.4688
    2TTP    C36 7514   1.079   4.113   3.371  0.9591 -0.1219  0.9375
    2TTP    C37 7515   0.989   4.094   3.252 -0.1607  1.8776 -0.4335
    2TTP    C38 7516   0.942   4.215   3.171  1.1057 -0.0775 -0.1057
    2TTP    C39 7517   0.866   4.187   3.040 -0.3930 -1.1967 -1.0888
    2TTP    C40 7518   0.718   4.145   3.037  0.4317  0.4522 -0.8193
    2TTP    C41 7519   0.605   4.224   3.112  0.9419  0.6220 -0.5732
    2TTP    C42 7520   0.490   4.221   3.016 -0.9604  0.8275 -0.9666
    3TTP     S1 7521   1.227   2.686   3.731 -0.1290  0.2522  0.5932
    3TTP     S5 7522   1.630   2.614   3.864 -0.0641 -0.4622  0.0204
    3TTP     C1 7523   1.551   2.454   3.829 -0.4647 -0.3342  0.3194
    3TTP     C2 7524   1.422   2.467   3.785 -0.5084 -0.1061  0.5139
    3TTP     C3 7525   1.381   2.604   3.779 -0.2271 -0.0241  0.4338
    3TTP     C4 7526   1.306   2.846   3.767  0.2716  0.1242  0.2942
    3TTP    C17 7527   1.435   2.833   3.810  0.3152 -0.1040  0.0997
    3TTP    C18 7528   1.476   2.697   3.817  0.0339 -0.1859  0.1797
    3TTP    C32 7529   1.316   2.352   3.742  0.5293 -0.6420  0.1926
    3TTP    C33 7530   1.327   2.291   3.599  0.6822 -0.7679 -0.4529
    3TTP    C34 7531   1.335   2.365   3.469 -0.3120  1.2911 -0.9070
    3TTP    C35 7532   1.321   2.279   3.349  0.6104 -1.4032 -0.6274
    3TTP    C36 7533   1.377   2.148   3.334  0.2402  0.0822  0.0435
    3TTP    C37 7534   1.389   2.132   3.182 -0.1559 -1.1211  1.5373
    3TTP    C38 7535   1.481   2.032   3.130 -0.5192 -0.0607 -0.7977
    3TTP    C39 7536   1.490   2.023   2.975 -1.9541 -1.0330 -0.2079
    3TTP    C40 7537   1.611   2.121   2.927 -0.9315 -0.6337 -0.3864
    3TTP    C41 7538   1.636   2.111   2.776 -0.8830  0.4563  0.8857
    3TTP    C42 7539   1.721   2.237   2.740  1.0752 -0.3383 -0.7535
    4FIC     F1 7540   1.826   4.022   4.561  0.4485 -0.0262 -0.3386
    4FIC     F2 7541   1.759   4.280   4.506 -0.3808 -0.1339  0.1376
    4FIC     O1 7542   1.628   3.770   4.125  0.4402  0.0292 -0.3666
    4FIC     N5 7543   1.522   4.472   4.117 -1.5791 -0.2490  0.8020
    4FIC     N6 7544   1.380   4.223   3.787 -1.4184 -0.1839  0.6840
    4FIC    C19 7545   1.494   3.927   3.918 -0.3551 -0.0538  0.0783
    4FIC    C20 7546   1.546   3.981   4.029 -0.3206 -0.0635  0.0668
    4FIC    C21 7547   1.614   3.893   4.131  0.0993 -0.0188 -0.1688
    4FIC    C22 7548   1.659   3.983   4.240  0.0246 -0.0432 -0.1173
    4FIC    C23 7549   1.727   3.948   4.356  0.3193 -0.0174 -0.2792
    4FIC    C24 7550   1.759   4.050   4.444  0.1740 -0.0491 -0.1884
    4FIC    C25 7551   1.724   4.183   4.416 -0.2535 -0.1044  0.0570
    4FIC    C26 7552   1.657   4.218   4.300 -0.5493 -0.1303  0.2195
    4FIC    C27 7553   1.623   4.116   4.209 -0.4081 -0.0991  0.1309
    4FIC    C28 7554   1.552   4.120   4.079 -0.6372 -0.1138  0.2537
    4FIC    C29 7555   1.502   4.232   4.017 -1.0616 -0.1644  0.4947
    4FIC    C30 7556   1.513   4.364   4.072 -1.3447 -0.2106  0.6628
    4FIC    C31 7557   1.436   4.226   3.891 -1.2555 -0.1748  0.5975
    5FIC     F1 7558   2.341   2.195   3.778 -0.3406  0.2393  0.3164
    5FIC     F2 7559   2.248   1.940   3.798 -0.3171  0.2526  0.6067
    5FIC     O1 7560   1.878   2.475   3.800 -0.3951  0.2053 -0.3688
    5FIC     N5 7561   1.784   1.773   3.842 -0.3221  0.2475  0.5356
    5FIC     N6 7562   1.441   2.043   3.855 -0.3694  0.2182 -0.0584
    5FIC    C19 7563   1.624   2.330   3.826 -0.3919  0.2059 -0.3349
    5FIC    C20 7564   1.745   2.270   3.820 -0.3791  0.2139 -0.1738
    5FIC    C21 7565   1.870   2.351   3.806 -0.3817  0.2130 -0.2035
    5FIC    C22 7566   1.982   2.255   3.803 -0.3654  0.2230  0.0014
    5FIC    C23 7567   2.118   2.283   3.791 -0.3616  0.2259  0.0513
    5FIC    C24 7568   2.205   2.175   3.790 -0.3453  0.2359  0.2562
    5FIC    C25 7569   2.157   2.043   3.800 -0.3331  0.2428  0.4055
    5FIC    C26 7570   2.021   2.015   3.812 -0.3369  0.2399  0.3568
    5FIC    C27 7571   1.932   2.123   3.813 -0.3534  0.2299  0.1500
    5FIC    C28 7572   1.784   2.127   3.824 -0.3614  0.2245  0.0483
    5FIC    C29 7573   1.700   2.019   3.836 -0.3536  0.2286  0.1422
    5FIC    C30 7574   1.746   1.884   3.839 -0.3363  0.2390  0.3583
    5FIC    C31 7575   1.558   2.033   3.846 -0.3623  0.2229  0.0314
    1BTD     S2 7576   7.736   0.866   1.554 -0.0139 -0.0682 -0.0230
    1BTD     N1 7577   7.619   0.822   1.684 -0.2773 -0.0716 -0.2618
    1BTD     N2 7578   7.692   1.040   1.553  0.3138  0.0191  0.2116
    1BTD     N3 7579   7.390   1.316   1.783  0.5058  0.1907  0.2585
    1BTD     N4 7580   7.300   1.047   1.944 -0.2227  0.0790 -0.3247
    1BTD     C5 7581   7.454   0.942   1.818 -0.2400  0.0084 -0.2876
    1BTD     C6 7582   7.556   0.933   1.717 -0.1158 -0.0107 -0.1596
    1BTD     C7 7583   7.597   1.056   1.644  0.2152  0.0401  0.1054
    1BTD     C8 7584   7.533   1.181   1.675  0.4052  0.1074  0.2291
    1BTD    C15 7585   7.433   1.185   1.774  0.2738  0.1237  0.0963
    1BTD    C16 7586   7.394   1.067   1.845 -0.0451  0.0748 -0.1589
    1BTD    C43 7587   7.284   1.123   2.073 -0.1816 -0.0622  0.2726
    1BTD    C44 7588   7.361   1.117   2.204 -1.1257  0.1121 -0.0753
    1BTD    C45 7589   7.354   0.997   2.298  0.0100  0.3577  0.6864
    1BTD    C46 7590   7.220   0.965   2.374  0.5692 -1.1766 -0.3990
    1BTD    C47 7591   7.526   1.115   2.178  0.3013  0.8716  0.1147
    1BTD    C48 7592   7.593   1.221   2.102  0.0875 -0.1480  0.9895
    1BTD    C49 7593   7.611   1.357   2.153 -0.7057  1.2818 -0.5695
    1BTD    C50 7594   7.554   1.403   2.293  1.6982 -0.8951 -0.2954
    1BTD    C75 7595   7.264   1.357   1.823  0.5194 -0.1200 -1.5981
    1BTD    C76 7596   7.133   1.283   1.787  0.7832 -0.3997 -1.2191
    1BTD    C77 7597   7.099   1.240   1.639 -0.2271 -0.0105 -1.1897
    1BTD    C78 7598   7.124   1.351   1.534  0.4321 -0.5989 -0.6468
    1BTD    C79 7599   7.007   1.339   1.860 -0.3184 -0.7521 -0.5661
    1BTD    C80 7600   7.017   1.365   2.001 -0.4349  0.2345  0.6999
    1BTD    C81 7601   6.928   1.475   2.062  0.0479  0.3489  1.0543
    1BTD    C82 7602   6.976   1.504   2.206  0.1682 -1.1470 -0.6307
    2TTP     S1 7603   7.351   0.662   1.905 -0.0459 -0.1018 -0.0851
    2TTP     S5 7604   7.025   0.851   2.112 -0.0749 -0.7226  0.4438
    2TTP     C1 7605   6.997   0.672   2.112 -0.1607 -0.7157 -0.2473
    2TTP     C2 7606   7.096   0.603   2.048 -0.1569 -0.5236 -0.4513
    2TTP     C3 7607   7.198   0.689   1.997 -0.0859 -0.3749 -0.0693
    2TTP     C4 7608   7.379   0.842   1.904  0.0398 -0.1086  0.6060
    2TTP    C17 7609   7.280   0.911   1.968  0.0359 -0.3007  0.8100
    2TTP    C18 7610   7.179   0.824   2.020 -0.0350 -0.4494  0.4279
    2TTP    C32 7611   7.091   0.460   2.004  1.5137 -0.1651  1.1035
    2TTP    C33 7612   7.209   0.363   1.997 -0.0213 -0.3608 -0.7356
    2TTP    C34 7613   7.191   0.267   1.890 -0.2870  0.9831 -0.6730
    2TTP    C35 7614   7.156   0.124   1.919 -0.3840 -0.2260  0.5496
    2TTP    C36 7615   7.037   0.105   2.020  1.0158  0.6949 -0.4204
    2TTP    C37 7616   6.996  -0.037   2.040  0.1865  0.3537  0.0899
    2TTP    C38 7617   6.903  -0.033   2.167  0.4098  1.0043  0.7917
    2TTP    C39 7618   6.851  -0.170   2.192 -0.7090  1.9588 -0.8775
    2TTP    C40 7619   6.751  -0.259   2.140  0.7205  1.8139  1.4625
    2TTP    C41 7620   6.621  -0.271   2.228  1.3976  0.2046  0.6787
    2TTP    C42 7621   6.649  -0.329   2.368 -0.3455  0.1278 -0.5728
    3TTP     S1 7622   7.669   1.391   1.523  0.1328 -0.1977 -0.2134
    3TTP     S5 7623   7.423   1.684   1.719  0.4364  0.1205 -0.3058
    3TTP     C1 7624   7.543   1.770   1.613  0.5676 -0.0348 -0.2848
    3TTP     C2 7625   7.626   1.685   1.546  0.4817 -0.1422 -0.2550
    3TTP     C3 7626   7.598   1.548   1.577  0.3090 -0.1057 -0.2477
    3TTP     C4 7627   7.549   1.304   1.630  0.0015 -0.0424 -0.2344
    3TTP    C17 7628   7.466   1.390   1.696  0.0875  0.0649 -0.2642
    3TTP    C18 7629   7.494   1.527   1.666  0.2601  0.0285 -0.2715
    3TTP    C32 7630   7.747   1.694   1.443  0.1041 -0.8744 -0.9159
    3TTP    C33 7631   7.884   1.667   1.496 -0.8843  1.0088 -0.4420
    3TTP    C34 7632   7.937   1.768   1.583 -1.0076 -0.4089  0.3073
    3TTP    C35 7633   8.066   1.721   1.649  0.2168 -0.3811  0.5615
    3TTP    C36 7634   8.059   1.635   1.768  0.1318 -0.4084  0.9762
    3TTP    C37 7635   8.014   1.497   1.762  0.3566 -0.7708 -1.1174
    3TTP    C38 7636   8.093   1.374   1.703  0.1375 -0.9035  0.2741
    3TTP    C39 7637   8.186   1.276   1.796  0.5516 -0.7527  0.1398
    3TTP    C40 7638   8.262   1.179   1.709 -0.8976 -0.7331 -0.2297
    3TTP    C41 7639   8.390   1.115   1.778 -0.8665  0.4881  0.9854
    3TTP    C42 7640   8.528   1.174   1.704 -0.3690  0.8769  0.2352
    4FIC     F1 7641   6.233   0.949   2.162 -0.1076 -0.2892  0.1324
    4FIC     F2 7642   6.169   0.727   2.306  0.1930  0.0472  0.7979
    4FIC     O1 7643   6.755   0.854   2.054 -0.2291 -0.3536 -0.4051
    4FIC     N5 7644   6.448   0.340   2.435  0.5386  0.4849  1.3716
    4FIC     N6 7645   6.869   0.310   2.322  0.3831  0.3667  0.8174
    4FIC    C19 7646   6.879   0.608   2.153  0.0148 -0.0551  0.0397
    4FIC    C20 7647   6.750   0.640   2.174  0.0336 -0.0520  0.1490
    4FIC    C21 7648   6.693   0.769   2.120 -0.0972 -0.2108 -0.0952
    4FIC    C22 7649   6.552   0.773   2.162 -0.0378 -0.1629  0.1061
    4FIC    C23 7650   6.459   0.873   2.135 -0.1168 -0.2674 -0.0094
    4FIC    C24 7651   6.330   0.855   2.185 -0.0364 -0.1932  0.2291
    4FIC    C25 7652   6.297   0.740   2.259  0.1186 -0.0199  0.5718
    4FIC    C26 7653   6.390   0.640   2.286  0.1982  0.0851  0.6887
    4FIC    C27 7654   6.520   0.657   2.236  0.1185  0.0123  0.4510
    4FIC    C28 7655   6.641   0.571   2.247  0.1687  0.0873  0.4910
    4FIC    C29 7656   6.649   0.450   2.312  0.3126  0.2541  0.7883
    4FIC    C30 7657   6.539   0.390   2.379  0.4363  0.3804  1.1080
    4FIC    C31 7658   6.770   0.374   2.317  0.3504  0.3151  0.8026
    5FIC     F1 7659   7.225   2.517   1.788  0.5572 -0.0760  1.1396
    5FIC     F2 7660   7.390   2.623   1.599 -0.5132  0.0272  0.2431
    5FIC     O1 7661   7.363   1.994   1.763  0.9441  0.0501  0.5951
    5FIC     N5 7662   7.725   2.402   1.309 -1.7763  0.2657 -1.4340
    5FIC     N6 7663   7.800   1.972   1.328 -1.2584  0.3434 -1.6789
    5FIC    C19 7664   7.570   1.910   1.574  0.0591  0.1935 -0.4549
    5FIC    C20 7665   7.528   2.037   1.587  0.0035  0.1578 -0.2829
    5FIC    C21 7666   7.422   2.073   1.687  0.4776  0.0842  0.2623
    5FIC    C22 7667   7.401   2.218   1.676  0.2781  0.0610  0.3206
    5FIC    C23 7668   7.312   2.297   1.748  0.5697 -0.0035  0.7585
    5FIC    C24 7669   7.311   2.433   1.720  0.2931 -0.0134  0.7212
    5FIC    C25 7670   7.396   2.487   1.623 -0.2582  0.0399  0.2589
    5FIC    C26 7671   7.485   2.409   1.550 -0.5521  0.1044 -0.1794
    5FIC    C27 7672   7.488   2.272   1.577 -0.2788  0.1154 -0.1492
    5FIC    C28 7673   7.569   2.162   1.519 -0.4694  0.1770 -0.5384
    5FIC    C29 7674   7.664   2.175   1.420 -0.9857  0.2397 -1.0398
    5FIC    C30 7675   7.698   2.300   1.360 -1.4186  0.2537 -1.2548
    5FIC    C31 7676   7.738   2.063   1.370 -1.1327  0.2964 -1.3884
    1BTD     S2 7677   7.585   8.400   9.970 -0.5734 -0.2780  0.3548
    1BTD     N1 7678   7.617   8.413  10.146 -0.4693 -0.2878  0.3369
    1BTD     N2 7679   7.749   8.338   9.930 -0.4820  0.0525  0.2093
    1BTD     N3 7680   8.141   8.235  10.167 -0.1073  0.7081 -0.1199
    1BTD     N4 7681   7.978   8.328  10.434 -0.0918  0.2890  0.0374
    1BTD     C5 7682   7.808   8.368  10.293 -0.2725  0.0184  0.1786
    1BTD     C6 7683   7.742   8.373  10.165 -0.3766 -0.0560  0.2289
    1BTD     C7 7684   7.816   8.331  10.044 -0.3835  0.1345  0.1574
    1BTD     C8 7685   7.952   8.285  10.057 -0.2861  0.3901  0.0393
    1BTD    C15 7686   8.012   8.282  10.184 -0.1858  0.4541 -0.0060
    1BTD    C16 7687   7.941   8.323  10.301 -0.1793  0.2706  0.0625
    1BTD    C43 7688   8.114   8.388  10.477  0.4452  0.7037 -0.1360
    1BTD    C44 7689   8.144   8.415  10.622 -0.3300 -0.4464 -0.7145
    1BTD    C45 7690   8.287   8.417  10.690  0.1212 -1.4123  0.8960
    1BTD    C46 7691   8.377   8.288  10.679  0.2368 -0.8141 -0.0304
    1BTD    C47 7692   8.082   8.561  10.648 -0.8656 -0.3530 -0.6430
    1BTD    C48 7693   8.095   8.632  10.788 -0.8279  0.4871 -0.1464
    1BTD    C49 7694   8.055   8.783  10.779 -1.0597  1.0627  0.4913
    1BTD    C50 7695   8.179   8.881  10.796 -0.0531  0.8395  2.5628
    1BTD    C75 7696   8.231   8.175  10.281 -0.1602 -0.2479  0.3643
    1BTD    C76 7697   8.359   8.091  10.269 -0.2218  1.3565  0.3499
    1BTD    C77 7698   8.309   7.946  10.213  0.7949 -1.0135  0.6232
    1BTD    C78 7699   8.240   7.832  10.295 -0.0285 -0.1759 -1.1236
    1BTD    C79 7700   8.458   8.074  10.392 -0.3793  0.1668  0.4697
    1BTD    C80 7701   8.608   8.038  10.385 -0.5661 -0.5045  0.7414
    1BTD    C81 7702   8.656   7.928  10.285  0.8931  1.5355  0.1339
    1BTD    C82 7703   8.783   7.956  10.236 -0.0435  0.8866 -0.2182
    2TTP     S1 7704   7.602   8.378  10.490 -0.4318  0.0931  0.1399
    2TTP     S5 7705   7.868   8.187  10.769  0.0384 -0.0229 -0.3846
    2TTP     C1 7706   7.697   8.170  10.831  0.1542  0.0846 -0.0281
    2TTP     C2 7707   7.605   8.228  10.748  0.0159  0.1264  0.1550
    2TTP     C3 7708   7.666   8.288  10.633 -0.1866  0.0758  0.0200
    2TTP     C4 7709   7.772   8.396  10.429 -0.5476 -0.0141 -0.2167
    2TTP    C17 7710   7.864   8.338  10.512 -0.4092 -0.0563 -0.3999
    2TTP    C18 7711   7.804   8.277  10.626 -0.2067 -0.0052 -0.2649
    2TTP    C32 7712   7.465   8.265  10.748  0.9894 -0.3458 -0.1007
    2TTP    C33 7713   7.428   8.410  10.771  0.3118  0.7302 -0.1365
    2TTP    C34 7714   7.433   8.466  10.916  0.2360  0.1583 -0.1012
    2TTP    C35 7715   7.569   8.526  10.950 -0.0965  0.5137 -0.3112
    2TTP    C36 7716   7.556   8.603  11.083 -0.7408 -0.2743  1.0455
    2TTP    C37 7717   7.684   8.642  11.149 -1.0516 -0.8047  0.4568
    2TTP    C38 7718   7.824   8.682  11.076  0.1948 -0.2529 -0.8485
    2TTP    C39 7719   7.901   8.769  11.195 -0.5912  1.4728  1.2455
    2TTP    C40 7720   8.026   8.691  11.261  0.6128 -0.5667 -0.4377
    2TTP    C41 7721   8.034   8.749  11.406 -0.6588 -0.6199  0.3279
    2TTP    C42 7722   7.933   8.674  11.509 -0.2983  0.4910  1.5239
    3TTP     S1 7723   8.084   8.315   9.787  0.0331 -0.0810 -0.4202
    3TTP     S5 7724   8.464   8.269   9.983 -0.0110  0.4077 -0.2167
    3TTP     C1 7725   8.494   8.319   9.811  0.0286 -0.0621 -0.3502
    3TTP     C2 7726   8.378   8.337   9.740  0.0448 -0.2413 -0.4213
    3TTP     C3 7727   8.262   8.311   9.819  0.0260 -0.0131 -0.3724
    3TTP     C4 7728   8.055   8.265   9.959 -0.0069  0.3891 -0.2868
    3TTP    C17 7729   8.170   8.247  10.030 -0.0230  0.5679 -0.2160
    3TTP    C18 7730   8.286   8.273   9.951 -0.0043  0.3397 -0.2644
    3TTP    C32 7731   8.355   8.375   9.593  1.3103  0.3428  0.5737
    3TTP    C33 7732   8.225   8.308   9.516 -0.0484 -1.3968 -1.0080
    3TTP    C34 7733   8.249   8.210   9.406  0.2949 -1.0880 -0.1320
    3TTP    C35 7734   8.320   8.076   9.431 -1.2214  0.6083  1.4193
    3TTP    C36 7735   8.353   8.018   9.565  0.2092 -0.2055  0.6094
    3TTP    C37 7736   8.241   7.960   9.643 -0.1732  1.0260 -1.0762
    3TTP    C38 7737   8.300   7.857   9.745 -0.1194  0.0852 -0.0742
    3TTP    C39 7738   8.415   7.894   9.846  0.4860  0.5726  0.1839
    3TTP    C40 7739   8.534   7.790   9.802  0.3291 -0.1258  0.0713
    3TTP    C41 7740   8.634   7.786   9.911  0.2681  0.3708 -0.6147
    3TTP    C42 7741   8.756   7.840   9.859 -0.5389 -0.6892 -1.0194
    4FIC     F1 7742   8.022   8.149  11.574  0.6404 -0.1135 -0.2582
    4FIC     F2 7743   7.812   7.999  11.660  0.5989 -0.0355 -0.2241
    4FIC     O1 7744   7.883   8.233  11.057  0.3151  0.4046 -0.0877
    4FIC     N5 7745   7.410   7.844  11.416  0.3073  0.4451 -0.0534
    4FIC     N6 7746   7.344   7.940  10.995  0.0614  0.8345  0.0730
    4FIC    C19 7747   7.633   8.120  10.956  0.1597  0.6629  0.0057
    4FIC    C20 7748   7.676   8.105  11.083  0.2432  0.5298 -0.0386
    4FIC    C21 7749   7.806   8.166  11.127  0.3197  0.4022 -0.0851
    4FIC    C22 7750   7.822   8.130  11.269  0.4003  0.2747 -0.1259
    4FIC    C23 7751   7.928   8.164  11.354  0.4874  0.1321 -0.1762
    4FIC    C24 7752   7.921   8.119  11.485  0.5530  0.0299 -0.2083
    4FIC    C25 7753   7.813   8.042  11.529  0.5313  0.0700 -0.1908
    4FIC    C26 7754   7.708   8.007  11.445  0.4447  0.2124 -0.1409
    4FIC    C27 7755   7.712   8.052  11.312  0.3773  0.3173 -0.1078
    4FIC    C28 7756   7.618   8.034  11.199  0.2799  0.4756 -0.0534
    4FIC    C29 7757   7.499   7.964  11.202  0.2328  0.5563 -0.0224
    4FIC    C30 7758   7.451   7.898  11.320  0.2739  0.4950 -0.0396
    4FIC    C31 7759   7.415   7.951  11.088  0.1388  0.7089  0.0300
    5FIC     F1 7760   9.286   8.137   9.970 -0.1588  0.2723  0.1557
    5FIC     F2 7761   9.351   8.250   9.731 -0.1137  0.1783  0.1223
    5FIC     O1 7762   8.748   8.198   9.970 -0.2344 -0.3674 -0.2971
    5FIC     N5 7763   9.061   8.458   9.388 -0.1032 -0.4134 -0.2482
    5FIC     N6 7764   8.627   8.483   9.436 -0.1712 -0.8948 -0.5951
    5FIC    C19 7765   8.619   8.329   9.742 -0.2180 -0.6851 -0.4895
    5FIC    C20 7766   8.752   8.309   9.751 -0.2010 -0.5200 -0.3743
    5FIC    C21 7767   8.811   8.241   9.872 -0.2108 -0.3636 -0.2804
    5FIC    C22 7768   8.956   8.236   9.849 -0.1869 -0.2062 -0.1657
    5FIC    C23 7769   9.053   8.182   9.934 -0.1860 -0.0305 -0.0534
    5FIC    C24 7770   9.185   8.188   9.891 -0.1615  0.0962  0.0420
    5FIC    C25 7771   9.218   8.247   9.768 -0.1384  0.0473  0.0246
    5FIC    C26 7772   9.122   8.301   9.684 -0.1392 -0.1278 -0.0873
    5FIC    C27 7773   8.988   8.295   9.725 -0.1640 -0.2577 -0.1853
    5FIC    C28 7774   8.864   8.343   9.660 -0.1717 -0.4528 -0.3140
    5FIC    C29 7775   8.854   8.406   9.538 -0.1545 -0.5517 -0.3669
    5FIC    C30 7776   8.968   8.434   9.456 -0.1264 -0.4754 -0.3011
    5FIC    C31 7777   8.729   8.448   9.483 -0.1636 -0.7398 -0.4921
    1BTD     S2 7778   1.807   2.655   7.733  0.0592  0.3052  0.0440
    1BTD     N1 7779   1.720   2.667   7.576 -0.0484  0.3859  0.1100
    1BTD     N2 7780   1.694   2.534   7.803  0.0761  0.3104  0.0801
    1BTD     N3 7781   1.306   2.310   7.664 -0.0837  0.4666  0.2728
    1BTD     N4 7782   1.337   2.474   7.385 -0.2371  0.5597  0.3098
    1BTD     C5 7783   1.520   2.564   7.480 -0.1450  0.4755  0.2140
    1BTD     C6 7784   1.616   2.585   7.584 -0.0653  0.4112  0.1533
    1BTD     C7 7785   1.602   2.511   7.711  0.0044  0.3689  0.1365
    1BTD     C8 7786   1.492   2.419   7.728 -0.0092  0.3931  0.1811
    1BTD    C15 7787   1.400   2.402   7.622 -0.0884  0.4564  0.2400
    1BTD    C16 7788   1.414   2.474   7.500 -0.1555  0.4970  0.2560
    1BTD    C43 7789   1.216   2.393   7.344  0.1355 -0.3276 -1.3611
    1BTD    C44 7790   1.065   2.421   7.377 -0.9395 -0.6700  0.0223
    1BTD    C45 7791   1.032   2.477   7.502  0.5522  0.5922  0.9522
    1BTD    C46 7792   0.987   2.614   7.502 -0.9593 -1.2652  0.1173
    1BTD    C47 7793   0.967   2.318   7.304 -0.8879  1.0504 -0.0939
    1BTD    C48 7794   0.814   2.351   7.281  0.7529 -1.2251 -0.3781
    1BTD    C49 7795   0.709   2.333   7.386 -0.0899  0.6146  0.0209
    1BTD    C50 7796   0.697   2.214   7.461 -1.1373  0.3737  0.7358
    1BTD    C75 7797   1.242   2.199   7.607  0.5624  1.1504  0.7512
    1BTD    C76 7798   1.301   2.063   7.588 -0.8927  1.2661  0.0158
    1BTD    C77 7799   1.185   1.975   7.540  0.2765  0.9242 -0.9886
    1BTD    C78 7800   1.170   1.827   7.517 -0.1903  0.9145 -0.4082
    1BTD    C79 7801   1.438   2.061   7.521  0.7211 -0.1028  1.0966
    1BTD    C80 7802   1.431   2.035   7.369 -0.3850 -2.0406  0.2129
    1BTD    C81 7803   1.573   2.078   7.293 -0.2050  0.6710  0.3090
    1BTD    C82 7804   1.625   2.220   7.289  0.2712 -0.7346 -0.8521
    2TTP     S1 7805   1.601   2.712   7.230 -0.2936 -0.1917 -0.2834
    2TTP     S5 7806   1.258   2.544   7.030 -0.6364 -0.1069  0.2306
    2TTP     C1 7807   1.346   2.653   6.914 -0.5244 -0.4881 -0.0435
    2TTP     C2 7808   1.457   2.711   6.968 -0.4120 -0.5367 -0.2183
    2TTP     C3 7809   1.477   2.672   7.104 -0.4102 -0.2748 -0.1422
    2TTP     C4 7810   1.513   2.603   7.346 -0.4057  0.1894 -0.0092
    2TTP    C17 7811   1.402   2.545   7.292 -0.5181  0.2381  0.1655
    2TTP    C18 7812   1.383   2.584   7.156 -0.5199 -0.0239  0.0893
    2TTP    C32 7813   1.549   2.815   6.916  0.1087 -1.5033  0.9214
    2TTP    C33 7814   1.582   2.853   6.768 -0.7431 -0.2775 -0.1768
    2TTP    C34 7815   1.653   2.742   6.674  1.7405 -0.4646 -1.3173
    2TTP    C35 7816   1.637   2.795   6.527  0.1554 -1.1357 -0.0831
    2TTP    C36 7817   1.755   2.781   6.439 -0.4253 -1.0839  0.1602
    2TTP    C37 7818   1.759   2.857   6.309  0.5374 -0.1984  0.9815
    2TTP    C38 7819   1.754   2.768   6.182 -0.1805  0.6448  0.1211
    2TTP    C39 7820   1.643   2.653   6.181  0.8934 -0.1616  0.6362
    2TTP    C40 7821   1.683   2.566   6.060 -0.9599 -0.8932  1.5673
    2TTP    C41 7822   1.648   2.429   6.040 -0.2888 -0.3974 -1.5025
    2TTP    C42 7823   1.518   2.370   6.041  0.8931 -0.9779 -0.1162
    3TTP     S1 7824   1.493   2.292   8.004  0.3148 -0.0973  0.0544
    3TTP     S5 7825   1.126   2.091   7.905  0.1783  0.3881 -0.4394
    3TTP     C1 7826   1.173   2.045   8.075 -0.3546  0.6854 -0.2055
    3TTP     C2 7827   1.289   2.104   8.115 -0.3438  0.5532 -0.0393
    3TTP     C3 7828   1.345   2.188   8.014  0.0856  0.2121 -0.0906
    3TTP     C4 7829   1.445   2.337   7.834  0.8477 -0.3945 -0.1794
    3TTP    C17 7830   1.329   2.278   7.794  0.8370 -0.2624 -0.3457
    3TTP    C18 7831   1.273   2.194   7.895  0.4075  0.0787 -0.2946
    3TTP    C32 7832   1.373   2.076   8.239 -0.2922 -0.3399  0.8119
    3TTP    C33 7833   1.415   1.929   8.268 -1.1594 -0.2004  0.4161
    3TTP    C34 7834   1.532   1.872   8.183 -0.6877 -1.0813 -0.1166
    3TTP    C35 7835   1.495   1.826   8.044 -0.3519 -1.7544 -0.9682
    3TTP    C36 7836   1.616   1.831   7.964 -0.9533 -0.7503  0.3289
    3TTP    C37 7837   1.608   1.793   7.821  0.0143 -0.4361 -1.2247
    3TTP    C38 7838   1.727   1.768   7.749  1.4274  0.3976  0.1297
    3TTP    C39 7839   1.729   1.849   7.626 -1.6086  0.0531  0.2302
    3TTP    C40 7840   1.767   1.998   7.635 -0.0737  0.6074 -0.2328
    3TTP    C41 7841   1.922   1.987   7.651  0.3704 -0.3872 -0.6761
    3TTP    C42 7842   1.964   2.111   7.725  1.1765 -0.3025  0.4988
    4FIC     F1 7843   1.240   2.083   6.341  0.0783 -0.4833 -0.0174
    4FIC     F2 7844   1.172   2.279   6.165 -0.6931 -0.6495  0.0886
    4FIC     O1 7845   1.340   2.376   6.785  0.6394 -0.1851 -0.3382
    4FIC     N5 7846   1.146   2.769   6.228 -1.4023 -0.6757  0.0119
    4FIC     N6 7847   1.238   2.959   6.610 -0.8084 -0.4092 -0.2601
    4FIC    C19 7848   1.311   2.667   6.775  0.1017 -0.2379 -0.3511
    4FIC    C20 7849   1.289   2.586   6.670 -0.0093 -0.3064 -0.2744
    4FIC    C21 7850   1.306   2.437   6.683  0.2843 -0.2733 -0.2732
    4FIC    C22 7851   1.273   2.379   6.551  0.0671 -0.3662 -0.1801
    4FIC    C23 7852   1.275   2.245   6.515  0.2147 -0.3740 -0.1462
    4FIC    C24 7853   1.241   2.214   6.384 -0.0479 -0.4702 -0.0554
    4FIC    C25 7854   1.206   2.315   6.293 -0.4452 -0.5557 -0.0011
    4FIC    C26 7855   1.204   2.449   6.329 -0.5945 -0.5486 -0.0346
    4FIC    C27 7856   1.238   2.483   6.461 -0.3331 -0.4517 -0.1261
    4FIC    C28 7857   1.246   2.614   6.530 -0.3959 -0.4184 -0.1819
    4FIC    C29 7858   1.219   2.737   6.475 -0.7455 -0.4796 -0.1533
    4FIC    C30 7859   1.179   2.754   6.339 -1.1054 -0.5872 -0.0627
    4FIC    C31 7860   1.230   2.858   6.550 -0.7780 -0.4405 -0.2122
    5FIC     F1 7861   0.603   1.462   7.934  0.2434 -0.7181  0.3318
    5FIC     F2 7862   0.548   1.465   8.200 -0.4118  0.4985  0.1960
    5FIC     O1 7863   1.010   1.818   7.909  0.5029 -1.0513 -0.2594
    5FIC     N5 7864   0.759   1.723   8.566 -1.1688  2.0100 -0.4208
    5FIC     N6 7865   1.087   2.002   8.493 -0.8340  1.5044 -0.8552
    5FIC    C19 7866   1.102   1.948   8.155 -0.0309 -0.0074 -0.5994
    5FIC    C20 7867   1.002   1.858   8.151 -0.0706  0.0289 -0.4451
    5FIC    C21 7868   0.960   1.796   8.020  0.2158 -0.5282 -0.2759
    5FIC    C22 7869   0.849   1.703   8.051  0.0876 -0.3288 -0.1347
    5FIC    C23 7870   0.779   1.623   7.963  0.2614 -0.6844  0.0447
    5FIC    C24 7871   0.678   1.544   8.016  0.0869 -0.3937  0.1530
    5FIC    C25 7872   0.649   1.545   8.153 -0.2506  0.2331  0.0827
    5FIC    C26 7873   0.720   1.625   8.242 -0.4255  0.5906 -0.0963
    5FIC    C27 7874   0.822   1.706   8.190 -0.2531  0.3045 -0.2081
    5FIC    C28 7875   0.915   1.802   8.257 -0.3638  0.5493 -0.4015
    5FIC    C29 7876   0.919   1.832   8.391 -0.6780  1.1444 -0.5181
    5FIC    C30 7877   0.831   1.772   8.487 -0.9468  1.6183 -0.4640
    5FIC    C31 7878   1.011   1.925   8.446 -0.7620  1.3390 -0.7029
    1BTD     S2 7879   9.382   8.346   6.949 -0.1897 -0.0397 -0.0458
    1BTD     N1 7880   9.478   8.435   7.072  0.0405 -0.2952 -0.0399
    1BTD     N2 7881   9.241   8.319   7.056 -0.1993  0.1843  0.0002
    1BTD     N3 7882   9.127   8.422   7.500  0.1969  0.1800  0.1044
    1BTD     N4 7883   9.419   8.565   7.520  0.4933 -0.4110  0.0548
    1BTD     C5 7884   9.444   8.501   7.306  0.2735 -0.3486  0.0101
    1BTD     C6 7885   9.404   8.439   7.182  0.0958 -0.2050 -0.0058
    1BTD     C7 7886   9.271   8.374   7.173 -0.0386  0.0634  0.0167
    1BTD     C8 7887   9.185   8.374   7.288  0.0110  0.1750  0.0540
    1BTD    C15 7888   9.228   8.436   7.407  0.1867  0.0273  0.0685
    1BTD    C16 7889   9.356   8.499   7.416  0.3161 -0.2316  0.0469
    1BTD    C43 7890   9.413   8.523   7.666  1.4392 -1.6439  1.2669
    1BTD    C44 7891   9.496   8.395   7.697  0.7808  0.3273 -0.3351
    1BTD    C45 7892   9.640   8.375   7.652 -0.4020  1.8614  0.2071
    1BTD    C46 7893   9.738   8.479   7.713 -0.4168  0.8726 -0.1731
    1BTD    C47 7894   9.446   8.339   7.831 -0.6193  0.8038  0.0843
    1BTD    C48 7895   9.508   8.203   7.875 -0.6685  0.0006 -0.7754
    1BTD    C49 7896   9.400   8.077   7.890 -1.1664 -0.5864  0.3875
    1BTD    C50 7897   9.332   8.101   8.015  0.3155 -0.5599 -1.4286
    1BTD    C75 7898   9.110   8.477   7.637 -0.9819  0.7685  0.0407
    1BTD    C76 7899   9.045   8.607   7.671  0.5703 -0.1092  1.2992
    1BTD    C77 7900   8.976   8.626   7.808  0.3545  0.6589 -0.4188
    1BTD    C78 7901   9.087   8.626   7.907 -1.0800  0.0944  1.0044
    1BTD    C79 7902   8.960   8.676   7.545 -1.8913  1.1261  0.6298
    1BTD    C80 7903   9.002   8.809   7.509 -0.4352 -0.8682 -0.9760
    1BTD    C81 7904   9.139   8.793   7.457 -0.4711 -0.0315  0.5923
    1BTD    C82 7905   9.206   8.871   7.337  1.1827 -0.9689  0.1987
    2TTP     S1 7906   9.664   8.698   7.245 -0.8937  0.1195 -0.4680
    2TTP     S5 7907   9.614   8.871   7.635  0.7174 -0.3092 -0.0529
    2TTP     C1 7908   9.729   8.975   7.540  0.3428 -0.2164 -0.4123
    2TTP     C2 7909   9.752   8.927   7.414 -0.1771 -0.0784 -0.5617
    2TTP     C3 7910   9.679   8.807   7.388 -0.2980 -0.0412 -0.3978
    2TTP     C4 7911   9.549   8.594   7.340 -0.5190  0.0269 -0.1084
    2TTP    C17 7912   9.527   8.641   7.466  0.0007 -0.1113  0.0408
    2TTP    C18 7913   9.600   8.761   7.492  0.1216 -0.1485 -0.1231
    2TTP    C32 7914   9.878   8.952   7.313 -0.4955 -0.1829  0.2351
    2TTP    C33 7915   9.991   8.852   7.336 -1.3544 -0.7699 -0.7191
    2TTP    C34 7916  10.107   8.926   7.272 -0.2277  0.0407 -0.2679
    2TTP    C35 7917  10.249   8.872   7.280  0.2152  0.8227  0.6516
    2TTP    C36 7918  10.263   8.715   7.262  0.4470  0.2927 -0.7989
    2TTP    C37 7919  10.369   8.669   7.368 -0.2394  0.1197  0.3249
    2TTP    C38 7920  10.353   8.538   7.455  1.5036  0.7825 -0.1839
    2TTP    C39 7921  10.241   8.556   7.566  0.2226  0.7316  0.6468
    2TTP    C40 7922  10.284   8.524   7.693 -1.1060 -0.2832 -1.6837
    2TTP    C41 7923  10.198   8.625   7.783 -0.5185 -0.4808 -1.3083
    2TTP    C42 7924  10.173   8.563   7.918 -0.0490 -0.4456 -0.2811
    3TTP     S1 7925   8.929   8.237   7.216  0.3487  0.3588  0.1208
    3TTP     S5 7926   8.778   8.300   7.614  0.1872  0.3185  0.0659
    3TTP     C1 7927   8.649   8.218   7.515  0.0899  0.6665 -0.0997
    3TTP     C2 7928   8.688   8.193   7.387  0.1340  0.6998 -0.0924
    3TTP     C3 7929   8.821   8.239   7.361  0.2465  0.4513  0.0441
    3TTP     C4 7930   9.057   8.319   7.315  0.4463  0.0110  0.2863
    3TTP    C17 7931   9.019   8.343   7.443  0.4023 -0.0221  0.2793
    3TTP    C18 7932   8.885   8.298   7.469  0.2897  0.2265  0.1427
    3TTP    C32 7933   8.619   8.126   7.276 -0.0356 -0.0824  0.4154
    3TTP    C33 7934   8.648   8.010   7.180  0.0471  0.0248 -0.7008
    3TTP    C34 7935   8.775   7.915   7.188  0.4186  0.1683  0.6496
    3TTP    C35 7936   8.828   7.920   7.052 -0.3176 -0.2469 -0.1288
    3TTP    C36 7937   8.895   7.795   6.993  0.9706  0.4767  0.4580
    3TTP    C37 7938   8.949   7.800   6.844  0.4537 -0.8746  0.1535
    3TTP    C38 7939   9.016   7.944   6.808 -0.4603 -0.1334 -0.0156
    3TTP    C39 7940   9.150   7.929   6.730 -0.8448  1.2378  0.1881
    3TTP    C40 7941   9.133   7.896   6.569 -0.3537 -0.1361 -0.1474
    3TTP    C41 7942   9.061   7.998   6.477 -1.4650 -0.5483 -1.5101
    3TTP    C42 7943   8.918   8.056   6.505 -1.0104 -0.2387 -0.4589
    4FIC     F1 7944   9.451   9.556   8.053 -0.1023 -0.2186  0.0820
    4FIC     F2 7945   9.688   9.686   8.021 -0.3130  0.0784 -0.2849
    4FIC     O1 7946   9.525   9.129   7.728 -0.0222 -0.1931  0.0658
    4FIC     N5 7947  10.081   9.570   7.744 -0.5596  0.5238 -0.8237
    4FIC     N6 7948  10.091   9.211   7.496 -0.4547  0.4838 -0.7622
    4FIC    C19 7949   9.778   9.103   7.582 -0.1951  0.0998 -0.2902
    4FIC    C20 7950   9.750   9.205   7.665 -0.2069  0.0818 -0.2718
    4FIC    C21 7951   9.618   9.212   7.736 -0.1144 -0.0722 -0.0839
    4FIC    C22 7952   9.620   9.334   7.818 -0.1545 -0.0517 -0.1138
    4FIC    C23 7953   9.520   9.383   7.902 -0.0978 -0.1621  0.0192
    4FIC    C24 7954   9.546   9.502   7.969 -0.1534 -0.1153 -0.0422
    4FIC    C25 7955   9.668   9.569   7.952 -0.2620  0.0379 -0.2314
    4FIC    C26 7956   9.768   9.521   7.869 -0.3192  0.1490 -0.3650
    4FIC    C27 7957   9.744   9.401   7.800 -0.2644  0.1037 -0.3053
    4FIC    C28 7958   9.828   9.324   7.705 -0.3011  0.1915 -0.4098
    4FIC    C29 7959   9.955   9.357   7.663 -0.4025  0.3452 -0.5985
    4FIC    C30 7960  10.024   9.474   7.708 -0.4885  0.4427 -0.7216
    4FIC    C31 7961  10.029   9.276   7.572 -0.4306  0.4206 -0.6876
    5FIC     F1 7962   8.284   8.152   8.246 -0.3600  0.1886 -0.0226
    5FIC     F2 7963   8.108   7.976   8.135 -0.1924  0.0647 -0.0918
    5FIC     O1 7964   8.582   8.285   7.814 -0.0861  0.1588  0.1571
    5FIC     N5 7965   8.069   7.818   7.667  0.2444 -0.1347 -0.0629
    5FIC     N6 7966   8.337   7.958   7.352  0.4246 -0.1328  0.0914
    5FIC    C19 7967   8.520   8.165   7.555  0.1716  0.0302  0.1549
    5FIC    C20 7968   8.452   8.138   7.668  0.0958  0.0424  0.1124
    5FIC    C21 7969   8.490   8.204   7.797 -0.0353  0.1099  0.1166
    5FIC    C22 7970   8.396   8.153   7.899 -0.0908  0.1061  0.0637
    5FIC    C23 7971   8.392   8.185   8.034 -0.2110  0.1566  0.0479
    5FIC    C24 7972   8.294   8.124   8.111 -0.2426  0.1411 -0.0046
    5FIC    C25 7973   8.204   8.034   8.054 -0.1561  0.0773 -0.0400
    5FIC    C26 7974   8.207   8.001   7.919 -0.0362  0.0267 -0.0248
    5FIC    C27 7975   8.306   8.062   7.839 -0.0024  0.0412  0.0284
    5FIC    C28 7976   8.337   8.049   7.695  0.1161 -0.0005  0.0569
    5FIC    C29 7977   8.271   7.970   7.604  0.2232 -0.0660  0.0360
    5FIC    C30 7978   8.160   7.887   7.639  0.2344 -0.1034 -0.0182
    5FIC    C31 7979   8.308   7.964   7.466  0.3333 -0.1024  0.0665
    1BTD     S2 7980   4.545   8.261   6.919  0.2171 -0.5622 -0.0028
    1BTD     N1 7981   4.530   8.088   6.870 -0.3303 -0.5209  0.0017
    1BTD     N2 7982   4.463   8.324   6.772  0.5277 -0.2971 -0.0622
    1BTD     N3 7983   4.271   8.143   6.384  0.1720  0.3173 -0.1755
    1BTD     N4 7984   4.353   7.852   6.504 -0.8854  0.0412 -0.0967
    1BTD     C5 7985   4.437   7.968   6.678 -0.6073 -0.2241 -0.0507
    1BTD     C6 7986   4.468   8.087   6.752 -0.2573 -0.3221 -0.0392
    1BTD     C7 7987   4.431   8.219   6.698  0.2232 -0.1967 -0.0751
    1BTD     C8 7988   4.364   8.226   6.571  0.3293  0.0203 -0.1204
    1BTD    C15 7989   4.335   8.107   6.501 -0.0247  0.1098 -0.1299
    1BTD    C16 7990   4.371   7.980   6.554 -0.4875 -0.0110 -0.0954
    1BTD    C43 7991   4.340   7.809   6.362 -1.3115 -0.0911 -0.3929
    1BTD    C44 7992   4.431   7.789   6.229  0.1997 -0.7119 -1.1180
    1BTD    C45 7993   4.565   7.710   6.263  0.1819 -0.3317 -0.3274
    1BTD    C46 7994   4.662   7.713   6.134  0.4319 -0.3599  0.1126
    1BTD    C47 7995   4.373   7.771   6.079  0.5249 -0.2914  0.1192
    1BTD    C48 7996   4.277   7.649   6.053 -0.8030 -0.3059 -0.2764
    1BTD    C49 7997   4.185   7.686   5.929  0.7382  0.7876 -0.5009
    1BTD    C50 7998   4.151   7.555   5.860 -1.2783 -0.1763  0.5389
    1BTD    C75 7999   4.192   8.072   6.285  0.1686 -0.8813  0.0456
    1BTD    C76 8000   4.045   8.027   6.297  1.9032 -0.4915 -0.6296
    1BTD    C77 8001   3.944   8.147   6.342 -0.4497 -0.7572 -0.2244
    1BTD    C78 8002   3.878   8.245   6.245 -1.5745 -0.6771 -0.8329
    1BTD    C79 8003   4.010   7.953   6.167 -1.0631 -0.3936 -0.9963
    1BTD    C80 8004   3.888   7.860   6.175  0.4262  0.3073 -0.1324
    1BTD    C81 8005   3.747   7.914   6.150 -0.3442 -1.2497 -0.1772
    1BTD    C82 8006   3.631   7.829   6.106 -0.7014 -0.6976  0.0293
    2TTP     S1 8007   4.548   7.719   6.821 -0.1195 -0.0869  0.0444
    2TTP     S5 8008   4.322   7.479   6.544  0.3320 -0.2818 -0.1571
    2TTP     C1 8009   4.403   7.369   6.664  0.6813 -0.2458 -0.3544
    2TTP     C2 8010   4.477   7.436   6.757  0.5623 -0.1835 -0.3039
    2TTP     C3 8011   4.473   7.578   6.736  0.1913 -0.1620 -0.1075
    2TTP     C4 8012   4.468   7.829   6.700 -0.4687 -0.1229  0.2416
    2TTP    C17 8013   4.393   7.762   6.608 -0.3498 -0.1852  0.1911
    2TTP    C18 8014   4.397   7.620   6.629  0.0213 -0.2067 -0.0055
    2TTP    C32 8015   4.532   7.412   6.891 -0.2460 -0.4738  0.3232
    2TTP    C33 8016   4.633   7.290   6.912  0.2575  0.3355  1.5069
    2TTP    C34 8017   4.728   7.306   7.020 -0.0412 -0.3156  0.5334
    2TTP    C35 8018   4.827   7.204   7.012  0.3936  1.2287  0.7521
    2TTP    C36 8019   4.933   7.205   7.117 -0.3074  1.0761 -0.2305
    2TTP    C37 8020   5.008   7.080   7.144 -0.6243 -1.2133 -0.9334
    2TTP    C38 8021   5.125   7.123   7.247  0.2357 -0.9657  1.0156
    2TTP    C39 8022   5.195   7.041   7.354 -0.1045  0.0872 -0.6974
    2TTP    C40 8023   5.294   6.949   7.290  0.1505  0.9712 -0.9700
    2TTP    C41 8024   5.223   6.818   7.274  0.1628  0.9523 -0.4180
    2TTP    C42 8025   5.316   6.713   7.268 -0.3667  0.7636 -1.0130
    3TTP     S1 8026   4.355   8.515   6.487  0.3292  0.2404 -0.0730
    3TTP     S5 8027   4.157   8.403   6.123  0.0006  0.5469  0.0099
    3TTP     C1 8028   4.194   8.581   6.116  0.6112  0.4178 -0.1650
    3TTP     C2 8029   4.257   8.626   6.228  0.7485  0.3154 -0.2010
    3TTP     C3 8030   4.279   8.522   6.324  0.3767  0.3352 -0.0916
    3TTP     C4 8031   4.318   8.337   6.494 -0.2813  0.3693  0.1020
    3TTP    C17 8032   4.255   8.292   6.382 -0.4187  0.4714  0.1380
    3TTP    C18 8033   4.233   8.396   6.287 -0.0470  0.4518  0.0285
    3TTP    C32 8034   4.304   8.772   6.242 -0.3201  1.6362 -0.8819
    3TTP    C33 8035   4.252   8.858   6.368  0.6937  0.3364 -0.7400
    3TTP    C34 8036   4.122   8.796   6.428 -1.5464  0.1017  0.0605
    3TTP    C35 8037   4.157   8.794   6.581  1.3019  0.1449 -0.1666
    3TTP    C36 8038   4.082   8.910   6.671 -0.8818  0.9792  0.0738
    3TTP    C37 8039   3.930   8.918   6.673  1.7141 -0.1348  0.1406
    3TTP    C38 8040   3.854   9.022   6.592  0.8387  0.6739 -0.5628
    3TTP    C39 8041   3.926   9.146   6.610 -0.5636  0.7162 -0.2422
    3TTP    C40 8042   3.885   9.243   6.505 -0.6156  0.5722 -0.7241
    3TTP    C41 8043   3.967   9.358   6.458 -0.9535  0.4004  0.1828
    3TTP    C42 8044   3.887   9.437   6.347  0.1304 -0.1769 -0.4317
    4FIC     F1 8045   3.723   6.945   6.531 -0.4607 -0.1043  0.6186
    4FIC     F2 8046   3.871   6.716   6.530 -0.3061 -0.0231 -1.0155
    4FIC     O1 8047   4.105   7.313   6.640 -0.3716 -0.4196  1.3828
    4FIC     N5 8048   4.356   6.650   6.607 -0.0206 -0.1310 -2.8201
    4FIC     N6 8049   4.624   6.984   6.693  0.0178 -0.3937 -1.8935
    4FIC    C19 8050   4.381   7.226   6.678 -0.1923 -0.4541  0.0934
    4FIC    C20 8051   4.280   7.142   6.651 -0.2209 -0.3779 -0.0353
    4FIC    C21 8052   4.140   7.194   6.633 -0.3140 -0.3653  0.6590
    4FIC    C22 8053   4.055   7.077   6.604 -0.3227 -0.2757  0.3090
    4FIC    C23 8054   3.918   7.076   6.580 -0.3971 -0.2342  0.7161
    4FIC    C24 8055   3.859   6.953   6.555 -0.3897 -0.1493  0.2549
    4FIC    C25 8056   3.935   6.836   6.555 -0.3100 -0.1074 -0.5869
    4FIC    C26 8057   4.072   6.836   6.579 -0.2356 -0.1484 -0.9969
    4FIC    C27 8058   4.133   6.960   6.604 -0.2419 -0.2346 -0.5404
    4FIC    C28 8059   4.275   6.995   6.633 -0.1761 -0.2958 -0.7854
    4FIC    C29 8060   4.380   6.907   6.641 -0.0901 -0.2793 -1.5596
    4FIC    C30 8061   4.366   6.766   6.622 -0.0522 -0.1978 -2.2500
    4FIC    C31 8062   4.514   6.950   6.670 -0.0314 -0.3422 -1.7387
    5FIC     F1 8063   3.559   8.675   5.588 -0.1985 -0.3059 -0.1029
    5FIC     F2 8064   3.670   8.910   5.509 -0.4916 -0.0699  0.1836
    5FIC     O1 8065   3.917   8.512   5.960  0.0686 -0.3760 -0.3893
    5FIC     N5 8066   4.085   9.134   5.661 -0.7228  0.2196  0.3916
    5FIC     N6 8067   4.342   8.959   5.968 -0.4550  0.1168  0.1099
    5FIC    C19 8068   4.150   8.680   6.017 -0.1165 -0.1754 -0.2173
    5FIC    C20 8069   4.056   8.712   5.927 -0.1723 -0.1671 -0.1565
    5FIC    C21 8070   3.939   8.620   5.903 -0.0699 -0.2744 -0.2522
    5FIC    C22 8071   3.856   8.684   5.799 -0.1664 -0.2341 -0.1513
    5FIC    C23 8072   3.737   8.637   5.744 -0.1224 -0.3016 -0.1889
    5FIC    C24 8073   3.677   8.715   5.646 -0.2342 -0.2440 -0.0738
    5FIC    C25 8074   3.734   8.837   5.606 -0.3852 -0.1226  0.0737
    5FIC    C26 8075   3.853   8.884   5.661 -0.4299 -0.0544  0.1119
    5FIC    C27 8076   3.915   8.807   5.759 -0.3183 -0.1111 -0.0030
    5FIC    C28 8077   4.040   8.828   5.836 -0.3279 -0.0653 -0.0002
    5FIC    C29 8078   4.125   8.936   5.826 -0.4566  0.0501  0.1235
    5FIC    C30 8079   4.103   9.044   5.735 -0.6025  0.1428  0.2705
    5FIC    C31 8080   4.244   8.948   5.904 -0.4550  0.0861  0.1154
    1BTD     S2 8081   9.016   8.220   0.592  0.0444  0.2654 -0.1269
    1BTD     N1 8082   9.080   8.152   0.746 -0.1321  0.3617 -0.0101
    1BTD     N2 8083   9.145   8.345   0.577  0.2439  0.0498 -0.2268
    1BTD     N3 8084   9.522   8.476   0.825  0.3321 -0.2158 -0.2192
    1BTD     N4 8085   9.442   8.238   1.032 -0.1318  0.1686  0.0479
    1BTD     C5 8086   9.270   8.200   0.893 -0.1261  0.2563  0.0170
    1BTD     C6 8087   9.188   8.222   0.776 -0.0379  0.2346 -0.0494
    1BTD     C7 8088   9.224   8.330   0.682  0.1724  0.0598 -0.1707
    1BTD     C8 8089   9.340   8.411   0.709  0.2844 -0.0844 -0.2196
    1BTD    C15 8090   9.417   8.385   0.824  0.1922 -0.0573 -0.1513
    1BTD    C16 8091   9.383   8.281   0.915 -0.0110  0.1112 -0.0344
    1BTD    C43 8092   9.495   8.316   1.151 -0.9368 -0.2745 -0.8658
    1BTD    C44 8093   9.412   8.381   1.265 -0.0543  0.3177 -1.2069
    1BTD    C45 8094   9.283   8.472   1.248 -0.6370  1.0995 -0.1946
    1BTD    C46 8095   9.138   8.396   1.224 -0.0314 -0.6592 -0.7071
    1BTD    C47 8096   9.515   8.441   1.358 -0.5960 -1.0504  0.2377
    1BTD    C48 8097   9.618   8.353   1.423 -0.8904  0.0672 -0.8104
    1BTD    C49 8098   9.556   8.251   1.519  0.2552  0.5247  0.1277
    1BTD    C50 8099   9.640   8.136   1.559 -0.3943 -1.0169  0.6391
    1BTD    C75 8100   9.658   8.422   0.870  0.3760 -0.4732 -1.5261
    1BTD    C76 8101   9.808   8.477   0.876  0.3709  0.2433 -1.0533
    1BTD    C77 8102   9.904   8.358   0.909  0.2282  0.1792  1.2155
    1BTD    C78 8103   9.888   8.238   1.016  0.4459  0.2011  0.8263
    1BTD    C79 8104   9.831   8.594   0.975 -0.3649 -0.0200  0.7609
    1BTD    C80 8105   9.966   8.679   1.000 -1.2451 -0.1511  0.1869
    1BTD    C81 8106   9.950   8.834   0.972  0.7414  0.1665  1.2768
    1BTD    C82 8107  10.070   8.898   0.909  1.4430 -0.7499 -0.1467
    2TTP     S1 8108   9.199   7.937   1.021 -0.3180 -0.1877 -0.1387
    2TTP     S5 8109   9.547   7.964   1.272  0.0310  0.3467 -0.6744
    2TTP     C1 8110   9.468   7.803   1.300 -0.1237  0.5412  0.0283
    2TTP     C2 8111   9.355   7.785   1.224 -0.2406  0.3877  0.2351
    2TTP     C3 8112   9.328   7.898   1.141 -0.2122  0.1109 -0.1539
    2TTP     C4 8113   9.279   8.098   0.992 -0.1631 -0.3822 -0.8414
    2TTP    C17 8114   9.391   8.116   1.068 -0.0462 -0.2287 -1.0483
    2TTP    C18 8115   9.418   8.003   1.151 -0.0744  0.0484 -0.6593
    2TTP    C32 8116   9.273   7.650   1.202 -0.7285 -0.7101  0.1557
    2TTP    C33 8117   9.127   7.674   1.252 -0.5108 -0.6116  0.1872
    2TTP    C34 8118   9.122   7.699   1.415 -1.0411  0.3371  0.4741
    2TTP    C35 8119   8.979   7.701   1.462 -0.7921 -0.3314  0.3405
    2TTP    C36 8120   8.911   7.575   1.497 -0.4465  0.2058 -1.3258
    2TTP    C37 8121   8.773   7.606   1.573  0.0680 -0.1306 -0.1853
    2TTP    C38 8122   8.695   7.479   1.594  1.4617  0.3216 -0.7954
    2TTP    C39 8123   8.547   7.484   1.617  0.3174  0.3158 -0.1180
    2TTP    C40 8124   8.466   7.569   1.521 -0.2699  0.3979  0.7658
    2TTP    C41 8125   8.394   7.487   1.423  1.3490  1.3736 -0.0234
    2TTP    C42 8126   8.294   7.381   1.502 -0.9557 -0.5692  1.0661
    3TTP     S1 8127   9.390   8.614   0.471  0.2232 -0.0966 -0.1760
    3TTP     S5 8128   9.719   8.768   0.701  0.0756 -0.6633  0.4195
    3TTP     C1 8129   9.714   8.855   0.541  0.4628 -0.5945  0.4430
    3TTP     C2 8130   9.612   8.813   0.461  0.5312 -0.4158  0.2605
    3TTP     C3 8131   9.534   8.710   0.522  0.2804 -0.3259  0.0955
    3TTP     C4 8132   9.395   8.527   0.630 -0.1640 -0.1652 -0.1995
    3TTP    C17 8133   9.497   8.569   0.711 -0.2325 -0.3442 -0.0169
    3TTP    C18 8134   9.574   8.672   0.649  0.0186 -0.4332  0.1480
    3TTP    C32 8135   9.605   8.832   0.307 -0.8612 -0.1221  0.6057
    3TTP    C33 8136   9.495   8.913   0.250 -0.5390  0.3253 -0.2934
    3TTP    C34 8137   9.504   9.066   0.249 -0.4386 -1.1853 -0.6207
    3TTP    C35 8138   9.381   9.143   0.205  0.5437 -0.3135 -0.4498
    3TTP    C36 8139   9.342   9.116   0.057  1.0277  0.5359  0.0187
    3TTP    C37 8140   9.270   9.223  -0.009 -0.0082 -0.2195 -0.0643
    3TTP    C38 8141   9.143   9.282   0.043  0.9486  0.0932  0.0736
    3TTP    C39 8142   9.063   9.373  -0.055  0.1481  0.9772  0.5257
    3TTP    C40 8143   8.985   9.289  -0.169 -0.8543 -1.8844  0.8374
    3TTP    C41 8144   8.896   9.394  -0.214  0.8558  0.4827 -0.6702
    3TTP    C42 8145   8.820   9.356  -0.348 -0.0923 -0.7547 -0.5106
    4FIC     F1 8146  10.145   7.699   1.752  0.4134 -0.6926 -0.6814
    4FIC     F2 8147  10.085   7.434   1.771 -0.2170 -0.5176 -0.1298
    4FIC     O1 8148   9.719   7.881   1.472  0.5610 -0.1701 -0.5687
    4FIC     N5 8149   9.696   7.183   1.597 -1.0176  0.1065  0.7435
    4FIC     N6 8150   9.375   7.379   1.375 -0.7753  0.4795  0.7204
    4FIC    C19 8151   9.511   7.693   1.390  0.0117  0.1827 -0.0017
    4FIC    C20 8152   9.620   7.657   1.460 -0.0010  0.0445 -0.0516
    4FIC    C21 8153   9.723   7.760   1.498  0.2916 -0.1329 -0.3491
    4FIC    C22 8154   9.828   7.688   1.573  0.1948 -0.2524 -0.3273
    4FIC    C23 8155   9.944   7.741   1.629  0.3848 -0.4305 -0.5471
    4FIC    C24 8156  10.029   7.653   1.695  0.2396 -0.5164 -0.4745
    4FIC    C25 8157   9.998   7.517   1.704 -0.0851 -0.4260 -0.1901
    4FIC    C26 8158   9.882   7.463   1.648 -0.2761 -0.2483  0.0303
    4FIC    C27 8159   9.795   7.551   1.581 -0.1335 -0.1590 -0.0391
    4FIC    C28 8160   9.666   7.526   1.512 -0.2668  0.0271  0.1416
    4FIC    C29 8161   9.602   7.405   1.499 -0.5767  0.1578  0.4324
    4FIC    C30 8162   9.654   7.283   1.553 -0.8180  0.1290  0.6024
    4FIC    C31 8163   9.477   7.391   1.431 -0.6843  0.3341  0.5891
    5FIC     F1 8164  10.170   9.361   0.980  0.1867 -0.1800  0.1944
    5FIC     F2 8165  10.316   9.411   0.756  0.1674 -0.3221  0.1499
    5FIC     O1 8166   9.789   9.031   0.782  0.1581 -0.2894  0.4312
    5FIC     N5 8167  10.254   9.249   0.292  0.1190 -0.6051  0.2547
    5FIC     N6 8168   9.927   8.981   0.183  0.1004 -0.6614  0.4487
    5FIC    C19 8169   9.793   8.963   0.498  0.1289 -0.4640  0.4728
    5FIC    C20 8170   9.883   9.043   0.556  0.1373 -0.4311  0.4149
    5FIC    C21 8171   9.875   9.074   0.703  0.1519 -0.3407  0.3970
    5FIC    C22 8172   9.987   9.164   0.734  0.1574 -0.3252  0.3314
    5FIC    C23 8173  10.020   9.220   0.857  0.1707 -0.2511  0.2944
    5FIC    C24 8174  10.132   9.303   0.861  0.1737 -0.2520  0.2335
    5FIC    C25 8175  10.207   9.329   0.746  0.1639 -0.3250  0.2107
    5FIC    C26 8176  10.174   9.273   0.622  0.1504 -0.3998  0.2474
    5FIC    C27 8177  10.062   9.189   0.616  0.1471 -0.4003  0.3091
    5FIC    C28 8178  10.001   9.116   0.502  0.1345 -0.4680  0.3596
    5FIC    C29 8179  10.045   9.116   0.372  0.1221 -0.5493  0.3556
    5FIC    C30 8180  10.160   9.189   0.329  0.1204 -0.5794  0.3001
    5FIC    C31 8181   9.980   9.042   0.269  0.1101 -0.6106  0.4068
    1BTD     S2 8182  10.402   0.744   7.869  0.4741 -0.1901  0.0561
    1BTD     N1 8183  10.339   0.591   7.939  0.3791 -0.2350 -0.1255
    1BTD     N2 8184  10.285   0.849   7.956  0.3686 -0.2442 -0.0197
    1BTD     N3 8185   9.934   0.787   8.261 -0.0179 -0.4354 -0.5016
    1BTD     N4 8186  10.000   0.469   8.240 -0.0048 -0.4240 -0.6323
    1BTD     C5 8187  10.161   0.531   8.096  0.1786 -0.3338 -0.3886
    1BTD     C6 8188  10.240   0.624   8.020  0.2787 -0.2854 -0.2279
    1BTD     C7 8189  10.210   0.769   8.029  0.2730 -0.2905 -0.1688
    1BTD     C8 8190  10.103   0.813   8.115  0.1669 -0.3439 -0.2728
    1BTD    C15 8191  10.029   0.718   8.188  0.0707 -0.3902 -0.4291
    1BTD    C16 8192  10.058   0.579   8.179  0.0767 -0.3853 -0.4867
    1BTD    C43 8193   9.933   0.483   8.364  1.3920  0.4619  0.0377
    1BTD    C44 8194  10.014   0.493   8.497 -1.0117 -0.2989  0.4553
    1BTD    C45 8195   9.932   0.508   8.626 -0.8932  0.6836 -0.5365
    1BTD    C46 8196   9.942   0.657   8.651 -0.5560 -0.0527  0.1896
    1BTD    C47 8197  10.169   0.489   8.500 -0.1027 -0.8143  0.0989
    1BTD    C48 8198  10.231   0.610   8.570 -1.8994 -0.0857 -0.9945
    1BTD    C49 8199  10.261   0.740   8.482  0.6057  0.3257 -0.9335
    1BTD    C50 8200  10.396   0.734   8.407  1.5614  1.0169  0.1580
    1BTD    C75 8201   9.800   0.758   8.292  1.0690 -0.0754  0.1731
    1BTD    C76 8202   9.696   0.871   8.319 -0.0042  0.4127  1.1221
    1BTD    C77 8203   9.565   0.860   8.412 -1.1804  0.3689  0.0830
    1BTD    C78 8204   9.571   0.798   8.540  0.7831 -0.1336  0.1142
    1BTD    C79 8205   9.676   0.927   8.180 -1.0704 -0.6917 -0.6017
    1BTD    C80 8206   9.644   1.076   8.154  0.7485 -0.8839 -1.4944
    1BTD    C81 8207   9.731   1.165   8.225  0.1358 -0.8441 -0.1399
    1BTD    C82 8208   9.719   1.295   8.149  0.0585  2.0046 -1.7427
    2TTP     S1 8209  10.257   0.232   8.060  0.0530  0.7000  0.1626
    2TTP     S5 8210   9.947   0.118   8.335 -0.4725 -0.6078 -0.9513
    2TTP     C1 8211  10.044  -0.030   8.292  0.2563 -0.2216 -0.6784
    2TTP     C2 8212  10.145  -0.003   8.204  0.4616  0.2051 -0.3183
    2TTP     C3 8213  10.150   0.135   8.168  0.0503  0.2423 -0.2451
    2TTP     C4 8214  10.161   0.380   8.103 -0.6759  0.3137 -0.1101
    2TTP    C17 8215  10.059   0.354   8.190 -0.8814 -0.1129 -0.4704
    2TTP    C18 8216  10.054   0.216   8.226 -0.4704 -0.1501 -0.5438
    2TTP    C32 8217  10.243  -0.113   8.167  0.0613  0.7104  0.5109
    2TTP    C33 8218  10.321  -0.122   8.035 -0.6800 -0.2143  1.1177
    2TTP    C34 8219  10.240  -0.090   7.904 -0.3284  0.3519 -0.6993
    2TTP    C35 8220  10.362  -0.114   7.811  0.9438 -1.3825  0.9986
    2TTP    C36 8221  10.456   0.006   7.754 -1.0366  0.2380 -0.2696
    2TTP    C37 8222  10.396   0.132   7.689 -0.2502  0.3093 -0.4355
    2TTP    C38 8223  10.437   0.141   7.549  0.9982  0.2973 -0.7256
    2TTP    C39 8224  10.569   0.183   7.501  0.2454 -1.2213  0.9553
    2TTP    C40 8225  10.593   0.228   7.347  0.8012 -1.3934 -0.1196
    2TTP    C41 8226  10.641   0.140   7.239  0.3001  0.6379 -0.8374
    2TTP    C42 8227  10.617   0.210   7.109  0.2377 -0.1470 -0.6218
    3TTP     S1 8228  10.175   1.081   8.181  0.6245  0.3038  0.1069
    3TTP     S5 8229   9.972   1.046   8.559 -0.2673 -0.4854 -0.4373
    3TTP     C1 8230  10.081   1.191   8.565  0.2445 -0.8914  0.3654
    3TTP     C2 8231  10.151   1.211   8.449  0.5500 -0.6715  0.5808
    3TTP     C3 8232  10.120   1.111   8.350  0.3912 -0.1746  0.1197
    3TTP     C4 8233  10.066   0.936   8.175  0.1128  0.7098 -0.6959
    3TTP    C17 8234   9.997   0.916   8.291 -0.1926  0.4900 -0.9114
    3TTP    C18 8235  10.027   1.016   8.389 -0.0336 -0.0069 -0.4499
    3TTP    C32 8236  10.276   1.289   8.426  0.1030 -0.2485  0.2186
    3TTP    C33 8237  10.403   1.205   8.452  1.0946  0.6391 -0.8161
    3TTP    C34 8238  10.453   1.186   8.590 -1.2835 -0.9326  0.5794
    3TTP    C35 8239  10.524   1.057   8.617 -0.1209 -0.1732 -0.9358
    3TTP    C36 8240  10.553   1.028   8.759  0.6071 -0.2908 -1.0727
    3TTP    C37 8241  10.409   0.996   8.808 -0.7393  1.0713 -0.9191
    3TTP    C38 8242  10.362   0.994   8.954 -0.4701 -1.0959 -1.1751
    3TTP    C39 8243  10.243   0.910   8.952  0.2060 -1.4391 -0.3609
    3TTP    C40 8244  10.105   0.934   8.999  1.4818 -0.1114 -0.2896
    3TTP    C41 8245   9.977   0.896   8.917 -0.0438 -0.0345 -0.6573
    3TTP    C42 8246   9.841   0.905   8.966  0.6913 -0.8503 -0.7793
    4FIC     F1 8247   9.605  -0.309   8.935  0.4544  0.5016  0.1788
    4FIC     F2 8248   9.727  -0.551   8.906 -0.0329  0.2725  0.0176
    4FIC     O1 8249   9.840  -0.027   8.537  0.6883  0.1581  0.0730
    4FIC     N5 8250  10.070  -0.697   8.580 -0.5665 -0.3018 -0.2899
    4FIC     N6 8251  10.228  -0.428   8.275 -0.2856 -0.5240 -0.3400
    4FIC    C19 8252  10.040  -0.158   8.368  0.3059 -0.1830 -0.1190
    4FIC    C20 8253   9.976  -0.220   8.469  0.2661 -0.0873 -0.0858
    4FIC    C21 8254   9.874  -0.146   8.552  0.4721  0.0865  0.0136
    4FIC    C22 8255   9.825  -0.241   8.652  0.3664  0.1545  0.0262
    4FIC    C23 8256   9.730  -0.219   8.751  0.4866  0.3119  0.1068
    4FIC    C24 8257   9.699  -0.325   8.835  0.3474  0.3481  0.1017
    4FIC    C25 8258   9.762  -0.449   8.820  0.0962  0.2299  0.0189
    4FIC    C26 8259   9.857  -0.472   8.721 -0.0246  0.0727 -0.0622
    4FIC    C27 8260   9.889  -0.366   8.635  0.1128  0.0336 -0.0584
    4FIC    C28 8261   9.985  -0.358   8.522  0.0415 -0.1197 -0.1307
    4FIC    C29 8262  10.066  -0.459   8.476 -0.1888 -0.2644 -0.2213
    4FIC    C30 8263  10.068  -0.590   8.533 -0.3960 -0.2842 -0.2589
    4FIC    C31 8264  10.155  -0.442   8.366 -0.2410 -0.4063 -0.2861
    5FIC     F1 8265   9.643   1.369   9.236  0.1996 -0.5682  0.4616
    5FIC     F2 8266   9.832   1.551   9.308 -0.4473  0.3833 -0.2058
    5FIC     O1 8267   9.851   1.185   8.771  0.4396 -0.9425  0.7150
    5FIC     N5 8268  10.251   1.683   9.080 -1.2057  1.4844 -0.9847
    5FIC     N6 8269  10.375   1.503   8.702 -0.8872  1.0002 -0.6521
    5FIC    C19 8270  10.105   1.295   8.674 -0.0928 -0.1664  0.1674
    5FIC    C20 8271  10.045   1.334   8.789 -0.1278 -0.1094  0.1295
    5FIC    C21 8272   9.915   1.273   8.831  0.1576 -0.5257  0.4232
    5FIC    C22 8273   9.878   1.337   8.959  0.0348 -0.3403  0.2956
    5FIC    C23 8274   9.765   1.313   9.037  0.2098 -0.5931  0.4749
    5FIC    C24 8275   9.752   1.387   9.154  0.0412 -0.3404  0.2998
    5FIC    C25 8276   9.849   1.481   9.191 -0.2919  0.1498 -0.0442
    5FIC    C26 8277   9.962   1.505   9.114 -0.4678  0.4042 -0.2248
    5FIC    C27 8278   9.977   1.432   8.995 -0.3014  0.1545 -0.0515
    5FIC    C28 8279  10.084   1.433   8.892 -0.4148  0.3159 -0.1674
    5FIC    C29 8280  10.197   1.512   8.892 -0.7262  0.7724 -0.4880
    5FIC    C30 8281  10.226   1.606   8.995 -0.9887  1.1623 -0.7601
    5FIC    C31 8282  10.294   1.506   8.788 -0.8130  0.8951 -0.5765
    1BTD     S2 8283   4.229  10.179   4.371 -0.1840  0.5419 -0.0256
    1BTD     N1 8284   4.322  10.065   4.268 -0.9065  0.0181 -0.1128
    1BTD     N2 8285   4.233  10.313   4.252  0.5825  0.5803  0.0353
    1BTD     N3 8286   4.410  10.381   3.822  0.8401 -0.2868  0.0016
    1BTD     N4 8287   4.519  10.074   3.842 -0.9944 -0.9789 -0.1809
    1BTD     C5 8288   4.424  10.073   4.046 -0.9303 -0.4940 -0.1462
    1BTD     C6 8289   4.350  10.129   4.156 -0.5572 -0.0949 -0.0931
    1BTD     C7 8290   4.300  10.268   4.147  0.2762  0.2193 -0.0103
    1BTD     C8 8291   4.327  10.345   4.028  0.6948  0.1192  0.0155
    1BTD    C15 8292   4.400  10.286   3.922  0.3055 -0.2754 -0.0384
    1BTD    C16 8293   4.447  10.152   3.931 -0.4974 -0.5782 -0.1184
    1BTD    C43 8294   4.522  10.073   3.684  1.0420 -0.1851 -0.9227
    1BTD    C44 8295   4.415   9.988   3.597  2.0819 -0.2588 -1.3149
    1BTD    C45 8296   4.266  10.038   3.584  1.0349  0.0870  0.0418
    1BTD    C46 8297   4.210  10.132   3.466 -0.8419 -0.5291 -0.2110
    1BTD    C47 8298   4.484   9.916   3.473 -1.1723 -0.3492 -0.6599
    1BTD    C48 8299   4.410   9.791   3.445  1.0253 -1.5070 -0.3427
    1BTD    C49 8300   4.450   9.640   3.455 -0.3083 -0.4680 -0.4218
    1BTD    C50 8301   4.556   9.630   3.343 -0.1977 -1.0831  0.4249
    1BTD    C75 8302   4.528  10.419   3.748 -1.2058 -0.3618  1.7317
    1BTD    C76 8303   4.664  10.501   3.796 -0.5435 -0.0979  0.5422
    1BTD    C77 8304   4.720  10.442   3.939 -0.4990 -0.2459  0.6458
    1BTD    C78 8305   4.862  10.461   3.984 -0.8891  0.7361  0.1390
    1BTD    C79 8306   4.767  10.478   3.683  0.3621  0.3422  1.1568
    1BTD    C80 8307   4.719  10.554   3.549 -3.1119 -0.8633  0.2040
    1BTD    C81 8308   4.855  10.564   3.471 -0.0838  0.1633  1.0118
    1BTD    C82 8309   4.900  10.437   3.390 -0.1905 -0.0536  0.2331
    2TTP     S1 8310   4.549   9.803   4.118 -0.0224 -0.2819 -0.0004
    2TTP     S5 8311   4.751   9.795   3.738  0.0062  0.8264 -0.0146
    2TTP     C1 8312   4.812   9.656   3.839 -0.1991  0.3679 -0.5142
    2TTP     C2 8313   4.753   9.650   3.962 -0.2199 -0.0017 -0.5392
    2TTP     C3 8314   4.658   9.755   3.981 -0.0747  0.0648 -0.1647
    2TTP     C4 8315   4.489   9.942   4.017  0.1829  0.1767  0.4992
    2TTP    C17 8316   4.548   9.947   3.894  0.2037  0.5463  0.5243
    2TTP    C18 8317   4.643   9.842   3.875  0.0584  0.4804  0.1498
    2TTP    C32 8318   4.773   9.558   4.075 -0.5040 -0.2464 -0.4521
    2TTP    C33 8319   4.660   9.466   4.126  1.0578  0.3784  0.5321
    2TTP    C34 8320   4.602   9.387   4.012  0.0454 -0.9861  0.0472
    2TTP    C35 8321   4.449   9.368   4.014  1.0589 -0.6869  0.0113
    2TTP    C36 8322   4.382   9.375   4.153 -0.4372  0.7194 -0.0473
    2TTP    C37 8323   4.230   9.386   4.144  0.6658 -0.1232  0.1673
    2TTP    C38 8324   4.114   9.365   4.259 -0.8720 -0.4750  0.4676
    2TTP    C39 8325   4.088   9.488   4.353 -0.0591  0.1814 -0.3007
    2TTP    C40 8326   4.209   9.584   4.386  1.8074  0.0308  0.3352
    2TTP    C41 8327   4.193   9.651   4.513  0.7611  0.2320 -0.7046
    2TTP    C42 8328   4.255   9.552   4.606 -1.2206  0.4534 -1.2956
    3TTP     S1 8329   4.183  10.609   4.043 -0.2752 -0.2503 -0.2710
    3TTP     S5 8330   4.295  10.700   3.638  0.2596  0.0360 -0.0597
    3TTP     C1 8331   4.189  10.834   3.700  0.5271  0.2036  0.0379
    3TTP     C2 8332   4.148  10.814   3.829  0.3777  0.1252 -0.0216
    3TTP     C3 8333   4.199  10.692   3.883  0.0466 -0.0706 -0.1464
    3TTP     C4 8334   4.289  10.475   3.980 -0.5428 -0.4179 -0.3687
    3TTP    C17 8335   4.330  10.495   3.852 -0.3933 -0.3397 -0.3092
    3TTP    C18 8336   4.279  10.617   3.798 -0.0622 -0.1440 -0.1843
    3TTP    C32 8337   4.065  10.901   3.926 -0.0422  0.1187  0.5162
    3TTP    C33 8338   4.122  10.941   4.063  0.7509  0.0706 -1.0174
    3TTP    C34 8339   4.232  11.041   4.084  0.3548 -0.0308  0.1541
    3TTP    C35 8340   4.226  11.172   4.015 -0.6366 -0.2791 -0.1568
    3TTP    C36 8341   4.182  11.298   4.092  0.3305 -0.6205 -2.0594
    3TTP    C37 8342   4.255  11.419   4.042  1.5629 -0.4958  0.2546
    3TTP    C38 8343   4.238  11.554   4.114  1.0542 -0.0589  0.0721
    3TTP    C39 8344   4.367  11.649   4.101 -0.5060  0.1827 -1.7800
    3TTP    C40 8345   4.481  11.593   4.204 -0.5920 -0.1119  0.4948
    3TTP    C41 8346   4.456  11.605   4.350 -1.4474 -0.3764  0.5432
    3TTP    C42 8347   4.449  11.745   4.420 -0.3615 -0.0504  0.7160
    4FIC     F1 8348   5.237   9.475   3.164 -0.2471  0.1526  0.2351
    4FIC     F2 8349   5.310   9.240   3.281 -0.4551 -0.0432 -0.0268
    4FIC     O1 8350   4.950   9.702   3.563  0.3282  0.1602  0.6482
    4FIC     N5 8351   5.210   9.064   3.733 -0.3443 -0.3183 -0.1090
    4FIC     N6 8352   4.970   9.289   4.020  0.1472 -0.2732  0.2667
    4FIC    C19 8353   4.917   9.558   3.816  0.3338 -0.0241  0.5447
    4FIC    C20 8354   4.987   9.510   3.711  0.1973 -0.0181  0.4510
    4FIC    C21 8355   4.999   9.590   3.584  0.2041  0.0792  0.5127
    4FIC    C22 8356   5.080   9.510   3.492  0.0354  0.0589  0.3813
    4FIC    C23 8357   5.119   9.542   3.362 -0.0191  0.1264  0.3819
    4FIC    C24 8358   5.196   9.449   3.293 -0.1849  0.0901  0.2429
    4FIC    C25 8359   5.233   9.328   3.354 -0.2916 -0.0105  0.1081
    4FIC    C26 8360   5.195   9.295   3.483 -0.2382 -0.0782  0.1066
    4FIC    C27 8361   5.117   9.388   3.554 -0.0707 -0.0427  0.2462
    4FIC    C28 8362   5.061   9.384   3.691  0.0242 -0.0939  0.2839
    4FIC    C29 8363   5.075   9.282   3.782 -0.0362 -0.1936  0.1828
    4FIC    C30 8364   5.149   9.162   3.755 -0.2055 -0.2615  0.0228
    4FIC    C31 8365   5.017   9.286   3.913  0.0651 -0.2365  0.2295
    5FIC     F1 8366   4.547  11.247   3.079 -0.2655 -0.2680 -0.1317
    5FIC     F2 8367   4.320  11.396   3.056 -0.2692 -0.2542 -0.0040
    5FIC     O1 8368   4.418  10.929   3.498 -0.1440 -0.4282 -0.2158
    5FIC     N5 8369   3.903  11.385   3.322 -0.1876 -0.3476  0.1197
    5FIC     N6 8370   3.848  11.106   3.654 -0.0919 -0.4759  0.0284
    5FIC    C19 8371   4.156  10.959   3.625 -0.1044 -0.4717 -0.1236
    5FIC    C20 8372   4.197  11.033   3.520 -0.1347 -0.4318 -0.1075
    5FIC    C21 8373   4.333  11.012   3.460 -0.1535 -0.4117 -0.1577
    5FIC    C22 8374   4.346  11.108   3.349 -0.1854 -0.3691 -0.1239
    5FIC    C23 8375   4.454  11.126   3.264 -0.2111 -0.3383 -0.1503
    5FIC    C24 8376   4.443  11.224   3.166 -0.2390 -0.2999 -0.1088
    5FIC    C25 8377   4.326  11.301   3.155 -0.2408 -0.2925 -0.0430
    5FIC    C26 8378   4.217  11.283   3.239 -0.2152 -0.3231 -0.0164
    5FIC    C27 8379   4.227  11.185   3.339 -0.1868 -0.3622 -0.0576
    5FIC    C28 8380   4.131  11.142   3.444 -0.1557 -0.4005 -0.0448
    5FIC    C29 8381   4.005  11.193   3.465 -0.1478 -0.4058  0.0138
    5FIC    C30 8382   3.950  11.298   3.386 -0.1697 -0.3741  0.0718
    5FIC    C31 8383   3.920  11.145   3.569 -0.1171 -0.4444  0.0214
    1BTD     S2 8384   2.720   6.433   4.335 -0.3075 -0.3707 -0.0596
    1BTD     N1 8385   2.830   6.340   4.227  0.1699  0.3937 -0.2496
    1BTD     N2 8386   2.831   6.426   4.477 -0.6437 -0.8072  0.1869
    1BTD     N3 8387   3.253   6.244   4.571 -0.4665 -0.3165  0.3463
    1BTD     N4 8388   3.252   6.138   4.263  0.5360  1.1634 -0.1916
    1BTD     C5 8389   3.050   6.236   4.249  0.3490  0.7777 -0.2128
    1BTD     C6 8390   2.937   6.310   4.299  0.0599  0.2894 -0.1259
    1BTD     C7 8391   2.938   6.358   4.439 -0.3955 -0.3827  0.1184
    1BTD     C8 8392   3.051   6.330   4.522 -0.5391 -0.5330  0.2637
    1BTD    C15 8393   3.160   6.257   4.470 -0.2446 -0.0396  0.1710
    1BTD    C16 8394   3.159   6.210   4.335  0.1942  0.6082 -0.0643
    1BTD    C43 8395   3.346   6.013   4.288  0.4596  0.3034 -0.9341
    1BTD    C44 8396   3.364   5.916   4.417  1.0357 -0.5554 -0.9821
    1BTD    C45 8397   3.231   5.832   4.439 -0.3644  1.0672 -1.1334
    1BTD    C46 8398   3.127   5.899   4.512 -0.3692  0.6807  1.1092
    1BTD    C47 8399   3.492   5.821   4.403 -0.2265  0.1056  0.5426
    1BTD    C48 8400   3.534   5.709   4.498 -0.5759  1.1632  0.5557
    1BTD    C49 8401   3.672   5.653   4.468  0.7409 -0.3290 -0.1441
    1BTD    C50 8402   3.712   5.609   4.327 -0.4025 -0.1497  0.9785
    1BTD    C75 8403   3.393   6.192   4.557  0.1294  0.0646  0.5831
    1BTD    C76 8404   3.515   6.290   4.539  0.6179 -0.0331  0.0990
    1BTD    C77 8405   3.470   6.424   4.601  0.3798 -0.3747  0.3958
    1BTD    C78 8406   3.539   6.556   4.549 -0.5918  0.3740 -0.7366
    1BTD    C79 8407   3.663   6.257   4.515  0.0354  1.2161 -0.6411
    1BTD    C80 8408   3.679   6.161   4.405  1.2085  0.5878  0.0910
    1BTD    C81 8409   3.793   6.068   4.391  0.2467 -0.8330  1.0625
    1BTD    C82 8410   3.806   5.978   4.500  0.2406  0.7148 -0.3678
    2TTP     S1 8411   3.017   6.177   3.950 -0.0037  0.3392 -0.6821
    2TTP     S5 8412   3.427   6.048   3.935 -0.5344 -1.3374 -1.2487
    2TTP     C1 8413   3.362   6.054   3.765 -0.7365 -1.0347 -1.1630
    2TTP     C2 8414   3.231   6.094   3.760 -0.5844 -0.4991 -0.9829
    2TTP     C3 8415   3.178   6.122   3.889 -0.3030 -0.3084 -0.9062
    2TTP     C4 8416   3.082   6.172   4.119  0.1984  0.0365 -0.7677
    2TTP    C17 8417   3.212   6.131   4.125  0.0463 -0.4989 -0.9478
    2TTP    C18 8418   3.265   6.104   3.995 -0.2352 -0.6897 -1.0245
    2TTP    C32 8419   3.124   6.104   3.654 -0.3623 -0.6828  0.4206
    2TTP    C33 8420   3.029   5.996   3.647 -0.4098 -0.5890 -0.6312
    2TTP    C34 8421   3.080   5.861   3.625 -0.7240  0.1006  0.1791
    2TTP    C35 8422   3.007   5.732   3.682 -0.5633 -0.0145  0.3323
    2TTP    C36 8423   3.093   5.618   3.630 -1.0033 -0.2612 -1.1358
    2TTP    C37 8424   3.111   5.492   3.725  0.0110  1.9570 -0.2385
    2TTP    C38 8425   3.144   5.486   3.873  0.1847 -1.3713 -0.7794
    2TTP    C39 8426   3.241   5.609   3.926  0.5535  0.2201 -0.1105
    2TTP    C40 8427   3.382   5.579   3.909  0.1275 -1.0371  0.1068
    2TTP    C41 8428   3.470   5.549   3.788  0.0154 -0.7086  0.0234
    2TTP    C42 8429   3.603   5.498   3.820 -0.9110  0.9561  0.0426
    3TTP     S1 8430   2.993   6.397   4.819  0.5446  0.9825  0.5755
    3TTP     S5 8431   3.352   6.187   4.929  0.2046 -0.3468 -0.7890
    3TTP     C1 8432   3.263   6.233   5.081  0.9195 -0.0584 -0.4478
    3TTP     C2 8433   3.147   6.300   5.056  1.0666  0.3692 -0.0063
    3TTP     C3 8434   3.124   6.318   4.916  0.6201  0.4843  0.0783
    3TTP     C4 8435   3.082   6.351   4.667 -0.1702  0.6942  0.2342
    3TTP    C17 8436   3.198   6.283   4.692 -0.3174  0.2665 -0.2074
    3TTP    C18 8437   3.221   6.265   4.832  0.1291  0.1513 -0.2919
    3TTP    C32 8438   3.026   6.307   5.148  0.6971 -1.1777 -0.9541
    3TTP    C33 8439   2.893   6.233   5.101  1.0916 -0.0086  1.0853
    3TTP    C34 8440   2.902   6.081   5.079  0.6097 -0.1275 -0.6069
    3TTP    C35 8441   2.975   6.044   4.942 -0.3886  0.0612 -0.6483
    3TTP    C36 8442   3.031   5.901   4.934 -0.1347 -0.2739  0.4038
    3TTP    C37 8443   3.136   5.854   5.028  0.0474  0.7624  1.0009
    3TTP    C38 8444   3.204   5.731   4.947  0.0853 -0.3407 -1.4625
    3TTP    C39 8445   3.215   5.616   5.040  1.3591 -0.5104 -0.8050
    3TTP    C40 8446   3.252   5.488   4.982  0.1761 -0.4607 -0.0233
    3TTP    C41 8447   3.353   5.386   5.032  0.0880 -0.4424 -0.2547
    3TTP    C42 8448   3.365   5.258   4.949  1.8230  0.6772  0.0225
    4FIC     F1 8449   4.147   5.907   3.553 -0.1720  0.1506  0.1374
    4FIC     F2 8450   4.084   5.976   3.298 -0.0145  0.4801  0.1867
    4FIC     O1 8451   3.666   5.960   3.795 -0.2925 -0.0297 -0.0616
    4FIC     N5 8452   3.651   6.114   3.103  0.1261  0.8256  0.1156
    4FIC     N6 8453   3.287   6.142   3.343  0.0004  0.6183 -0.0500
    4FIC    C19 8454   3.435   6.046   3.637 -0.1847  0.2213 -0.0853
    4FIC    C20 8455   3.558   6.029   3.586 -0.1606  0.2537 -0.0372
    4FIC    C21 8456   3.672   5.985   3.674 -0.2195  0.1180 -0.0280
    4FIC    C22 8457   3.791   5.978   3.587 -0.1736  0.1954  0.0281
    4FIC    C23 8458   3.920   5.942   3.624 -0.2025  0.1191  0.0551
    4FIC    C24 8459   4.017   5.942   3.524 -0.1476  0.2180  0.1084
    4FIC    C25 8460   3.984   5.978   3.393 -0.0664  0.3875  0.1337
    4FIC    C26 8461   3.856   6.014   3.356 -0.0372  0.4647  0.1071
    4FIC    C27 8462   3.757   6.014   3.455 -0.0919  0.3667  0.0530
    4FIC    C28 8463   3.612   6.047   3.449 -0.0808  0.4091  0.0139
    4FIC    C29 8464   3.542   6.087   3.338 -0.0098  0.5633  0.0232
    4FIC    C30 8465   3.602   6.101   3.209  0.0647  0.7070  0.0740
    4FIC    C31 8466   3.402   6.117   3.341 -0.0046  0.5927 -0.0170
    5FIC     F1 8467   3.991   6.168   5.428  0.2372 -0.3386 -0.0973
    5FIC     F2 8468   3.885   6.266   5.659  0.1845 -0.2130 -0.1739
    5FIC     O1 8469   3.552   6.155   5.112  0.3334 -0.3914 -0.2288
    5FIC     N5 8470   3.420   6.396   5.766  0.1773 -0.0700 -0.3785
    5FIC     N6 8471   3.098   6.366   5.473  0.2632 -0.1365 -0.4658
    5FIC    C19 8472   3.294   6.243   5.221  0.3173 -0.2901 -0.3490
    5FIC    C20 8473   3.409   6.243   5.291  0.2952 -0.2817 -0.3129
    5FIC    C21 8474   3.537   6.196   5.228  0.3054 -0.3362 -0.2515
    5FIC    C22 8475   3.642   6.208   5.332  0.2754 -0.3109 -0.2246
    5FIC    C23 8476   3.777   6.177   5.321  0.2727 -0.3433 -0.1682
    5FIC    C24 8477   3.856   6.197   5.432  0.2418 -0.3093 -0.1523
    5FIC    C25 8478   3.802   6.247   5.551  0.2146 -0.2447 -0.1921
    5FIC    C26 8479   3.667   6.279   5.563  0.2173 -0.2116 -0.2483
    5FIC    C27 8480   3.585   6.259   5.451  0.2483 -0.2455 -0.2651
    5FIC    C28 8481   3.440   6.282   5.431  0.2593 -0.2249 -0.3209
    5FIC    C29 8482   3.351   6.331   5.524  0.2401 -0.1650 -0.3707
    5FIC    C30 8483   3.389   6.366   5.657  0.2056 -0.1129 -0.3747
    5FIC    C31 8484   3.212   6.350   5.495  0.2529 -0.1496 -0.4226
    1BTD     S2 8485   8.616  10.064   1.529 -0.1609  0.5522  0.3932
    1BTD     N1 8486   8.613   9.952   1.670 -0.4449 -0.1462 -0.1598
    1BTD     N2 8487   8.782  10.018   1.477 -0.0014  0.9127  0.5763
    1BTD     N3 8488   9.115   9.721   1.625 -0.1898  0.3867 -0.0489
    1BTD     N4 8489   8.907   9.640   1.862 -0.7360 -0.9179 -0.9560
    1BTD     C5 8490   8.769   9.790   1.767 -0.5906 -0.5331 -0.5646
    1BTD     C6 8491   8.730   9.889   1.670 -0.4082 -0.0780 -0.1784
    1BTD     C7 8492   8.825   9.926   1.563 -0.1602  0.5147  0.2336
    1BTD     C8 8493   8.953   9.862   1.557 -0.1063  0.6223  0.2390
    1BTD    C15 8494   8.987   9.766   1.654 -0.2903  0.1634 -0.1469
    1BTD    C16 8495   8.896   9.730   1.758 -0.5295 -0.4077 -0.5439
    1BTD    C43 8496   8.938   9.499   1.835 -1.0747  0.4386 -1.2465
    1BTD    C44 8497   8.953   9.388   1.948  1.8592  0.7394 -2.1777
    1BTD    C45 8498   8.814   9.349   2.011  1.1968  2.0365 -1.1274
    1BTD    C46 8499   8.792   9.244   2.122 -1.0354  0.1750 -1.1460
    1BTD    C47 8500   9.077   9.391   2.019 -0.7416 -0.5545 -0.9610
    1BTD    C48 8501   9.188   9.326   1.936  0.1119  0.8051 -1.2046
    1BTD    C49 8502   9.297   9.302   2.038 -0.8043 -0.0170  0.2753
    1BTD    C50 8503   9.415   9.226   1.996  1.3761 -1.4199 -0.1476
    1BTD    C75 8504   9.214   9.688   1.735  0.3579  0.3053  0.6512
    1BTD    C76 8505   9.353   9.607   1.726  1.8378 -0.4583 -1.4452
    1BTD    C77 8506   9.338   9.484   1.625  1.0685 -1.0734 -0.9643
    1BTD    C78 8507   9.443   9.374   1.606  0.3597 -0.2317  0.0160
    1BTD    C79 8508   9.494   9.665   1.748 -0.1542 -0.2884  0.5250
    1BTD    C80 8509   9.531   9.723   1.881 -0.8319  1.6225  0.2546
    1BTD    C81 8510   9.519   9.618   1.994 -0.6030 -0.7232 -0.0626
    1BTD    C82 8511   9.577   9.669   2.132  0.0985 -0.0705 -1.4512
    2TTP     S1 8512   8.616   9.868   1.965  0.0513 -0.4246 -0.7852
    2TTP     S5 8513   8.897   9.683   2.234 -0.3910  0.2928  0.1829
    2TTP     C1 8514   8.805   9.811   2.325 -0.6270  0.4585 -0.2812
    2TTP     C2 8515   8.713   9.876   2.247 -0.5043  0.2468 -0.6075
    2TTP     C3 8516   8.712   9.826   2.113 -0.2193 -0.0541 -0.5028
    2TTP     C4 8517   8.708   9.739   1.874  0.2871 -0.5903 -0.3212
    2TTP    C17 8518   8.800   9.675   1.952  0.1649 -0.3786  0.0052
    2TTP    C18 8519   8.801   9.724   2.086 -0.1202 -0.0775 -0.0996
    2TTP    C32 8520   8.612   9.986   2.283  0.8446  0.1371  0.0228
    2TTP    C33 8521   8.473   9.940   2.283  0.7082  0.3321 -0.4085
    2TTP    C34 8522   8.369  10.002   2.392 -1.3286  0.1490 -0.5395
    2TTP    C35 8523   8.229   9.974   2.384  1.4746 -0.7827  0.3667
    2TTP    C36 8524   8.144  10.053   2.291 -1.1419 -1.3000 -0.5163
    2TTP    C37 8525   8.076  10.189   2.364 -0.5212  0.5858 -0.1631
    2TTP    C38 8526   7.944  10.235   2.290 -1.3921  0.4476  0.2028
    2TTP    C39 8527   7.985  10.309   2.173 -0.5533  0.2005 -0.6275
    2TTP    C40 8528   7.861  10.379   2.107 -0.4829  1.1119 -0.0998
    2TTP    C41 8529   7.867  10.452   1.969 -0.7226  0.7047  0.0627
    2TTP    C42 8530   7.993  10.534   1.938 -0.1759 -0.1802 -0.2466
    3TTP     S1 8531   9.114  10.000   1.349 -0.1960  0.5309  0.3998
    3TTP     S5 8532   9.452   9.747   1.428 -0.5429 -0.1552 -0.2919
    3TTP     C1 8533   9.500   9.870   1.304 -0.3410  0.1922  0.1256
    3TTP     C2 8534   9.398   9.956   1.272 -0.2224  0.4246  0.3638
    3TTP     C3 8535   9.279   9.927   1.345 -0.2861  0.3364  0.2252
    3TTP     C4 8536   9.066   9.877   1.474 -0.3979  0.1836 -0.0177
    3TTP    C17 8537   9.167   9.791   1.505 -0.5167 -0.0489 -0.2559
    3TTP    C18 8538   9.287   9.820   1.433 -0.4530  0.0389 -0.1173
    3TTP    C32 8539   9.401  10.064   1.160 -0.1754  0.4060 -0.5405
    3TTP    C33 8540   9.438  10.030   1.016  0.0147  0.8234 -0.6390
    3TTP    C34 8541   9.522  10.141   0.934 -0.0220 -0.2775 -0.3546
    3TTP    C35 8542   9.581  10.107   0.796  0.2961  0.2297 -0.1741
    3TTP    C36 8543   9.492  10.142   0.681  0.1521 -0.0668  0.0084
    3TTP    C37 8544   9.559  10.078   0.560  0.5310  1.5458  0.2834
    3TTP    C38 8545   9.460  10.112   0.442  0.2578 -0.1856  0.1266
    3TTP    C39 8546   9.511  10.131   0.297  0.8811 -1.4321 -0.6555
    3TTP    C40 8547   9.651  10.161   0.273 -0.4508 -0.2768 -0.0855
    3TTP    C41 8548   9.681  10.306   0.217  0.1590  1.4965  0.2993
    3TTP    C42 8549   9.826  10.338   0.232  0.2826 -0.8509  0.9559
    4FIC     F1 8550   9.519   9.809   2.728 -0.0765 -0.4611 -0.2366
    4FIC     F2 8551   9.379   9.819   2.961  0.0632 -0.6132 -0.1456
    4FIC     O1 8552   9.116   9.831   2.366 -0.2913 -0.1695  0.0179
    4FIC     N5 8553   8.891   9.849   3.039  0.1113 -0.6242  0.1664
    4FIC     N6 8554   8.605   9.864   2.710 -0.0844 -0.3657  0.3468
    4FIC    C19 8555   8.840   9.848   2.461 -0.2337 -0.2116  0.1951
    4FIC    C20 8556   8.947   9.842   2.543 -0.1855 -0.2789  0.1275
    4FIC    C21 8557   9.086   9.833   2.487 -0.2196 -0.2515  0.0383
    4FIC    C22 8558   9.177   9.829   2.602 -0.1507 -0.3414 -0.0194
    4FIC    C23 8559   9.316   9.821   2.600 -0.1526 -0.3526 -0.1081
    4FIC    C24 8560   9.381   9.818   2.723 -0.0797 -0.4449 -0.1490
    4FIC    C25 8561   9.309   9.823   2.843 -0.0075 -0.5230 -0.1019
    4FIC    C26 8562   9.171   9.831   2.845 -0.0052 -0.5124 -0.0134
    4FIC    C27 8563   9.103   9.834   2.722 -0.0787 -0.4194  0.0291
    4FIC    C28 8564   8.958   9.843   2.691 -0.0968 -0.3843  0.1212
    4FIC    C29 8565   8.855   9.849   2.781 -0.0427 -0.4387  0.1878
    4FIC    C30 8566   8.875   9.849   2.923  0.0420 -0.5405  0.1758
    4FIC    C31 8567   8.718   9.857   2.741 -0.0660 -0.3982  0.2749
    5FIC     F1 8568  10.163   9.378   1.262 -0.2196  0.0589  0.1056
    5FIC     F2 8569  10.304   9.589   1.163 -0.1347 -0.0899 -0.0892
    5FIC     O1 8570   9.673   9.601   1.320 -0.1698  0.2627 -0.2571
    5FIC     N5 8571  10.157  10.050   1.061  0.0234 -0.1583 -0.6277
    5FIC     N6 8572   9.746  10.182   1.125  0.0451  0.0308 -0.8719
    5FIC    C19 8573   9.633   9.882   1.245 -0.0705  0.1931 -0.5721
    5FIC    C20 8574   9.751   9.817   1.234 -0.0868  0.1476 -0.4732
    5FIC    C21 8575   9.763   9.673   1.275 -0.1380  0.1879 -0.3131
    5FIC    C22 8576   9.904   9.635   1.251 -0.1431  0.1214 -0.2369
    5FIC    C23 8577   9.963   9.511   1.273 -0.1843  0.1285 -0.0875
    5FIC    C24 8578  10.098   9.498   1.243 -0.1803  0.0564 -0.0408
    5FIC    C25 8579  10.170   9.607   1.191 -0.1367 -0.0202 -0.1414
    5FIC    C26 8580  10.112   9.731   1.169 -0.0954 -0.0277 -0.2907
    5FIC    C27 8581   9.975   9.745   1.199 -0.0987  0.0443 -0.3400
    5FIC    C28 8582   9.885   9.862   1.187 -0.0622  0.0577 -0.4891
    5FIC    C29 8583   9.918   9.987   1.141 -0.0145 -0.0024 -0.6175
    5FIC    C30 8584  10.049  10.021   1.097  0.0060 -0.0880 -0.6226
    5FIC    C31 8585   9.823  10.094   1.132  0.0179  0.0167 -0.7567
    1BTD     S2 8586   0.742   5.435   4.931 -0.2328  0.5859 -0.2630
    1BTD     N1 8587   0.871   5.415   5.055  0.2814  1.0324 -0.7157
    1BTD     N2 8588   0.651   5.558   5.025 -0.5881 -0.0628  0.2581
    1BTD     N3 8589   0.698   5.772   5.440 -0.3834 -0.5795  0.5029
    1BTD     N4 8590   0.969   5.596   5.477  0.6880  0.7700 -0.6970
    1BTD     C5 8591   0.919   5.511   5.275  0.4808  0.8792 -0.6915
    1BTD     C6 8592   0.841   5.497   5.155  0.1677  0.6924 -0.4679
    1BTD     C7 8593   0.718   5.577   5.138 -0.3190  0.0793  0.0772
    1BTD     C8 8594   0.679   5.668   5.242 -0.4683 -0.3163  0.3715
    1BTD    C15 8595   0.758   5.679   5.358 -0.1497 -0.1140  0.1366
    1BTD    C16 8596   0.877   5.602   5.374  0.3192  0.4767 -0.3888
    1BTD    C43 8597   1.002   5.693   5.586 -0.1318  0.6957 -1.1136
    1BTD    C44 8598   1.105   5.796   5.545 -0.2783 -0.3479  0.8344
    1BTD    C45 8599   1.232   5.741   5.462  1.7269  0.5626  0.9704
    1BTD    C46 8600   1.305   5.837   5.382  0.4534  0.1054 -0.5147
    1BTD    C47 8601   1.156   5.900   5.647 -0.9456 -0.1306 -0.5180
    1BTD    C48 8602   1.080   5.991   5.727  0.0285 -0.2129 -0.3317
    1BTD    C49 8603   1.034   6.108   5.647  1.3983  0.7145  0.2022
    1BTD    C50 8604   1.035   6.237   5.721  1.2816  1.0650  0.5005
    1BTD    C75 8605   0.699   5.750   5.581  0.3810  0.8235  0.5060
    1BTD    C76 8606   0.600   5.648   5.654  0.5493  0.2778 -1.0883
    1BTD    C77 8607   0.579   5.650   5.806 -0.5581 -0.4618 -0.1105
    1BTD    C78 8608   0.692   5.595   5.896 -0.2483 -2.1006  1.0821
    1BTD    C79 8609   0.556   5.510   5.595 -0.7251  1.0593  0.6398
    1BTD    C80 8610   0.684   5.417   5.581  0.6885  0.1243  0.5103
    1BTD    C81 8611   0.660   5.274   5.610  0.7505  0.0680 -0.2016
    1BTD    C82 8612   0.788   5.187   5.610  0.0108 -1.4849 -0.7213
    2TTP     S1 8613   1.106   5.285   5.294  0.2285 -0.1866  0.1630
    2TTP     S5 8614   1.171   5.373   5.710 -0.2117 -0.6411  0.3302
    2TTP     C1 8615   1.247   5.212   5.672  0.0589 -0.4789  0.1698
    2TTP     C2 8616   1.231   5.175   5.541  0.2108 -0.3290  0.1087
    2TTP     C3 8617   1.159   5.273   5.467  0.1189 -0.3368  0.1864
    2TTP     C4 8618   1.031   5.447   5.332 -0.0420 -0.3488  0.3234
    2TTP    C17 8619   1.047   5.483   5.463 -0.1939 -0.4987  0.3845
    2TTP    C18 8620   1.119   5.385   5.537 -0.1020 -0.4910  0.3068
    2TTP    C32 8621   1.265   5.044   5.481  1.0881  1.3997 -1.1759
    2TTP    C33 8622   1.145   4.953   5.438 -0.1744  0.0414  1.6406
    2TTP    C34 8623   1.075   4.871   5.538  0.7794 -0.0293  0.5350
    2TTP    C35 8624   0.926   4.824   5.501  0.0276  1.0074  0.2562
    2TTP    C36 8625   0.819   4.788   5.609 -0.6999 -0.3527 -1.3560
    2TTP    C37 8626   0.793   4.636   5.594 -1.4272  0.9012 -0.4287
    2TTP    C38 8627   0.681   4.543   5.647  0.2551 -0.4029 -0.9769
    2TTP    C39 8628   0.635   4.589   5.790  0.6587  0.7929  0.9224
    2TTP    C40 8629   0.658   4.490   5.910 -0.5223 -0.3211  0.2173
    2TTP    C41 8630   0.529   4.430   5.984 -1.4192 -1.6712  0.0854
    2TTP    C42 8631   0.558   4.340   6.104 -0.4264  0.0220  0.1517
    3TTP     S1 8632   0.443   5.836   5.149  0.1659  0.0676 -0.2745
    3TTP     S5 8633   0.535   6.111   5.466  0.1102 -0.1007 -0.1123
    3TTP     C1 8634   0.403   6.183   5.364 -0.2025 -0.2527  0.1790
    3TTP     C2 8635   0.367   6.102   5.260 -0.2037 -0.2096  0.1459
    3TTP     C3 8636   0.442   5.981   5.257  0.0422 -0.0552 -0.1104
    3TTP     C4 8637   0.575   5.764   5.252  0.4786  0.2196 -0.5660
    3TTP    C17 8638   0.611   5.845   5.356  0.4798  0.1764 -0.5327
    3TTP    C18 8639   0.536   5.966   5.358  0.2338  0.0218 -0.2763
    3TTP    C32 8640   0.267   6.115   5.135 -1.7162  0.7495 -1.4887
    3TTP    C33 8641   0.142   6.054   5.150 -0.0970 -0.7015  0.1804
    3TTP    C34 8642   0.074   6.117   5.023  0.1245 -0.8998 -0.9080
    3TTP    C35 8643  -0.068   6.080   5.018  1.3900  1.4757  0.9503
    3TTP    C36 8644  -0.112   5.931   5.034 -0.9768  0.0793 -0.1689
    3TTP    C37 8645  -0.077   5.820   4.931  1.2864  1.0817 -1.4545
    3TTP    C38 8646  -0.164   5.825   4.807 -0.8654  1.2724  0.9312
    3TTP    C39 8647  -0.269   5.721   4.764  0.8977 -0.9113  1.6483
    3TTP    C40 8648  -0.405   5.783   4.780 -0.0118  0.6750 -0.8806
    3TTP    C41 8649  -0.439   5.914   4.705  0.2276  0.0241 -0.3353
    3TTP    C42 8650  -0.589   5.967   4.736  0.2422  0.8249  0.2229
    4FIC     F1 8651   1.171   5.096   6.472 -0.3592  0.8793  0.0792
    4FIC     F2 8652   1.428   5.008   6.478 -0.7409 -0.2623  0.1488
    4FIC     O1 8653   1.102   5.179   5.942  0.0302  0.8289  0.0200
    4FIC     N5 8654   1.749   4.940   6.107 -1.0121 -1.9393  0.2064
    4FIC     N6 8655   1.644   5.022   5.691 -0.6308 -1.7487  0.1459
    4FIC    C19 8656   1.324   5.124   5.758 -0.1960 -0.2797  0.0654
    4FIC    C20 8657   1.331   5.107   5.892 -0.2791 -0.2222  0.0776
    4FIC    C21 8658   1.213   5.137   5.979 -0.1529  0.3623  0.0525
    4FIC    C22 8659   1.254   5.107   6.118 -0.2894  0.2697  0.0744
    4FIC    C23 8660   1.179   5.120   6.234 -0.2413  0.6839  0.0631
    4FIC    C24 8661   1.240   5.086   6.353 -0.3963  0.4925  0.0887
    4FIC    C25 8662   1.373   5.041   6.356 -0.5927 -0.0957  0.1244
    4FIC    C26 8663   1.449   5.028   6.240 -0.6419 -0.5115  0.1359
    4FIC    C27 8664   1.388   5.062   6.118 -0.4870 -0.3262  0.1105
    4FIC    C28 8665   1.441   5.059   5.979 -0.4885 -0.6518  0.1136
    4FIC    C29 8666   1.567   5.021   5.940 -0.6526 -1.2391  0.1445
    4FIC    C30 8667   1.667   4.976   6.032 -0.8497 -1.6220  0.1785
    4FIC    C31 8668   1.608   5.022   5.804 -0.6396 -1.5160  0.1452
    5FIC     F1 8669   0.476   6.760   5.936  0.8588  0.3465 -0.7131
    5FIC     F2 8670   0.273   6.896   5.817 -0.4762 -0.6181  0.3928
    5FIC     O1 8671   0.515   6.329   5.611  1.4627  0.7578 -1.1891
    5FIC     N5 8672   0.009   6.785   5.413 -1.9649 -1.7122  1.6435
    5FIC     N6 8673   0.081   6.421   5.183 -1.2239 -1.1965  1.0488
    5FIC    C19 8674   0.335   6.306   5.381  0.4019 -0.0180 -0.3015
    5FIC    C20 8675   0.333   6.409   5.468  0.3021 -0.0837 -0.2249
    5FIC    C21 8676   0.429   6.414   5.583  0.8728  0.3328 -0.7018
    5FIC    C22 8677   0.400   6.539   5.657  0.5922  0.1369 -0.4759
    5FIC    C23 8678   0.463   6.586   5.771  0.9293  0.3860 -0.7604
    5FIC    C24 8679   0.418   6.707   5.823  0.5571  0.1227 -0.4578
    5FIC    C25 8680   0.314   6.777   5.761 -0.1306 -0.3741  0.1122
    5FIC    C26 8681   0.250   6.730   5.647 -0.4702 -0.6251  0.3988
    5FIC    C27 8682   0.294   6.608   5.593 -0.1018 -0.3648  0.0993
    5FIC    C28 8683   0.249   6.531   5.475 -0.3074 -0.5201  0.2761
    5FIC    C29 8684   0.148   6.567   5.388 -0.9416 -0.9805  0.8032
    5FIC    C30 8685   0.072   6.687   5.402 -1.5020 -1.3812  1.2634
    5FIC    C31 8686   0.112   6.486   5.276 -1.0932 -1.0966  0.9352
    1BTD     S2 8687   7.755   4.285   2.110  0.0376  0.0228  0.0029
    1BTD     N1 8688   7.654   4.415   2.036  0.0355 -0.2222 -0.4333
    1BTD     N2 8689   7.616   4.204   2.191  0.0284  0.2487  0.2176
    1BTD     N3 8690   7.153   4.272   2.222  0.0064  0.2664 -0.1325
    1BTD     N4 8691   7.200   4.533   2.032  0.0151 -0.3140 -0.9344
    1BTD     C5 8692   7.417   4.473   2.036  0.0248 -0.2631 -0.6852
    1BTD     C6 8693   7.529   4.392   2.074  0.0286 -0.1279 -0.3982
    1BTD     C7 8694   7.508   4.274   2.160  0.0247  0.1357 -0.0339
    1BTD     C8 8695   7.375   4.243   2.205  0.0169  0.2509  0.0251
    1BTD    C15 8696   7.268   4.325   2.166  0.0133  0.1115 -0.2640
    1BTD    C16 8697   7.288   4.439   2.083  0.0174 -0.1425 -0.6149
    1BTD    C43 8698   7.083   4.490   1.958 -1.2525 -0.6103  0.3460
    1BTD    C44 8699   6.981   4.579   1.901  0.0612 -0.1080  0.6710
    1BTD    C45 8700   6.879   4.518   1.791 -0.1106 -0.7810 -0.2026
    1BTD    C46 8701   6.932   4.417   1.690 -0.4344 -1.2270  1.0411
    1BTD    C47 8702   6.905   4.674   1.992  0.6909 -0.3588  0.4380
    1BTD    C48 8703   6.792   4.770   1.940  0.0681  1.2480 -0.0973
    1BTD    C49 8704   6.708   4.857   2.031  0.1202  0.7460 -0.1226
    1BTD    C50 8705   6.589   4.948   1.984 -1.8877 -1.0234  0.3115
    1BTD    C75 8706   7.014   4.327   2.242  1.8510 -0.9427  0.7292
    1BTD    C76 8707   6.945   4.405   2.349 -0.0746 -0.2239 -1.4836
    1BTD    C77 8708   7.006   4.523   2.408 -0.8601 -0.4621  0.4034
    1BTD    C78 8709   7.016   4.504   2.558  0.1162 -0.4193  1.7125
    1BTD    C79 8710   6.813   4.445   2.282 -0.4004 -0.7431 -0.4390
    1BTD    C80 8711   6.696   4.500   2.366  0.9703  0.1045  0.5953
    1BTD    C81 8712   6.628   4.420   2.480 -0.7951  0.4271 -0.4958
    1BTD    C82 8713   6.560   4.514   2.572  0.5563  0.4635 -0.0094
    2TTP     S1 8714   7.514   4.729   1.894 -0.1963  0.4743 -0.5569
    2TTP     S5 8715   7.125   4.892   1.980 -0.0300  0.4573  0.2454
    2TTP     C1 8716   7.237   5.029   1.938 -0.2336  0.4231 -0.4405
    2TTP     C2 8717   7.364   4.987   1.909 -0.2970  0.4262 -0.7287
    2TTP     C3 8718   7.377   4.845   1.919 -0.1869  0.4560 -0.4182
    2TTP     C4 8719   7.402   4.592   1.936  0.0073  0.5085  0.1290
    2TTP    C17 8720   7.275   4.635   1.965  0.0705  0.5052  0.4172
    2TTP    C18 8721   7.262   4.777   1.955 -0.0393  0.4756  0.1067
    2TTP    C32 8722   7.478   5.078   1.883 -0.7814  0.2400  0.0822
    2TTP    C33 8723   7.530   5.068   1.739 -0.6575  0.2368 -1.0641
    2TTP    C34 8724   7.664   5.139   1.726  0.0443 -1.2213 -1.6740
    2TTP    C35 8725   7.714   5.168   1.586  0.6022  1.0129 -0.8620
    2TTP    C36 8726   7.863   5.162   1.566 -0.5505  1.1025 -0.7460
    2TTP    C37 8727   7.897   5.098   1.430 -0.7180  0.3612  0.2254
    2TTP    C38 8728   7.934   4.950   1.390 -0.3106  0.6331 -1.1329
    2TTP    C39 8729   8.046   4.882   1.473 -0.4723 -0.1257  0.8745
    2TTP    C40 8730   8.027   4.775   1.597  0.8904  0.4159  0.6856
    2TTP    C41 8731   8.148   4.719   1.669  0.3534 -1.2044  0.6458
    2TTP    C42 8732   8.110   4.587   1.734 -0.3579 -0.3917  0.4291
    3TTP     S1 8733   7.379   3.985   2.373 -0.1646  0.0800  0.6056
    3TTP     S5 8734   6.952   4.019   2.410 -0.2247  0.0769 -0.0609
    3TTP     C1 8735   7.006   3.869   2.498 -0.3875 -0.0411 -0.1611
    3TTP     C2 8736   7.141   3.850   2.491 -0.3784 -0.0471  0.0388
    3TTP     C3 8737   7.206   3.953   2.417 -0.2428  0.0412  0.2783
    3TTP     C4 8738   7.325   4.135   2.285 -0.0021  0.1980  0.7058
    3TTP    C17 8739   7.190   4.154   2.291 -0.0111  0.2041  0.5059
    3TTP    C18 8740   7.124   4.052   2.366 -0.1467  0.1158  0.2663
    3TTP    C32 8741   7.219   3.737   2.556 -1.4896 -0.5435  0.0008
    3TTP    C33 8742   7.243   3.613   2.479 -2.1235  0.6025 -0.1659
    3TTP    C34 8743   7.364   3.509   2.515  0.9375 -0.8059 -1.0339
    3TTP    C35 8744   7.382   3.367   2.443  1.1274 -0.3860 -0.7589
    3TTP    C36 8745   7.251   3.274   2.466 -0.1952  0.3448  0.6963
    3TTP    C37 8746   7.261   3.120   2.433 -0.3645 -0.1208 -0.0769
    3TTP    C38 8747   7.172   3.061   2.325 -0.0699 -1.2274 -0.4304
    3TTP    C39 8748   7.181   2.906   2.320  0.3040 -0.9035 -1.1269
    3TTP    C40 8749   7.311   2.840   2.296  0.3301 -0.4068  0.2841
    3TTP    C41 8750   7.357   2.755   2.421 -0.8950 -1.1271  0.8963
    3TTP    C42 8751   7.364   2.600   2.409 -0.8731  0.2956 -1.2594
    4FIC     F1 8752   6.713   5.425   2.430  0.3365 -0.2584  0.0446
    4FIC     F2 8753   6.755   5.649   2.282  0.1378 -0.2707 -0.0313
    4FIC     O1 8754   7.047   5.076   2.185  0.1513 -0.2263 -0.2548
    4FIC     N5 8755   7.054   5.723   1.894 -0.2799 -0.2654 -0.3538
    4FIC     N6 8756   7.306   5.405   1.733 -0.3847 -0.2378 -0.5724
    4FIC    C19 8757   7.206   5.166   1.956 -0.1044 -0.2265 -0.4336
    4FIC    C20 8758   7.120   5.245   2.024 -0.0499 -0.2341 -0.3553
    4FIC    C21 8759   7.042   5.191   2.140  0.0819 -0.2335 -0.2660
    4FIC    C22 8760   6.959   5.303   2.190  0.1116 -0.2428 -0.1953
    4FIC    C23 8761   6.870   5.301   2.297  0.2229 -0.2457 -0.1019
    4FIC    C24 8762   6.803   5.419   2.325  0.2291 -0.2552 -0.0483
    4FIC    C25 8763   6.825   5.535   2.249  0.1267 -0.2614 -0.0876
    4FIC    C26 8764   6.914   5.537   2.142  0.0150 -0.2586 -0.1808
    4FIC    C27 8765   6.983   5.418   2.112  0.0072 -0.2491 -0.2361
    4FIC    C28 8766   7.082   5.388   2.007 -0.0962 -0.2439 -0.3360
    4FIC    C29 8767   7.131   5.474   1.911 -0.2124 -0.2477 -0.3985
    4FIC    C30 8768   7.088   5.611   1.902 -0.2493 -0.2575 -0.3737
    4FIC    C31 8769   7.227   5.436   1.814 -0.3065 -0.2422 -0.4939
    5FIC     F1 8770   6.207   3.703   2.550 -0.3567 -0.2061  0.3297
    5FIC     F2 8771   6.264   3.531   2.753  0.0765 -0.8026 -0.2886
    5FIC     O1 8772   6.703   3.877   2.420 -0.6551  0.3739 -0.0421
    5FIC     N5 8773   6.700   3.408   2.952  0.4863 -1.2467 -1.4424
    5FIC     N6 8774   7.076   3.578   2.810  0.1659 -0.6732 -1.6083
    5FIC    C19 8775   6.934   3.775   2.568 -0.3473  0.0101 -0.7647
    5FIC    C20 8776   6.807   3.737   2.593 -0.2892 -0.1124 -0.6471
    5FIC    C21 8777   6.693   3.795   2.512 -0.4567  0.0896 -0.2718
    5FIC    C22 8778   6.570   3.733   2.565 -0.3392 -0.1163 -0.2326
    5FIC    C23 8779   6.439   3.755   2.522 -0.4257 -0.0347  0.0685
    5FIC    C24 8780   6.338   3.686   2.587 -0.2821 -0.2703  0.0420
    5FIC    C25 8781   6.368   3.597   2.692 -0.0590 -0.5776 -0.2770
    5FIC    C26 8782   6.498   3.575   2.735  0.0285 -0.6607 -0.5783
    5FIC    C27 8783   6.601   3.644   2.670 -0.1143 -0.4252 -0.5566
    5FIC    C28 8784   6.748   3.643   2.691 -0.0747 -0.4351 -0.8240
    5FIC    C29 8785   6.817   3.569   2.785  0.1228 -0.6938 -1.1694
    5FIC    C30 8786   6.752   3.481   2.877  0.3221 -0.9969 -1.3183
    5FIC    C31 8787   6.959   3.575   2.798  0.1456 -0.6809 -1.4088
    1BTD     S2 8788   6.525   1.072   2.498 -0.1494 -0.0019 -0.4546
    1BTD     N1 8789   6.345   1.056   2.503 -0.1802  0.5133  0.5482
    1BTD     N2 8790   6.555   0.910   2.571 -0.1816 -0.3905 -1.2869
    1BTD     N3 8791   6.294   0.552   2.727 -0.3026 -0.2521 -1.1718
    1BTD     N4 8792   6.035   0.733   2.644 -0.3009  0.8616  1.0894
    1BTD     C5 8793   6.187   0.885   2.578 -0.2432  0.6817  0.8035
    1BTD     C6 8794   6.319   0.937   2.556 -0.2114  0.3762  0.2277
    1BTD     C7 8795   6.436   0.855   2.593 -0.2121 -0.1297 -0.7995
    1BTD     C8 8796   6.415   0.725   2.651 -0.2446 -0.3048 -1.1995
    1BTD    C15 8797   6.284   0.678   2.671 -0.2753  0.0073 -0.6086
    1BTD    C16 8798   6.171   0.757   2.634 -0.2746  0.4948  0.3811
    1BTD    C43 8799   5.964   0.630   2.715 -0.3568 -0.9514 -1.0323
    1BTD    C44 8800   5.932   0.662   2.866 -0.4305 -0.1007 -1.2213
    1BTD    C45 8801   5.848   0.789   2.898 -1.1061  0.4739  0.2561
    1BTD    C46 8802   5.842   0.837   3.035 -0.4519  0.0631 -0.9245
    1BTD    C47 8803   5.875   0.527   2.932  0.3164  0.3279  1.7307
    1BTD    C48 8804   5.869   0.491   3.080 -1.0241 -0.3167  0.2643
    1BTD    C49 8805   5.810   0.366   3.126 -1.1349 -0.2756  0.0960
    1BTD    C50 8806   5.714   0.291   3.050  0.2343 -0.0624  0.0671
    1BTD    C75 8807   6.191   0.438   2.734 -1.2150 -0.6124 -0.2299
    1BTD    C76 8808   6.151   0.353   2.610  0.8909 -1.7041  0.7871
    1BTD    C77 8809   6.106   0.437   2.494  0.4938 -0.4922  0.0356
    1BTD    C78 8810   6.152   0.403   2.359  0.0040 -0.4474  0.2526
    1BTD    C79 8811   6.062   0.228   2.605  0.3376  0.6907  0.3076
    1BTD    C80 8812   6.146   0.099   2.649  1.7149 -1.4961 -0.3980
    1BTD    C81 8813   6.203  -0.020   2.566 -0.3669 -0.2821 -0.7546
    1BTD    C82 8814   6.317   0.013   2.462  0.5458  0.4753  0.3644
    2TTP     S1 8815   5.993   1.082   2.474  0.2423  0.0200  0.3293
    2TTP     S5 8816   5.664   0.822   2.571 -0.2437  0.1878 -0.8354
    2TTP     C1 8817   5.599   0.970   2.488  0.0558  0.5703 -0.3991
    2TTP     C2 8818   5.696   1.059   2.453  0.2235  0.5410 -0.0136
    2TTP     C3 8819   5.826   1.013   2.491  0.1216  0.2154 -0.0491
    2TTP     C4 8820   6.059   0.934   2.557 -0.0572 -0.3625 -0.1069
    2TTP    C17 8821   5.961   0.845   2.592 -0.2249 -0.3333 -0.4924
    2TTP    C18 8822   5.831   0.890   2.554 -0.1229 -0.0077 -0.4570
    2TTP    C32 8823   5.669   1.198   2.405  0.2197  1.0037 -0.6731
    2TTP    C33 8824   5.727   1.306   2.483  0.6927  0.9233  0.5802
    2TTP    C34 8825   5.675   1.455   2.470 -0.5788  1.5774  0.0287
    2TTP    C35 8826   5.518   1.478   2.493 -0.1613  0.4056  0.3008
    2TTP    C36 8827   5.454   1.404   2.613  0.9519 -0.7948  0.5746
    2TTP    C37 8828   5.506   1.497   2.726  0.5088 -0.2509 -1.0033
    2TTP    C38 8829   5.559   1.409   2.831 -0.7874  0.5890 -0.6296
    2TTP    C39 8830   5.470   1.298   2.906 -0.5407 -0.3253  0.1765
    2TTP    C40 8831   5.501   1.249   3.044 -0.6039 -0.2933 -1.7155
    2TTP    C41 8832   5.443   1.108   3.045 -1.3774  0.0014 -0.7243
    2TTP    C42 8833   5.301   1.097   3.107 -0.9052  1.4167 -0.1517
    3TTP     S1 8834   6.674   0.592   2.675  0.3278  0.2154  0.2545
    3TTP     S5 8835   6.480   0.227   2.796  0.2216  0.3033  0.3495
    3TTP     C1 8836   6.654   0.191   2.759  0.2572  0.2775  0.5388
    3TTP     C2 8837   6.724   0.301   2.719  0.2923  0.2488  0.5205
    3TTP     C3 8838   6.643   0.418   2.717  0.2919  0.2462  0.3566
    3TTP     C4 8839   6.500   0.628   2.713  0.2921  0.2412  0.0653
    3TTP    C17 8840   6.429   0.518   2.752  0.2572  0.2699  0.0835
    3TTP    C18 8841   6.511   0.401   2.754  0.2571  0.2725  0.2475
    3TTP    C32 8842   6.873   0.318   2.690  0.2573 -0.3354  0.9248
    3TTP    C33 8843   6.958   0.415   2.768  0.0508 -1.2358 -0.7609
    3TTP    C34 8844   7.036   0.523   2.687 -0.9978  0.7459 -0.5436
    3TTP    C35 8845   7.178   0.477   2.697 -0.4535 -0.3423  0.3314
    3TTP    C36 8846   7.295   0.533   2.611  0.3973  1.1675  0.0033
    3TTP    C37 8847   7.332   0.463   2.482 -0.5436  0.8708 -1.0818
    3TTP    C38 8848   7.463   0.524   2.422 -1.1504  1.7454  0.0166
    3TTP    C39 8849   7.474   0.503   2.267 -1.3642  1.2322 -0.2558
    3TTP    C40 8850   7.490   0.352   2.215 -0.3077  1.4341 -0.0913
    3TTP    C41 8851   7.582   0.370   2.103 -0.9385  0.7749  0.2109
    3TTP    C42 8852   7.640   0.256   2.036  0.3992 -0.1801 -0.0917
    4FIC     F1 8853   4.947   0.778   2.931  0.0347 -0.0654  0.0684
    4FIC     F2 8854   4.799   0.778   2.703  0.0820 -0.1664  0.0376
    4FIC     O1 8855   5.430   0.930   2.739  0.0550 -0.0733  0.1138
    4FIC     N5 8856   4.929   0.885   2.238  0.1647 -0.3174  0.0256
    4FIC     N6 8857   5.336   1.005   2.134  0.1712 -0.3031  0.0674
    4FIC    C19 8858   5.459   0.984   2.453  0.1077 -0.1726  0.1005
    4FIC    C20 8859   5.344   0.946   2.510  0.1007 -0.1667  0.0903
    4FIC    C21 8860   5.337   0.920   2.658  0.0732 -0.1143  0.0982
    4FIC    C22 8861   5.198   0.880   2.687  0.0722 -0.1217  0.0834
    4FIC    C23 8862   5.143   0.847   2.810  0.0511 -0.0842  0.0843
    4FIC    C24 8863   5.008   0.812   2.813  0.0548 -0.1004  0.0686
    4FIC    C25 8864   4.932   0.812   2.695  0.0793 -0.1525  0.0528
    4FIC    C26 8865   4.986   0.846   2.572  0.1005 -0.1901  0.0519
    4FIC    C27 8866   5.122   0.881   2.567  0.0972 -0.1744  0.0676
    4FIC    C28 8867   5.209   0.921   2.454  0.1155 -0.2042  0.0712
    4FIC    C29 8868   5.171   0.933   2.322  0.1414 -0.2564  0.0590
    4FIC    C30 8869   5.038   0.907   2.276  0.1540 -0.2897  0.0407
    4FIC    C31 8870   5.262   0.972   2.219  0.1576 -0.2818  0.0637
    5FIC     F1 8871   6.557  -0.417   3.297  0.0938  0.1822 -0.0041
    5FIC     F2 8872   6.690  -0.580   3.125 -0.4598 -0.2098 -0.0677
    5FIC     O1 8873   6.580   0.054   3.031  0.7471 -0.0334 -0.3335
    5FIC     N5 8874   6.899  -0.479   2.688 -0.7902 -0.9272 -0.3940
    5FIC     N6 8875   6.889  -0.079   2.514 -0.1683 -1.0166 -0.6386
    5FIC    C19 8876   6.715   0.065   2.772  0.4500 -0.4846 -0.5113
    5FIC    C20 8877   6.704  -0.047   2.845  0.3072 -0.4151 -0.4260
    5FIC    C21 8878   6.633  -0.045   2.978  0.4753 -0.1805 -0.3378
    5FIC    C22 8879   6.639  -0.182   3.031  0.2544 -0.1607 -0.2581
    5FIC    C23 8880   6.587  -0.229   3.151  0.3048  0.0257 -0.1622
    5FIC    C24 8881   6.606  -0.364   3.180  0.0602  0.0046 -0.0998
    5FIC    C25 8882   6.675  -0.448   3.091 -0.2249 -0.1980 -0.1329
    5FIC    C26 8883   6.727  -0.401   2.971 -0.2767 -0.3846 -0.2283
    5FIC    C27 8884   6.709  -0.266   2.940 -0.0319 -0.3662 -0.2926
    5FIC    C28 8885   6.752  -0.186   2.823 -0.0106 -0.5305 -0.3971
    5FIC    C29 8886   6.822  -0.232   2.713 -0.2415 -0.7479 -0.4557
    5FIC    C30 8887   6.864  -0.368   2.700 -0.5425 -0.8457 -0.4216
    5FIC    C31 8888   6.859  -0.147   2.604 -0.2000 -0.8945 -0.5560
    1BTD     S2 8889   9.422   2.092   3.657 -0.0327 -0.0224 -0.4848
    1BTD     N1 8890   9.531   1.998   3.766  0.2873 -0.1245 -0.8901
    1BTD     N2 8891   9.293   1.967   3.654 -0.3281  0.2533  0.2897
    1BTD     N3 8892   9.225   1.543   3.844 -0.3521  0.6304  1.1356
    1BTD     N4 8893   9.519   1.581   3.981  0.4063  0.1649 -0.3181
    1BTD     C5 8894   9.521   1.780   3.876  0.3402  0.0321 -0.5739
    1BTD     C6 8895   9.468   1.884   3.792  0.1640  0.0433 -0.4501
    1BTD     C7 8896   9.335   1.867   3.730 -0.1805  0.2548  0.2103
    1BTD     C8 8897   9.261   1.746   3.755 -0.3314  0.4446  0.7139
    1BTD    C15 8898   9.317   1.646   3.837 -0.1498  0.4259  0.5703
    1BTD    C16 8899   9.445   1.663   3.897  0.1828  0.2221 -0.0660
    1BTD    C43 8900   9.475   1.496   4.102 -0.2026 -0.5385  1.0525
    1BTD    C44 8901   9.435   1.559   4.240 -0.8477 -0.2211  0.0256
    1BTD    C45 8902   9.405   1.449   4.345  0.4490 -0.6527 -0.5534
    1BTD    C46 8903   9.484   1.331   4.382 -0.5126  0.0306  0.0015
    1BTD    C47 8904   9.348   1.688   4.237  0.0940  0.9506 -0.4860
    1BTD    C48 8905   9.232   1.700   4.144  0.6471 -0.0784  1.1562
    1BTD    C49 8906   9.120   1.768   4.205 -0.8745 -0.0900 -1.0361
    1BTD    C50 8907   9.039   1.853   4.105  0.3708 -0.0058 -0.8597
    1BTD    C75 8908   9.239   1.416   3.907  0.6381  0.2386 -0.0896
    1BTD    C76 8909   9.294   1.300   3.832 -0.7436 -0.7581  0.5170
    1BTD    C77 8910   9.309   1.187   3.933 -0.9204  0.0499  0.6540
    1BTD    C78 8911   9.367   1.046   3.908  1.1706  0.0114  0.8420
    1BTD    C79 8912   9.245   1.264   3.695  0.7974  0.2305  0.7731
    1BTD    C80 8913   9.106   1.197   3.674  0.7885  0.1230  0.2958
    1BTD    C81 8914   9.112   1.125   3.541 -0.4281 -0.5497  0.3878
    1BTD    C82 8915   9.018   1.022   3.505  0.9171 -0.0179  0.0217
    2TTP     S1 8916   9.809   1.838   3.959 -0.8356  0.1115 -0.0553
    2TTP     S5 8917   9.838   1.441   4.122 -0.2933  0.0285 -0.3465
    2TTP     C1 8918  10.001   1.519   4.132 -0.4837  0.3866  0.0620
    2TTP     C2 8919  10.002   1.647   4.082 -0.6621  0.4334  0.1760
    2TTP     C3 8920   9.873   1.687   4.034 -0.6552  0.1880 -0.0552
    2TTP     C4 8921   9.645   1.759   3.950 -0.6449 -0.2467 -0.4637
    2TTP    C17 8922   9.644   1.632   4.000 -0.4665 -0.2934 -0.5777
    2TTP    C18 8923   9.773   1.592   4.047 -0.4737 -0.0480 -0.3467
    2TTP    C32 8924  10.120   1.735   4.040  0.7539 -0.1121 -0.3082
    2TTP    C33 8925  10.105   1.890   4.069 -0.0201  0.1379  0.3504
    2TTP    C34 8926  10.074   1.912   4.229 -0.8149  0.0315  0.1575
    2TTP    C35 8927  10.064   2.065   4.261 -1.2521  0.2926 -0.4916
    2TTP    C36 8928   9.969   2.153   4.170  0.3455 -0.5169 -0.2617
    2TTP    C37 8929   9.902   2.277   4.237 -0.9402  0.5457 -0.4392
    2TTP    C38 8930   9.858   2.380   4.130  0.4667  0.0923 -0.5498
    2TTP    C39 8931   9.945   2.488   4.089 -0.1226 -0.4167  0.5935
    2TTP    C40 8932  10.077   2.452   4.018  2.3184  0.1988  0.8737
    2TTP    C41 8933  10.190   2.570   4.008 -0.9875  0.4528  0.7240
    2TTP    C42 8934  10.177   2.715   4.046  0.7992  0.2481 -0.3443
    3TTP     S1 8935   8.965   1.759   3.640 -0.3187 -0.2345 -0.2073
    3TTP     S5 8936   8.885   1.390   3.846  0.2687 -0.0879  0.2921
    3TTP     C1 8937   8.732   1.447   3.765  0.0835 -0.2439  0.5323
    3TTP     C2 8938   8.747   1.564   3.697 -0.1087 -0.2984  0.3923
    3TTP     C3 8939   8.881   1.614   3.706 -0.1168 -0.2189  0.0902
    3TTP     C4 8940   9.119   1.703   3.720 -0.1340 -0.0785 -0.4474
    3TTP    C17 8941   9.103   1.586   3.789  0.0587 -0.0240 -0.3074
    3TTP    C18 8942   8.969   1.536   3.780  0.0665 -0.1035 -0.0054
    3TTP    C32 8943   8.636   1.645   3.634 -0.6521 -0.0653  0.8266
    3TTP    C33 8944   8.564   1.744   3.722 -1.0440  0.3806  0.0417
    3TTP    C34 8945   8.471   1.842   3.637  0.1527  0.3835  0.5841
    3TTP    C35 8946   8.524   1.968   3.563 -0.2157 -0.0937  0.2486
    3TTP    C36 8947   8.413   2.045   3.487  0.9147 -1.1154 -0.6940
    3TTP    C37 8948   8.319   1.969   3.385 -0.0892 -0.1183  0.0694
    3TTP    C38 8949   8.210   2.059   3.319  0.9919  0.2050 -0.0219
    3TTP    C39 8950   8.112   2.011   3.203 -0.6765  0.2391 -0.6071
    3TTP    C40 8951   8.200   1.992   3.084 -1.2772 -0.6121 -0.9447
    3TTP    C41 8952   8.131   2.020   2.954 -1.3099  0.4049  0.9770
    3TTP    C42 8953   8.247   1.969   2.844 -0.3796  0.0231 -0.6854
    4FIC     F1 8954  10.149   0.741   4.346  0.1786  0.2309 -0.2239
    4FIC     F2 8955  10.383   0.824   4.458 -0.1378  0.3172  0.3806
    4FIC     O1 8956   9.962   1.208   4.145  0.4511  0.1902 -0.5735
    4FIC     N5 8957  10.586   1.274   4.475 -0.3982  0.4121  1.0006
    4FIC     N6 8958  10.392   1.622   4.296 -0.1216  0.3629  0.6056
    4FIC    C19 8959  10.119   1.452   4.180  0.2455  0.2581 -0.1201
    4FIC    C20 8960  10.157   1.332   4.226  0.1895  0.2650 -0.0559
    4FIC    C21 8961  10.071   1.210   4.204  0.3023  0.2284 -0.3012
    4FIC    C22 8962  10.141   1.097   4.267  0.2024  0.2469 -0.1545
    4FIC    C23 8963  10.100   0.964   4.272  0.2534  0.2256 -0.2902
    4FIC    C24 8964  10.183   0.874   4.337  0.1361  0.2500 -0.1046
    4FIC    C25 8965  10.304   0.917   4.395 -0.0263  0.2945  0.2069
    4FIC    C26 8966  10.345   1.049   4.390 -0.0784  0.3160  0.3438
    4FIC    C27 8967  10.262   1.142   4.324  0.0386  0.2918  0.1595
    4FIC    C28 8968  10.277   1.288   4.302  0.0241  0.3046  0.2326
    4FIC    C29 8969  10.381   1.367   4.343 -0.1159  0.3454  0.5137
    4FIC    C30 8970  10.493   1.316   4.416 -0.2706  0.3820  0.7803
    4FIC    C31 8971  10.387   1.507   4.317 -0.1183  0.3549  0.5625
    5FIC     F1 8972   8.439   0.798   4.172 -0.2782  0.0875 -0.2317
    5FIC     F2 8973   8.229   0.791   4.000 -0.4833  0.7661 -0.0175
    5FIC     O1 8974   8.711   1.227   3.983  0.6442 -0.4731 -0.1900
    5FIC     N5 8975   8.119   1.086   3.618 -0.1204  1.3420  0.3200
    5FIC     N6 8976   8.374   1.422   3.505  0.6421  0.7671  0.3093
    5FIC    C19 8977   8.606   1.372   3.752  0.7762 -0.0240  0.0294
    5FIC    C20 8978   8.546   1.265   3.806  0.5522  0.0905  0.0106
    5FIC    C21 8979   8.606   1.195   3.925  0.4981 -0.1563 -0.1047
    5FIC    C22 8980   8.516   1.083   3.958  0.2396  0.0522 -0.0956
    5FIC    C23 8981   8.530   0.990   4.061  0.1068 -0.0627 -0.1806
    5FIC    C24 8982   8.432   0.893   4.072 -0.1360  0.1833 -0.1519
    5FIC    C25 8983   8.323   0.889   3.984 -0.2413  0.5326 -0.0415
    5FIC    C26 8984   8.309   0.982   3.881 -0.1099  0.6491  0.0437
    5FIC    C27 8985   8.407   1.081   3.867  0.1364  0.4039  0.0162
    5FIC    C28 8986   8.421   1.192   3.771  0.3242  0.4414  0.0859
    5FIC    C29 8987   8.335   1.223   3.668  0.2925  0.7435  0.1986
    5FIC    C30 8988   8.217   1.147   3.640  0.0658  1.0715  0.2649
    5FIC    C31 8989   8.357   1.332   3.579  0.4852  0.7548  0.2589
    1BTD     S2 8990   6.290   7.931  10.130 -0.1542 -0.0186 -0.4569
    1BTD     N1 8991   6.256   8.031   9.985  0.2615 -0.3440 -0.7865
    1BTD     N2 8992   6.464   7.974  10.137 -0.2135  0.1490  0.0658
    1BTD     N3 8993   6.757   8.245   9.889  0.4164 -0.0978  0.5352
    1BTD     N4 8994   6.500   8.314   9.702  1.0021 -0.7052 -0.5152
    1BTD     C5 8995   6.386   8.178   9.840  0.6411 -0.5252 -0.6320
    1BTD     C6 8996   6.370   8.089   9.951  0.3312 -0.3126 -0.5047
    1BTD     C7 8997   6.487   8.057  10.036  0.0653 -0.0367 -0.0277
    1BTD     C8 8998   6.614   8.116  10.005  0.1224  0.0129  0.2980
    1BTD    C15 8999   6.626   8.203   9.895  0.4297 -0.2014  0.1580
    1BTD    C16 9000   6.513   8.234   9.813  0.6861 -0.4671 -0.3015
    1BTD    C43 9001   6.594   8.366   9.607  0.9922 -0.2600  1.7881
    1BTD    C44 9002   6.625   8.308   9.467 -0.2431  0.9787 -0.6467
    1BTD    C45 9003   6.684   8.392   9.358  2.2476 -0.2353 -0.4413
    1BTD    C46 9004   6.821   8.431   9.362  0.0406  0.2738 -0.1816
    1BTD    C47 9005   6.661   8.148   9.494  0.3775 -1.1999 -0.1329
    1BTD    C48 9006   6.668   8.065   9.372  0.3816 -0.4854  1.5972
    1BTD    C49 9007   6.538   8.083   9.283  0.0570  0.0364 -1.2746
    1BTD    C50 9008   6.534   7.974   9.174 -0.2263 -1.2118 -1.0399
    1BTD    C75 9009   6.826   8.352   9.814 -0.0210 -1.1029  0.8746
    1BTD    C76 9010   6.784   8.493   9.852 -0.1013 -0.5892 -0.5122
    1BTD    C77 9011   6.749   8.608   9.740 -0.9409  0.1022  0.2985
    1BTD    C78 9012   6.874   8.663   9.650 -0.2509 -0.1471  0.8002
    1BTD    C79 9013   6.827   8.544   9.990  0.7030 -0.8459 -0.1489
    1BTD    C80 9014   6.962   8.517  10.058 -0.5700  0.0124 -0.2022
    1BTD    C81 9015   6.948   8.536  10.201  1.0575  1.2371 -0.0643
    1BTD    C82 9016   6.949   8.671  10.250 -1.4998 -0.6427 -1.1851
    2TTP     S1 9017   6.117   8.257   9.722  0.1077 -0.2254  0.0769
    2TTP     S5 9018   6.322   8.524   9.454  0.3115 -0.1259  0.3324
    2TTP     C1 9019   6.143   8.548   9.434  0.3205 -0.3349 -0.0150
    2TTP     C2 9020   6.069   8.467   9.516  0.2578 -0.3779 -0.1144
    2TTP     C3 9021   6.151   8.383   9.597  0.2009 -0.2475  0.0803
    2TTP     C4 9022   6.296   8.233   9.742  0.0988 -0.0162  0.4244
    2TTP    C17 9023   6.370   8.314   9.660  0.1611  0.0264  0.5238
    2TTP    C18 9024   6.288   8.398   9.579  0.2183 -0.1040  0.3293
    2TTP    C32 9025   5.924   8.461   9.535 -0.2455  1.1600  0.8437
    2TTP    C33 9026   5.899   8.497   9.675 -1.3557 -1.3923  0.0434
    2TTP    C34 9027   5.772   8.440   9.721 -0.2394  2.0059 -0.4606
    2TTP    C35 9028   5.636   8.461   9.661 -0.4839  0.2811 -0.2600
    2TTP    C36 9029   5.582   8.596   9.626 -0.2293 -0.5086  0.1574
    2TTP    C37 9030   5.469   8.641   9.520 -0.7160  0.2209 -0.0410
    2TTP    C38 9031   5.515   8.616   9.373 -0.6990 -0.1834 -0.0125
    2TTP    C39 9032   5.443   8.502   9.309  0.8526  0.0434  0.2199
    2TTP    C40 9033   5.289   8.516   9.334  2.4241 -0.0685  0.9115
    2TTP    C41 9034   5.187   8.631   9.283 -0.4348 -0.7768  0.8915
    2TTP    C42 9035   5.163   8.657   9.135  0.8112 -0.9983  0.4660
    3TTP     S1 9036   6.838   8.006  10.188  0.3317 -0.0918  0.1543
    3TTP     S5 9037   7.127   8.217   9.950  0.5941  0.2992  0.8147
    3TTP     C1 9038   7.216   8.125  10.079  0.4222  0.4547  1.0453
    3TTP     C2 9039   7.132   8.054  10.160  0.3310  0.3433  0.8552
    3TTP     C3 9040   6.995   8.070  10.123  0.3936  0.1307  0.5202
    3TTP     C4 9041   6.750   8.098  10.059  0.5037 -0.2477 -0.0763
    3TTP    C17 9042   6.834   8.169   9.977  0.5947 -0.1361  0.1137
    3TTP    C18 9043   6.971   8.153  10.014  0.5320  0.0765  0.4487
    3TTP    C32 9044   7.175   7.981  10.290  0.1924  0.1557 -1.1264
    3TTP    C33 9045   7.135   8.054  10.418  0.5388  2.1366 -0.5716
    3TTP    C34 9046   7.210   7.986  10.539  0.4416 -0.7246  0.4204
    3TTP    C35 9047   7.182   7.839  10.571 -1.0407 -0.8849  0.0365
    3TTP    C36 9048   7.313   7.758  10.546  0.8540 -0.0017  0.3530
    3TTP    C37 9049   7.302   7.622  10.605 -0.0670 -1.1151 -2.4614
    3TTP    C38 9050   7.310   7.607  10.756 -1.1342  0.2756 -0.2708
    3TTP    C39 9051   7.329   7.453  10.795 -0.8096 -0.2113 -0.4311
    3TTP    C40 9052   7.270   7.393  10.928  0.0277 -0.5481 -0.6146
    3TTP    C41 9053   7.131   7.448  10.962 -0.1777  0.2850 -0.6602
    3TTP    C42 9054   7.149   7.464  11.117  0.2069  0.2498  0.4860
    4FIC     F1 9055   6.424   8.941   8.778  0.2134  0.4230  0.3161
    4FIC     F2 9056   6.230   9.129   8.815 -0.1332  0.1254  0.0169
    4FIC     O1 9057   6.306   8.593   9.176  0.3817  0.4466  0.3870
    4FIC     N5 9058   5.867   9.149   9.151 -0.5119 -0.2854 -0.3631
    4FIC     N6 9059   5.814   8.840   9.454 -0.3104 -0.2072 -0.2475
    4FIC    C19 9060   6.079   8.648   9.352  0.1102  0.1706  0.1263
    4FIC    C20 9061   6.116   8.728   9.250  0.0814  0.1762  0.1197
    4FIC    C21 9062   6.234   8.693   9.164  0.2277  0.3221  0.2589
    4FIC    C22 9063   6.247   8.801   9.064  0.1519  0.2887  0.2129
    4FIC    C23 9064   6.341   8.812   8.963  0.2370  0.3886  0.3030
    4FIC    C24 9065   6.333   8.924   8.880  0.1378  0.3305  0.2339
    4FIC    C25 9066   6.233   9.020   8.899 -0.0409  0.1770  0.0795
    4FIC    C26 9067   6.138   9.009   9.000 -0.1265  0.0768 -0.0107
    4FIC    C27 9068   6.145   8.897   9.085 -0.0281  0.1335  0.0567
    4FIC    C28 9069   6.061   8.857   9.200 -0.0786  0.0584 -0.0062
    4FIC    C29 9070   5.952   8.925   9.250 -0.2426 -0.0916 -0.1538
    4FIC    C30 9071   5.906   9.048   9.195 -0.3899 -0.1979 -0.2682
    4FIC    C31 9072   5.877   8.877   9.362 -0.2789 -0.1545 -0.2043
    5FIC     F1 9073   7.784   7.963   9.497  0.0175  0.0242  0.2859
    5FIC     F2 9074   7.961   7.908   9.696 -0.2204 -0.3468  0.3972
    5FIC     O1 9075   7.346   8.098   9.785 -0.0285  0.4654  0.0107
    5FIC     N5 9076   7.904   7.925  10.188 -0.5956 -0.5660  0.3612
    5FIC     N6 9077   7.526   8.042  10.372 -0.5836 -0.1464  0.1233
    5FIC    C19 9078   7.359   8.093  10.078 -0.2725  0.2675  0.0196
    5FIC    C20 9079   7.463   8.062   9.997 -0.2515  0.1709  0.0842
    5FIC    C21 9080   7.448   8.066   9.848 -0.1235  0.2830  0.0749
    5FIC    C22 9081   7.578   8.026   9.792 -0.1336  0.1342  0.1566
    5FIC    C23 9082   7.613   8.016   9.657 -0.0393  0.1669  0.1786
    5FIC    C24 9083   7.743   7.976   9.628 -0.0712  0.0023  0.2599
    5FIC    C25 9084   7.834   7.948   9.731 -0.1939 -0.1885  0.3174
    5FIC    C26 9085   7.800   7.958   9.865 -0.2885 -0.2224  0.2959
    5FIC    C27 9086   7.669   7.998   9.897 -0.2580 -0.0576  0.2136
    5FIC    C28 9087   7.602   8.019  10.027 -0.3352 -0.0427  0.1714
    5FIC    C29 9088   7.658   8.001  10.152 -0.4607 -0.1972  0.2067
    5FIC    C30 9089   7.793   7.960  10.171 -0.5343 -0.3996  0.2916
    5FIC    C31 9090   7.585   8.024  10.272 -0.5276 -0.1683  0.1605
    1BTD     S2 9091   6.574  10.179   9.606  0.0022  0.2052  0.4420
    1BTD     N1 9092   6.649  10.112   9.755  0.1475  0.2494  0.3893
    1BTD     N2 9093   6.721  10.158   9.505 -0.1416  0.0386  0.2658
    1BTD     N3 9094   7.157   9.994   9.568 -0.1730 -0.2215 -0.1884
    1BTD     N4 9095   7.068   9.937   9.876  0.1832  0.0384 -0.0362
    1BTD     C5 9096   6.869  10.021   9.815  0.1619  0.1361  0.1655
    1BTD     C6 9097   6.773  10.079   9.724  0.0843  0.1433  0.2503
    1BTD     C7 9098   6.814  10.105   9.584 -0.0775  0.0250  0.1812
    1BTD     C8 9099   6.947  10.072   9.542 -0.1537 -0.0942  0.0305
    1BTD    C15 9100   7.037  10.015   9.634 -0.0734 -0.0963 -0.0488
    1BTD    C16 9101   6.998   9.990   9.769  0.0827  0.0177  0.0181
    1BTD    C43 9102   7.210   9.874   9.904 -0.4348 -0.5432 -0.2643
    1BTD    C44 9103   7.322   9.970   9.984  0.0473  0.6557 -0.0644
    1BTD    C45 9104   7.433   9.888  10.033 -0.8228  0.2603 -0.5946
    1BTD    C46 9105   7.444   9.879  10.195 -0.0521 -1.4769  0.7595
    1BTD    C47 9106   7.349  10.092   9.926 -0.6931 -0.4557  2.4543
    1BTD    C48 9107   7.446  10.190   9.970 -0.9864  0.6452 -0.6790
    1BTD    C49 9108   7.487  10.296   9.882 -0.6025 -0.3231  0.1850
    1BTD    C50 9109   7.602  10.392   9.932  0.5099  0.7671  0.8771
    1BTD    C75 9110   7.282   9.930   9.612  1.3585  0.7077  0.2468
    1BTD    C76 9111   7.299   9.776   9.584  1.2959  0.2521  0.6288
    1BTD    C77 9112   7.236   9.712   9.451  0.5423 -0.2338 -0.1227
    1BTD    C78 9113   7.272   9.565   9.408 -0.9938 -0.3484 -0.2626
    1BTD    C79 9114   7.432   9.729   9.628 -1.5233  0.5070  1.1485
    1BTD    C80 9115   7.556   9.829   9.638  0.3220  1.2481  0.0365
    1BTD    C81 9116   7.702   9.800   9.596  0.5203 -0.1130 -0.2986
    1BTD    C82 9117   7.779   9.913   9.666  0.1454  0.0866 -1.0160
    2TTP     S1 9118   6.734   9.970  10.083  0.0882  0.2481  0.1604
    2TTP     S5 9119   7.101   9.805  10.234 -0.2131 -0.0198  0.6030
    2TTP     C1 9120   6.976   9.799  10.366 -0.5065 -0.3481  0.3127
    2TTP     C2 9121   6.855   9.850  10.327 -0.4307 -0.2847  0.1588
    2TTP     C3 9122   6.857   9.895  10.192 -0.1382  0.0253  0.2649
    2TTP     C4 9123   6.859   9.977   9.951  0.3815  0.5765  0.4504
    2TTP    C17 9124   6.980   9.926   9.990  0.3058  0.5132  0.6043
    2TTP    C18 9125   6.978   9.881  10.126  0.0134  0.2029  0.4988
    2TTP    C32 9126   6.727   9.833  10.415 -1.1565 -0.1429 -0.1727
    2TTP    C33 9127   6.685   9.966  10.487 -2.2868  0.0258  0.4563
    2TTP    C34 9128   6.552  10.001  10.532 -0.1914 -0.6220  0.7153
    2TTP    C35 9129   6.558  10.130  10.608 -0.0404 -0.0497 -1.1168
    2TTP    C36 9130   6.518  10.120  10.756  0.9461  1.5825  0.0302
    2TTP    C37 9131   6.353  10.099  10.781 -0.2670 -0.0368  0.3309
    2TTP    C38 9132   6.273  10.218  10.724  0.4677  0.2421 -0.8911
    2TTP    C39 9133   6.122  10.238  10.748  0.1180  0.3625  0.3832
    2TTP    C40 9134   6.036  10.309  10.644  0.7485 -0.7390  0.1115
    2TTP    C41 9135   6.093  10.339  10.510  0.4610 -0.3128  0.8028
    2TTP    C42 9136   6.005  10.404  10.395  0.4813  0.8778  0.3609
    3TTP     S1 9137   6.999  10.134   9.241  0.0913 -0.2135  0.0228
    3TTP     S5 9138   7.413  10.030   9.298  0.1060 -0.0641  0.1924
    3TTP     C1 9139   7.389  10.078   9.124  0.1893  0.0606  0.2149
    3TTP     C2 9140   7.259  10.113   9.096  0.1895  0.0219  0.1638
    3TTP     C3 9141   7.175  10.103   9.211  0.1240 -0.1078  0.1051
    3TTP     C4 9142   7.024  10.086   9.414  0.0080 -0.3388  0.0005
    3TTP    C17 9143   7.153  10.051   9.442  0.0077 -0.2999  0.0515
    3TTP    C18 9144   7.237  10.061   9.327  0.0731 -0.1700  0.1101
    3TTP    C32 9145   7.209  10.164   8.965 -1.6938 -0.0361  0.6910
    3TTP    C33 9146   7.193  10.314   8.994 -0.3672 -0.8293 -0.1773
    3TTP    C34 9147   7.111  10.379   8.875 -0.1042 -0.0950 -0.6517
    3TTP    C35 9148   7.075  10.518   8.904  2.2685 -0.1620  0.0898
    3TTP    C36 9149   6.989  10.565   8.784  1.1750  0.3557 -0.5990
    3TTP    C37 9150   7.056  10.694   8.708  0.3289  0.2727  0.2405
    3TTP    C38 9151   7.189  10.659   8.618 -0.3250 -0.5734 -0.4993
    3TTP    C39 9152   7.229  10.747   8.508 -0.2533 -0.4613  0.7589
    3TTP    C40 9153   7.347  10.657   8.491 -0.0703 -1.8177  0.7670
    3TTP    C41 9154   7.469  10.711   8.420  1.0073  0.2795  0.9139
    3TTP    C42 9155   7.569  10.768   8.516 -0.9563  0.1126  0.5219
    4FIC     F1 9156   7.532   9.284  10.699  0.1885 -0.0844  0.0992
    4FIC     F2 9157   7.390   9.291  10.932 -0.0651 -0.4892 -0.0410
    4FIC     O1 9158   7.241   9.620  10.391  0.3814  0.2551  0.2866
    4FIC     N5 9159   6.978   9.541  11.045 -0.2921 -0.8290 -0.1092
    4FIC     N6 9160   6.780   9.802  10.757 -0.0901 -0.4823  0.0653
    4FIC    C19 9161   7.002   9.746  10.503  0.2077 -0.0110  0.2190
    4FIC    C20 9162   7.081   9.662  10.571  0.1689 -0.0803  0.1776
    4FIC    C21 9163   7.202   9.601  10.507  0.2640  0.0658  0.2165
    4FIC    C22 9164   7.264   9.514  10.609  0.1906 -0.0596  0.1547
    4FIC    C23 9165   7.379   9.437  10.595  0.2370  0.0076  0.1628
    4FIC    C24 9166   7.419   9.362  10.706  0.1488 -0.1399  0.0958
    4FIC    C25 9167   7.346   9.366  10.825  0.0184 -0.3488  0.0238
    4FIC    C26 9168   7.231   9.443  10.839 -0.0290 -0.4168  0.0153
    4FIC    C27 9169   7.189   9.519  10.729  0.0589 -0.2699  0.0823
    4FIC    C28 9170   7.073   9.610  10.710  0.0405 -0.2906  0.0935
    4FIC    C29 9171   6.978   9.640  10.805 -0.0736 -0.4704  0.0365
    4FIC    C30 9172   6.978   9.586  10.937 -0.1934 -0.6669 -0.0434
    4FIC    C31 9173   6.869   9.729  10.778 -0.0821 -0.4759  0.0527
    5FIC     F1 9174   8.207   9.963   9.006  0.1299 -0.2086  0.1721
    5FIC     F2 9175   8.154   9.905   8.746  0.2515  0.2437  0.0441
    5FIC     O1 9176   7.710  10.073   9.191  0.0380 -0.5710  0.1419
    5FIC     N5 9177   7.722   9.900   8.503  0.3612  0.6354 -0.1619
    5FIC     N6 9178   7.345   9.997   8.701  0.2650  0.2608 -0.1600
    5FIC    C19 9179   7.483  10.056   9.008  0.1217 -0.2677  0.0083
    5FIC    C20 9180   7.610  10.031   8.972  0.1401 -0.1943  0.0212
    5FIC    C21 9181   7.722  10.041   9.072  0.0945 -0.3607  0.0911
    5FIC    C22 9182   7.846  10.008   9.000  0.1295 -0.2248  0.0870
    5FIC    C23 9183   7.975  10.004   9.050  0.1067 -0.3040  0.1390
    5FIC    C24 9184   8.077   9.969   8.963  0.1491 -0.1425  0.1231
    5FIC    C25 9185   8.049   9.939   8.828  0.2116  0.0904  0.0577
    5FIC    C26 9186   7.920   9.943   8.777  0.2345  0.1707  0.0050
    5FIC    C27 9187   7.816   9.978   8.864  0.1926  0.0095  0.0203
    5FIC    C28 9188   7.670   9.991   8.842  0.2015  0.0377 -0.0229
    5FIC    C29 9189   7.603   9.970   8.724  0.2565  0.2398 -0.0911
    5FIC    C30 9190   7.669   9.931   8.603  0.3139  0.4568 -0.1297
    5FIC    C31 9191   7.461   9.985   8.712  0.2608  0.2501 -0.1285
    1BTD     S2 9192   7.116   7.932   1.210  0.0275 -0.5098  0.1162
    1BTD     N1 9193   7.135   7.754   1.227 -0.3003 -0.5448  0.1267
    1BTD     N2 9194   7.080   7.960   1.384  0.2600 -0.4101  0.1483
    1BTD     N3 9195   7.042   7.695   1.770  0.1416 -0.2701  0.2328
    1BTD     N4 9196   7.109   7.442   1.577 -0.5488 -0.4359  0.2062
    1BTD     C5 9197   7.120   7.594   1.412 -0.4216 -0.4860  0.1685
    1BTD     C6 9198   7.115   7.726   1.355 -0.2236 -0.4835  0.1523
    1BTD     C7 9199   7.084   7.841   1.443  0.0900 -0.4081  0.1644
    1BTD     C8 9200   7.061   7.819   1.583  0.1899 -0.3390  0.1921
    1BTD    C15 9201   7.068   7.688   1.635 -0.0119 -0.3440  0.2072
    1BTD    C16 9202   7.097   7.577   1.550 -0.3142 -0.4168  0.1956
    1BTD    C43 9203   7.039   7.351   1.682 -1.1242 -0.1399  1.1373
    1BTD    C44 9204   7.072   7.219   1.759  1.0137  0.5575  0.1464
    1BTD    C45 9205   7.199   7.229   1.851 -0.0304  0.7505 -0.0926
    1BTD    C46 9206   7.226   7.088   1.924 -1.4550 -0.5400 -1.8754
    1BTD    C47 9207   6.931   7.210   1.836 -0.2533  0.8773  0.3699
    1BTD    C48 9208   6.864   7.107   1.915 -0.4524 -0.0533 -1.0653
    1BTD    C49 9209   6.722   7.140   1.957 -0.2430 -0.7363 -0.7940
    1BTD    C50 9210   6.644   7.019   2.013 -0.1597 -0.5981 -0.3473
    1BTD    C75 9211   7.101   7.597   1.853  1.9794 -1.5076 -0.9708
    1BTD    C76 9212   7.125   7.602   2.001  1.1110  1.6882 -0.3832
    1BTD    C77 9213   7.241   7.688   2.047 -0.0734 -1.2012 -0.2059
    1BTD    C78 9214   7.385   7.643   2.024  0.1794  0.8872 -0.5407
    1BTD    C79 9215   7.128   7.463   2.071  1.2178  0.0282  0.2888
    1BTD    C80 9216   7.115   7.471   2.213 -0.4576 -1.4828 -0.8311
    1BTD    C81 9217   6.998   7.478   2.303 -0.7028 -0.3691 -0.5788
    1BTD    C82 9218   7.030   7.570   2.423 -0.9504  0.9193  0.0689
    2TTP     S1 9219   7.168   7.409   1.189 -0.2173 -0.1847 -0.1809
    2TTP     S5 9220   7.165   7.087   1.474 -0.1386  0.5665  0.6764
    2TTP     C1 9221   7.204   7.019   1.310  0.2351  0.1905  0.9167
    2TTP     C2 9222   7.207   7.114   1.212  0.2328 -0.0638  0.6661
    2TTP     C3 9223   7.179   7.245   1.263 -0.0640  0.0293  0.2753
    2TTP     C4 9224   7.129   7.477   1.353 -0.5910  0.1915 -0.4212
    2TTP    C17 9225   7.126   7.382   1.450 -0.5889  0.4456 -0.1706
    2TTP    C18 9226   7.154   7.251   1.399 -0.2918  0.3524  0.2203
    2TTP    C32 9227   7.270   7.079   1.066 -0.7320  0.2044  0.3043
    2TTP    C33 9228   7.216   7.167   0.948  0.8372 -1.8871 -0.8163
    2TTP    C34 9229   7.301   7.144   0.826  0.3703 -0.0022 -0.5479
    2TTP    C35 9230   7.246   7.204   0.700 -0.4914 -0.3253  0.9163
    2TTP    C36 9231   7.277   7.346   0.686  0.2964  1.1009  0.1896
    2TTP    C37 9232   7.167   7.406   0.609 -0.7456 -0.6205  0.4494
    2TTP    C38 9233   7.110   7.540   0.664 -0.5627  0.5477 -1.1682
    2TTP    C39 9234   7.023   7.630   0.576 -0.6895  0.6574 -0.2881
    2TTP    C40 9235   6.916   7.543   0.490 -1.4324  0.0890 -1.7348
    2TTP    C41 9236   6.836   7.616   0.400  1.2950 -0.8259  0.4764
    2TTP    C42 9237   6.766   7.751   0.445  0.9158 -0.3708  0.1776
    3TTP     S1 9238   6.996   8.086   1.736 -0.2342  0.1576  0.2574
    3TTP     S5 9239   6.896   7.839   2.074 -0.4343 -0.4812 -0.2654
    3TTP     C1 9240   6.863   8.013   2.117 -0.2453 -0.5409  0.1216
    3TTP     C2 9241   6.892   8.099   2.016 -0.1724 -0.3474  0.3058
    3TTP     C3 9242   6.941   8.031   1.900 -0.2631 -0.1445  0.1480
    3TTP     C4 9243   7.028   7.912   1.693 -0.4231  0.2173 -0.1295
    3TTP    C17 9244   6.999   7.826   1.794 -0.4961  0.0238 -0.3137
    3TTP    C18 9245   6.950   7.894   1.910 -0.4053 -0.1788 -0.1560
    3TTP    C32 9246   6.860   8.247   1.992  0.2841 -0.3275 -1.1785
    3TTP    C33 9247   6.963   8.351   2.038  0.1882  0.3754  0.1223
    3TTP    C34 9248   6.924   8.409   2.179 -0.1475  0.6103 -0.4346
    3TTP    C35 9249   6.957   8.570   2.177  0.6672  0.2503 -0.6565
    3TTP    C36 9250   6.964   8.622   2.316 -0.0507  0.9749 -0.8705
    3TTP    C37 9251   7.065   8.577   2.429  0.8525 -0.2753 -0.1573
    3TTP    C38 9252   7.053   8.648   2.561 -0.5812 -0.5104 -0.4642
    3TTP    C39 9253   7.112   8.566   2.677 -0.1035  0.0096 -1.8490
    3TTP    C40 9254   7.079   8.406   2.676  1.3622 -0.9592  0.3303
    3TTP    C41 9255   7.162   8.318   2.762  0.3176 -0.0760  0.2042
    3TTP    C42 9256   7.135   8.306   2.912 -0.5761 -0.9825  0.2938
    4FIC     F1 9257   7.106   6.266   1.630 -0.2127 -0.3151 -0.1677
    4FIC     F2 9258   7.108   6.164   1.377  0.1959 -0.1495 -0.2326
    4FIC     O1 9259   7.179   6.793   1.529 -0.4271 -0.2000  0.2746
    4FIC     N5 9260   7.163   6.394   0.943  0.6303  0.1705 -0.0106
    4FIC     N6 9261   7.219   6.826   0.915  0.3803  0.2267  0.3480
    4FIC    C19 9262   7.206   6.883   1.252 -0.1131 -0.0011  0.3697
    4FIC    C20 9263   7.188   6.755   1.287 -0.0751 -0.0364  0.2609
    4FIC    C21 9264   7.175   6.716   1.432 -0.2446 -0.1395  0.2183
    4FIC    C22 9265   7.156   6.570   1.435 -0.1510 -0.1540  0.0974
    4FIC    C23 9266   7.139   6.488   1.546 -0.2476 -0.2381  0.0220
    4FIC    C24 9267   7.123   6.352   1.524 -0.1271 -0.2344 -0.0885
    4FIC    C25 9268   7.124   6.300   1.394  0.0834 -0.1492 -0.1218
    4FIC    C26 9269   7.141   6.381   1.282  0.1807 -0.0651 -0.0469
    4FIC    C27 9270   7.157   6.519   1.303  0.0612 -0.0672  0.0654
    4FIC    C28 9271   7.177   6.630   1.207  0.1162  0.0085  0.1645
    4FIC    C29 9272   7.184   6.620   1.070  0.3079  0.1022  0.1664
    4FIC    C30 9273   7.172   6.496   1.000  0.4845  0.1395  0.0691
    4FIC    C31 9274   7.203   6.734   0.985  0.3465  0.1702  0.2664
    5FIC     F1 9275   7.198   7.729   2.814  0.1276 -0.2254  0.0154
    5FIC     F2 9276   7.018   7.879   2.953  0.2663 -0.1644  0.1292
    5FIC     O1 9277   7.070   7.863   2.305 -0.2480 -0.2968  0.0904
    5FIC     N5 9278   6.669   8.190   2.791  0.1981 -0.1271  0.3461
    5FIC     N6 9279   6.605   8.264   2.365 -0.1234 -0.1953  0.3818
    5FIC    C19 9280   6.853   8.053   2.258 -0.2487 -0.2637  0.2255
    5FIC    C20 9281   6.892   8.014   2.380 -0.1597 -0.2482  0.2024
    5FIC    C21 9282   7.005   7.916   2.397 -0.1657 -0.2668  0.1322
    5FIC    C22 9283   7.021   7.895   2.542 -0.0556 -0.2426  0.1233
    5FIC    C23 9284   7.113   7.812   2.606 -0.0209 -0.2484  0.0664
    5FIC    C24 9285   7.110   7.809   2.744  0.0879 -0.2216  0.0698
    5FIC    C25 9286   7.017   7.886   2.816  0.1590 -0.1902  0.1285
    5FIC    C26 9287   6.925   7.969   2.753  0.1253 -0.1842  0.1854
    5FIC    C27 9288   6.927   7.973   2.612  0.0155 -0.2110  0.1829
    5FIC    C28 9289   6.844   8.050   2.516 -0.0458 -0.2134  0.2338
    5FIC    C29 9290   6.742   8.137   2.547 -0.0048 -0.1874  0.2979
    5FIC    C30 9291   6.702   8.165   2.681  0.1066 -0.1545  0.3241
    5FIC    C31 9292   6.667   8.206   2.447 -0.0703 -0.1919  0.3437
    1BTD     S2 9293   8.083   4.410  10.224  0.4643  0.0789  0.0002
    1BTD     N1 9294   8.139   4.570  10.164  0.1514  0.1891 -0.0055
    1BTD     N2 9295   7.908   4.455  10.223  0.3873 -0.2120  0.1445
    1BTD     N3 9296   7.656   4.835  10.114 -0.3345 -0.6055  0.4282
    1BTD     N4 9297   7.940   4.977  10.041 -0.6254 -0.1112  0.2432
    1BTD     C5 9298   8.032   4.780  10.101 -0.2506  0.0263  0.1261
    1BTD     C6 9299   8.031   4.644  10.148  0.0129  0.0126  0.0949
    1BTD     C7 9300   7.902   4.580  10.181  0.1448 -0.2117  0.1791
    1BTD     C8 9301   7.780   4.655  10.166  0.0072 -0.4114  0.2906
    1BTD    C15 9302   7.786   4.788  10.120 -0.2506 -0.3899  0.3174
    1BTD    C16 9303   7.910   4.850  10.088 -0.3781 -0.1735  0.2364
    1BTD    C43 9304   7.876   5.112  10.047  0.8536  0.3047 -0.3466
    1BTD    C44 9305   7.873   5.225  10.162  0.9635  0.3696 -0.5639
    1BTD    C45 9306   7.871   5.160  10.295  0.2169  0.3546 -1.5180
    1BTD    C46 9307   7.899   5.260  10.421 -0.8233 -0.1956 -0.1461
    1BTD    C47 9308   7.824   5.362  10.124  0.0761  0.0662  0.7007
    1BTD    C48 9309   7.820   5.393   9.984 -0.6693  0.3520  0.5958
    1BTD    C49 9310   7.709   5.492   9.947 -0.9490 -0.6157 -1.8887
    1BTD    C50 9311   7.740   5.529   9.810  0.6696  0.1129  0.9818
    1BTD    C75 9312   7.589   4.951  10.031  0.2096  0.8245  0.7141
    1BTD    C76 9313   7.473   4.926   9.920 -0.3312 -0.6103  0.1586
    1BTD    C77 9314   7.418   5.061   9.896  0.9277  1.0089  1.0664
    1BTD    C78 9315   7.393   5.165   9.996 -0.6912  0.3978 -1.5561
    1BTD    C79 9316   7.488   4.836   9.790  1.0579 -0.5263  0.5449
    1BTD    C80 9317   7.369   4.738   9.748  0.5749 -0.1463  0.2083
    1BTD    C81 9318   7.321   4.647   9.853  0.3495  0.6412 -0.6691
    1BTD    C82 9319   7.177   4.657   9.889  1.0577  0.5658  0.7581
    2TTP     S1 9320   8.317   4.836  10.026 -0.0271  0.3709 -0.1196
    2TTP     S5 9321   8.175   5.189   9.826 -0.2716  0.0249 -0.5610
    2TTP     C1 9322   8.348   5.161   9.779 -0.2608  0.0699 -0.5469
    2TTP     C2 9323   8.402   5.050   9.837 -0.1845  0.1793 -0.4101
    2TTP     C3 9324   8.309   4.983   9.922 -0.1321  0.2317 -0.3111
    2TTP     C4 9325   8.144   4.863  10.074 -0.0381  0.3259 -0.1340
    2TTP    C17 9326   8.090   4.974  10.015 -0.1140  0.2163 -0.2709
    2TTP    C18 9327   8.183   5.041   9.930 -0.1667  0.1640 -0.3698
    2TTP    C32 9328   8.536   4.995   9.809 -0.6352 -0.2680  0.1013
    2TTP    C33 9329   8.566   4.871   9.741  0.7944  1.3455 -0.5724
    2TTP    C34 9330   8.701   4.830   9.729 -1.3639  0.4318 -0.4669
    2TTP    C35 9331   8.745   4.755   9.613 -0.5161  1.6280 -0.0091
    2TTP    C36 9332   8.888   4.734   9.578 -0.2758 -1.1586 -0.7800
    2TTP    C37 9333   8.992   4.851   9.557  0.0652  0.5633  0.3559
    2TTP    C38 9334   8.980   4.974   9.473  0.6255 -1.5085  0.6530
    2TTP    C39 9335   9.021   4.983   9.318  0.7878  0.5639 -1.0903
    2TTP    C40 9336   9.112   5.095   9.264  0.6854 -0.8965 -0.9768
    2TTP    C41 9337   9.252   5.047   9.219 -0.0610 -0.1884 -0.3460
    2TTP    C42 9338   9.335   4.965   9.302 -0.0281  0.6280 -0.6618
    3TTP     S1 9339   7.549   4.509  10.275 -0.1654 -0.0650 -0.3397
    3TTP     S5 9340   7.299   4.857  10.239 -0.2452 -0.0511  0.3178
    3TTP     C1 9341   7.201   4.723  10.313 -0.1679 -0.1649  0.2152
    3TTP     C2 9342   7.272   4.607  10.329 -0.1388 -0.1758  0.0064
    3TTP     C3 9343   7.407   4.621  10.283 -0.1763 -0.0949 -0.0806
    3TTP     C4 9344   7.647   4.643  10.201 -0.2428  0.0488 -0.2372
    3TTP    C17 9345   7.575   4.758  10.185 -0.2720  0.0598 -0.0284
    3TTP    C18 9346   7.441   4.745  10.231 -0.2342 -0.0212  0.0587
    3TTP    C32 9347   7.208   4.480  10.396  0.1956 -0.7965 -0.9961
    3TTP    C33 9348   7.154   4.372  10.309 -0.7484  0.1683  0.7824
    3TTP    C34 9349   7.019   4.391  10.232 -0.1272 -0.6464 -0.2598
    3TTP    C35 9350   7.039   4.366  10.083  0.1963 -0.3903 -0.6211
    3TTP    C36 9351   6.913   4.378   9.995  0.5373  1.4387  0.0376
    3TTP    C37 9352   6.848   4.526   9.998  0.0610  0.5924  0.6713
    3TTP    C38 9353   6.782   4.570   9.855 -0.1171  0.6649 -0.7726
    3TTP    C39 9354   6.839   4.681   9.784 -0.2173  0.1658 -0.2430
    3TTP    C40 9355   6.783   4.828   9.808  1.0673  0.2584  0.0670
    3TTP    C41 9356   6.635   4.860   9.798 -0.0719  0.2432 -0.8606
    3TTP    C42 9357   6.637   5.016   9.834  1.3330  0.7119 -0.3280
    4FIC     F1 9358   8.317   5.978   9.690  0.3672  0.0371 -0.4196
    4FIC     F2 9359   8.549   5.966   9.548  0.5064 -0.3666 -0.1657
    4FIC     O1 9360   8.242   5.454   9.804 -0.3006  0.2424  0.0923
    4FIC     N5 9361   8.828   5.577   9.424  0.2298 -0.8004  0.5646
    4FIC     N6 9362   8.722   5.170   9.542 -0.3207 -0.5586  0.9134
    4FIC    C19 9363   8.436   5.257   9.708 -0.4053 -0.0704  0.5172
    4FIC    C20 9364   8.446   5.389   9.685 -0.2429 -0.1062  0.3781
    4FIC    C21 9365   8.342   5.484   9.738 -0.1988  0.0625  0.1628
    4FIC    C22 9366   8.383   5.619   9.695 -0.0126 -0.0281  0.0534
    4FIC    C23 9367   8.318   5.740   9.720  0.0870  0.0685 -0.1502
    4FIC    C24 9368   8.376   5.855   9.669  0.2611 -0.0490 -0.2197
    4FIC    C25 9369   8.496   5.849   9.596  0.3326 -0.2569 -0.0889
    4FIC    C26 9370   8.561   5.729   9.571  0.2339 -0.3546  0.1149
    4FIC    C27 9371   8.504   5.611   9.621  0.0572 -0.2381  0.1879
    4FIC    C28 9372   8.547   5.470   9.612 -0.0813 -0.2942  0.3927
    4FIC    C29 9373   8.660   5.422   9.549 -0.0632 -0.4841  0.5629
    4FIC    C30 9374   8.752   5.507   9.480  0.0980 -0.6574  0.5631
    4FIC    C31 9375   8.693   5.284   9.545 -0.2048 -0.5240  0.7551
    5FIC     F1 9376   6.549   5.187  10.150 -0.1866 -0.2483 -0.4675
    5FIC     F2 9377   6.429   5.091  10.375  0.0463  0.2109 -0.1433
    5FIC     O1 9378   7.015   4.911  10.158 -0.2209 -0.3053 -0.4394
    5FIC     N5 9379   6.588   4.757  10.703  0.3563  0.8305  0.3421
    5FIC     N6 9380   6.976   4.561  10.664  0.2828  0.6933  0.2987
    5FIC    C19 9381   7.065   4.722  10.375 -0.0107  0.1132 -0.1200
    5FIC    C20 9382   6.953   4.795  10.365 -0.0111  0.1097 -0.1397
    5FIC    C21 9383   6.934   4.890  10.250 -0.1227 -0.1124 -0.3076
    5FIC    C22 9384   6.802   4.953  10.269 -0.0923 -0.0551 -0.2849
    5FIC    C23 9385   6.741   5.048  10.188 -0.1668 -0.2044 -0.4055
    5FIC    C24 9386   6.615   5.093  10.226 -0.1178 -0.1103 -0.3542
    5FIC    C25 9387   6.553   5.044  10.342  0.0021  0.1265 -0.1879
    5FIC    C26 9388   6.614   4.949  10.423  0.0770  0.2767 -0.0665
    5FIC    C27 9389   6.741   4.902  10.386  0.0291  0.1844 -0.1161
    5FIC    C28 9390   6.831   4.803  10.449  0.0836  0.2949 -0.0200
    5FIC    C29 9391   6.807   4.732  10.565  0.1998  0.5251  0.1476
    5FIC    C30 9392   6.686   4.746  10.641  0.2855  0.6921  0.2539
    5FIC    C31 9393   6.900   4.638  10.619  0.2446  0.6162  0.2298
    1BTD     S2 9394   8.613   2.375   0.996 -0.0899 -0.7447 -0.3280
    1BTD     N1 9395   8.658   2.307   1.157 -0.0758 -0.5869 -0.2651
    1BTD     N2 9396   8.544   2.220   0.934 -0.1180 -0.7997 -0.1613
    1BTD     N3 9397   8.486   1.784   1.098 -0.1502 -0.6269  0.2921
    1BTD     N4 9398   8.626   1.891   1.372 -0.0978 -0.3647  0.1642
    1BTD     C5 9399   8.639   2.088   1.266 -0.0877 -0.4740 -0.0394
    1BTD     C6 9400   8.621   2.180   1.156 -0.0918 -0.5836 -0.1301
    1BTD     C7 9401   8.558   2.131   1.031 -0.1159 -0.7027 -0.0719
    1BTD     C8 9402   8.515   1.994   1.023 -0.1342 -0.7063  0.0739
    1BTD    C15 9403   8.535   1.908   1.133 -0.1295 -0.5968  0.1587
    1BTD    C16 9404   8.596   1.955   1.253 -0.1068 -0.4820  0.1027
    1BTD    C43 9405   8.598   1.754   1.426  0.3588 -0.5059  0.9088
    1BTD    C44 9406   8.681   1.676   1.532 -0.2567  0.0118  0.1395
    1BTD    C45 9407   8.604   1.570   1.607  0.4568  0.4299  1.4686
    1BTD    C46 9408   8.509   1.605   1.719 -0.0095 -0.9020 -0.7384
    1BTD    C47 9409   8.813   1.622   1.454  0.9409  1.4315 -0.2329
    1BTD    C48 9410   8.890   1.723   1.376 -1.0355 -0.5095  0.4180
    1BTD    C49 9411   8.989   1.790   1.473  0.6650  0.6607 -1.5299
    1BTD    C50 9412   9.068   1.900   1.422  0.4740  0.2037  1.2950
    1BTD    C75 9413   8.540   1.656   1.143 -0.1154 -0.0240  0.5128
    1BTD    C76 9414   8.437   1.541   1.154 -0.2388  1.1306 -0.6611
    1BTD    C77 9415   8.499   1.400   1.154  1.4294  0.1024 -0.3397
    1BTD    C78 9416   8.550   1.348   1.024  0.0918  0.2523  1.5592
    1BTD    C79 9417   8.348   1.571   1.270  0.1153 -1.1218  0.0821
    1BTD    C80 9418   8.229   1.485   1.320 -0.1102 -0.2512 -0.6052
    1BTD    C81 9419   8.234   1.341   1.338 -0.3832  1.4344 -0.0129
    1BTD    C82 9420   8.164   1.263   1.224  0.8089 -0.9969 -0.2014
    2TTP     S1 9421   8.682   2.263   1.487  0.1395 -0.0290  0.2398
    2TTP     S5 9422   8.534   1.950   1.743  0.2389 -0.5316 -0.3130
    2TTP     C1 9423   8.523   2.109   1.832  0.6568 -0.7615  0.1551
    2TTP     C2 9424   8.568   2.214   1.759  0.6506 -0.6200  0.3534
    2TTP     C3 9425   8.613   2.174   1.629  0.3157 -0.3247  0.1428
    2TTP     C4 9426   8.693   2.105   1.398 -0.2785  0.2010 -0.2283
    2TTP    C17 9427   8.648   1.999   1.472 -0.2724  0.0594 -0.4266
    2TTP    C18 9428   8.603   2.039   1.601  0.0625 -0.2359 -0.2160
    2TTP    C32 9429   8.576   2.369   1.804  0.4169  1.1891  0.5808
    2TTP    C33 9430   8.706   2.413   1.837 -0.1731  0.8510 -0.7553
    2TTP    C34 9431   8.801   2.315   1.929  0.0228  0.2689 -0.4842
    2TTP    C35 9432   8.803   2.313   2.091 -0.2276 -0.1892  0.7447
    2TTP    C36 9433   8.845   2.439   2.155  1.2447 -1.2981 -0.5769
    2TTP    C37 9434   8.727   2.535   2.194 -1.0970  0.7127 -0.4146
    2TTP    C38 9435   8.636   2.527   2.315  0.1207  1.2766  0.7848
    2TTP    C39 9436   8.691   2.446   2.434 -0.4041  0.3980  1.0767
    2TTP    C40 9437   8.577   2.422   2.520  0.6627 -0.7949 -0.1645
    2TTP    C41 9438   8.597   2.322   2.631  0.0392  0.8320 -0.5810
    2TTP    C42 9439   8.548   2.332   2.770 -0.0489  0.1459 -0.1938
    3TTP     S1 9440   8.327   1.957   0.780  0.2252 -0.0471 -0.0923
    3TTP     S5 9441   8.236   1.566   0.935  1.0040 -0.2218 -0.0696
    3TTP     C1 9442   8.139   1.593   0.784  0.6373 -0.2585  0.1575
    3TTP     C2 9443   8.161   1.715   0.727  0.3755 -0.2067  0.1638
    3TTP     C3 9444   8.256   1.792   0.801  0.4542 -0.1362 -0.0104
    3TTP     C4 9445   8.424   1.931   0.931  0.5915 -0.0105 -0.3194
    3TTP    C17 9446   8.402   1.809   0.988  0.8537 -0.0622 -0.3258
    3TTP    C18 9447   8.307   1.731   0.914  0.7741 -0.1327 -0.1516
    3TTP    C32 9448   8.074   1.800   0.627 -2.1281  0.9647  1.1098
    3TTP    C33 9449   8.077   1.727   0.495 -1.0923  0.6699  0.2410
    3TTP    C34 9450   8.029   1.799   0.379 -1.1631 -0.3286  1.1038
    3TTP    C35 9451   8.150   1.861   0.305 -0.3035  0.4265  0.0870
    3TTP    C36 9452   8.166   2.015   0.290 -0.5143  0.0306  0.6876
    3TTP    C37 9453   8.175   2.103   0.409  0.5919 -1.0898  0.0042
    3TTP    C38 9454   8.211   2.261   0.375  1.0368 -0.2195 -0.7037
    3TTP    C39 9455   8.294   2.334   0.479 -0.1033  0.4688 -0.3931
    3TTP    C40 9456   8.448   2.343   0.464 -0.4380 -0.3792  0.2553
    3TTP    C41 9457   8.552   2.390   0.565 -0.4999 -0.0949  0.1691
    3TTP    C42 9458   8.526   2.532   0.631  0.2577  0.3125  0.9984
    4FIC     F1 9459   8.421   1.594   2.464 -0.3467  0.1606  0.4999
    4FIC     F2 9460   8.283   1.790   2.592 -0.2129  0.2816  0.4593
    4FIC     O1 9461   8.568   1.851   2.011 -0.2608 -0.0655  0.3994
    4FIC     N5 9462   8.188   2.256   2.453  0.0405  0.2944  0.3294
    4FIC     N6 9463   8.332   2.417   2.073  0.0808  0.0935  0.2589
    4FIC    C19 9464   8.488   2.130   1.972 -0.1021 -0.0302  0.3249
    4FIC    C20 9465   8.457   2.058   2.081 -0.1290  0.0220  0.3517
    4FIC    C21 9466   8.502   1.915   2.094 -0.2112 -0.0006  0.3894
    4FIC    C22 9467   8.451   1.866   2.223 -0.2213  0.0693  0.4117
    4FIC    C23 9468   8.467   1.740   2.279 -0.2880  0.0769  0.4484
    4FIC    C24 9469   8.409   1.717   2.403 -0.2833  0.1490  0.4638
    4FIC    C25 9470   8.338   1.818   2.469 -0.2145  0.2113  0.4428
    4FIC    C26 9471   8.321   1.945   2.414 -0.1478  0.2042  0.4062
    4FIC    C27 9472   8.379   1.970   2.288 -0.1512  0.1316  0.3902
    4FIC    C28 9473   8.380   2.091   2.203 -0.0920  0.1050  0.3525
    4FIC    C29 9474   8.321   2.212   2.233 -0.0167  0.1488  0.3238
    4FIC    C30 9475   8.248   2.236   2.353  0.0143  0.2288  0.3269
    4FIC    C31 9476   8.327   2.324   2.144  0.0362  0.1181  0.2882
    5FIC     F1 9477   8.232   0.783   0.722  0.4508  0.1281 -0.4608
    5FIC     F2 9478   7.992   0.771   0.594 -0.0436 -0.0704  0.4655
    5FIC     O1 9479   8.278   1.316   0.805  0.1452  0.1300 -0.3010
    5FIC     N5 9480   7.680   1.134   0.469 -0.9730 -0.3545  1.9113
    5FIC     N6 9481   7.764   1.553   0.559 -1.1122 -0.3130  1.8495
    5FIC    C19 9482   8.065   1.494   0.712 -0.4361 -0.0590  0.6408
    5FIC    C20 9483   8.063   1.360   0.696 -0.3400 -0.0517  0.5644
    5FIC    C21 9484   8.176   1.275   0.746 -0.0381  0.0482  0.0698
    5FIC    C22 9485   8.142   1.136   0.713 -0.0045  0.0292  0.1141
    5FIC    C23 9486   8.217   1.021   0.740  0.2382  0.0990 -0.2487
    5FIC    C24 9487   8.164   0.900   0.699  0.2189  0.0633 -0.1199
    5FIC    C25 9488   8.040   0.894   0.633 -0.0362 -0.0390  0.3575
    5FIC    C26 9489   7.965   1.008   0.606 -0.2792 -0.1090  0.7213
    5FIC    C27 9490   8.017   1.132   0.647 -0.2637 -0.0743  0.5980
    5FIC    C28 9491   7.963   1.269   0.633 -0.4799 -0.1281  0.8937
    5FIC    C29 9492   7.844   1.305   0.575 -0.7570 -0.2294  1.3797
    5FIC    C30 9493   7.754   1.211   0.517 -0.8748 -0.2978  1.6703
    5FIC    C31 9494   7.801   1.441   0.566 -0.9507 -0.2749  1.6354
    1BTD     S2 9495   7.936   0.811   6.900 -0.5544 -0.2019 -0.3908
    1BTD     N1 9496   8.021   0.684   6.994 -0.2031  0.1716 -0.1948
    1BTD     N2 9497   7.956   0.729   6.742 -0.6826 -0.5798 -0.2123
    1BTD     N3 9498   8.152   0.330   6.589 -0.3092 -0.6755  0.5047
    1BTD     N4 9499   8.231   0.275   6.900  0.2813  0.2505  0.5262
    1BTD     C5 9500   8.130   0.471   6.941  0.0427  0.2016  0.1812
    1BTD     C6 9501   8.058   0.591   6.907 -0.1998  0.0041 -0.0159
    1BTD     C7 9502   8.022   0.616   6.766 -0.4683 -0.4165 -0.0256
    1BTD     C8 9503   8.059   0.520   6.665 -0.4807 -0.6186  0.1622
    1BTD    C15 9504   8.129   0.404   6.703 -0.2378 -0.4133  0.3520
    1BTD    C16 9505   8.164   0.379   6.839  0.0204 -0.0080  0.3614
    1BTD    C43 9506   8.358   0.217   6.855  0.0110  1.2325  0.3499
    1BTD    C44 9507   8.382   0.070   6.867 -1.0766 -0.7269  0.1871
    1BTD    C45 9508   8.260  -0.023   6.829 -0.4136  0.4302 -0.1980
    1BTD    C46 9509   8.264  -0.176   6.869  0.1277 -0.2532 -0.4078
    1BTD    C47 9510   8.513   0.004   6.837  0.8480 -0.6716  0.5456
    1BTD    C48 9511   8.622   0.074   6.900  0.4959 -1.3232 -0.6349
    1BTD    C49 9512   8.776   0.039   6.892 -0.7551 -0.4527 -0.7717
    1BTD    C50 9513   8.811  -0.104   6.835 -0.4431 -0.9023 -0.1510
    1BTD    C75 9514   8.209   0.195   6.578 -0.8227 -0.6422  0.9694
    1BTD    C76 9515   8.202   0.085   6.469  0.3497  0.4465 -1.0150
    1BTD    C77 9516   8.338   0.074   6.390 -0.6762  0.4257  0.0568
    1BTD    C78 9517   8.359  -0.036   6.280 -1.0399 -0.6416 -0.2209
    1BTD    C79 9518   8.127  -0.040   6.487  0.7492 -0.1083  0.8945
    1BTD    C80 9519   7.990  -0.032   6.551 -0.4453  0.6192  1.1138
    1BTD    C81 9520   7.904  -0.153   6.537  1.3062 -1.7526  0.6200
    1BTD    C82 9521   7.745  -0.146   6.571 -0.4113  0.2173  0.4635
    2TTP     S1 9522   8.172   0.464   7.237 -0.1960  0.1011 -0.3381
    2TTP     S5 9523   8.365   0.082   7.193 -0.6392 -0.1912  0.2369
    2TTP     C1 9524   8.357   0.123   7.370 -0.6788  0.0401  0.1824
    2TTP     C2 9525   8.297   0.243   7.394 -0.5445  0.1440  0.0015
    2TTP     C3 9526   8.255   0.307   7.274 -0.4051  0.0447 -0.1004
    2TTP     C4 9527   8.180   0.423   7.060 -0.1566 -0.1303 -0.2835
    2TTP    C17 9528   8.240   0.302   7.036 -0.2907 -0.2341 -0.1027
    2TTP    C18 9529   8.282   0.238   7.157 -0.4301 -0.1348 -0.0007
    2TTP    C32 9530   8.242   0.291   7.536 -0.2673  0.8982 -0.1391
    2TTP    C33 9531   8.097   0.317   7.568  1.0980 -0.6216 -1.0789
    2TTP    C34 9532   8.044   0.317   7.710 -0.8435 -0.1688 -0.2741
    2TTP    C35 9533   8.049   0.170   7.787 -0.1041 -1.8444 -1.1200
    2TTP    C36 9534   7.967   0.164   7.912 -1.2588 -1.2098 -1.5352
    2TTP    C37 9535   8.023   0.097   8.037 -0.5591 -0.0550  0.5275
    2TTP    C38 9536   8.166   0.120   8.083 -0.6955  0.2620 -0.1594
    2TTP    C39 9537   8.179   0.114   8.241 -0.9867 -0.0142  0.6710
    2TTP    C40 9538   8.287   0.222   8.285  1.5763  0.5735  0.7370
    2TTP    C41 9539   8.270   0.232   8.434 -1.6655 -0.1139  0.1602
    2TTP    C42 9540   8.361   0.338   8.494  0.9182 -0.3368 -0.7718
    3TTP     S1 9541   8.073   0.678   6.417 -0.2765  0.5056 -0.5388
    3TTP     S5 9542   8.326   0.375   6.245  0.0539  0.4254  0.0834
    3TTP     C1 9543   8.336   0.524   6.142 -0.0061  0.2684 -0.1502
    3TTP     C2 9544   8.258   0.626   6.189 -0.1118  0.2840 -0.3563
    3TTP     C3 9545   8.188   0.590   6.308 -0.1493  0.4204 -0.3369
    3TTP     C4 9546   8.063   0.528   6.521 -0.2165  0.6625 -0.3052
    3TTP    C17 9547   8.140   0.426   6.474 -0.1110  0.6470 -0.0990
    3TTP    C18 9548   8.210   0.462   6.354 -0.0734  0.5106 -0.1185
    3TTP    C32 9549   8.266   0.763   6.135 -0.4899  0.4671  0.9902
    3TTP    C33 9550   8.143   0.842   6.086  1.6018 -1.3141  0.2849
    3TTP    C34 9551   8.100   0.771   5.958  0.3001 -0.7119 -0.1571
    3TTP    C35 9552   8.007   0.657   5.971  0.2458 -0.2002  0.6453
    3TTP    C36 9553   7.906   0.658   6.074  0.6793 -1.1571 -0.8907
    3TTP    C37 9554   7.807   0.550   6.051  1.7261 -0.5571 -0.6665
    3TTP    C38 9555   7.774   0.482   6.174  0.3336  0.9787  0.5326
    3TTP    C39 9556   7.652   0.520   6.259  0.1867  0.1959 -0.3684
    3TTP    C40 9557   7.621   0.441   6.379 -1.4416  1.4244  0.2717
    3TTP    C41 9558   7.494   0.463   6.459  0.0803 -0.2752  0.2751
    3TTP    C42 9559   7.479   0.595   6.540  0.1366 -0.2886  0.7492
    4FIC     F1 9560   9.002  -0.388   7.348  0.2098  0.0896  0.0834
    4FIC     F2 9561   8.967  -0.431   7.615 -0.1259 -0.4067 -0.0378
    4FIC     O1 9562   8.605  -0.034   7.248  0.2937  0.2255  0.2303
    4FIC     N5 9563   8.633  -0.239   7.927 -0.5493 -1.0238 -0.1076
    4FIC     N6 9564   8.330   0.046   7.794 -0.4160 -0.8175  0.0319
    4FIC    C19 9565   8.431   0.052   7.467  0.0025 -0.2005  0.1668
    4FIC    C20 9566   8.532  -0.036   7.482 -0.0052 -0.2153  0.1346
    4FIC    C21 9567   8.617  -0.075   7.365  0.1497  0.0122  0.1707
    4FIC    C22 9568   8.717  -0.171   7.415  0.0968 -0.0691  0.1212
    4FIC    C23 9569   8.818  -0.235   7.344  0.1969  0.0758  0.1315
    4FIC    C24 9570   8.900  -0.322   7.413  0.1186 -0.0429  0.0771
    4FIC    C25 9571   8.882  -0.343   7.551 -0.0547 -0.2985  0.0145
    4FIC    C26 9572   8.782  -0.280   7.623 -0.1552 -0.4444  0.0041
    4FIC    C27 9573   8.697  -0.192   7.554 -0.0780 -0.3278  0.0585
    4FIC    C28 9574   8.582  -0.110   7.600 -0.1476 -0.4275  0.0641
    4FIC    C29 9575   8.533  -0.103   7.728 -0.3126 -0.6707  0.0138
    4FIC    C30 9576   8.588  -0.178   7.837 -0.4423 -0.8638 -0.0528
    4FIC    C31 9577   8.422  -0.021   7.764 -0.3686 -0.7501  0.0241
    5FIC     F1 9578   8.517   0.002   5.531  0.3202  0.0138 -0.3526
    5FIC     F2 9579   8.647   0.206   5.406  0.3872  0.0483 -0.2279
    5FIC     O1 9580   8.345   0.250   5.980  0.0448 -0.0982 -0.3958
    5FIC     N5 9581   8.710   0.676   5.546  0.2871  0.0179 -0.0794
    5FIC     N6 9582   8.549   0.829   5.922  0.0582 -0.0767 -0.1383
    5FIC    C19 9583   8.407   0.534   6.020  0.0108 -0.1052 -0.2919
    5FIC    C20 9584   8.445   0.463   5.912  0.0772 -0.0783 -0.2860
    5FIC    C21 9585   8.409   0.318   5.899  0.0906 -0.0766 -0.3415
    5FIC    C22 9586   8.466   0.272   5.770  0.1686 -0.0443 -0.3188
    5FIC    C23 9587   8.459   0.145   5.715  0.2062 -0.0315 -0.3531
    5FIC    C24 9588   8.520   0.125   5.592  0.2797 -0.0003 -0.3213
    5FIC    C25 9589   8.587   0.231   5.528  0.3139  0.0174 -0.2571
    5FIC    C26 9590   8.595   0.358   5.583  0.2768  0.0048 -0.2224
    5FIC    C27 9591   8.533   0.380   5.707  0.2022 -0.0267 -0.2539
    5FIC    C28 9592   8.523   0.501   5.791  0.1478 -0.0470 -0.2313
    5FIC    C29 9593   8.575   0.625   5.763  0.1600 -0.0383 -0.1709
    5FIC    C30 9594   8.649   0.653   5.644  0.2296 -0.0074 -0.1209
    5FIC    C31 9595   8.560   0.737   5.850  0.1037 -0.0595 -0.1534
    1BTD     S2 9596   5.118   2.807   5.943 -0.2383  0.3303  0.3530
    1BTD     N1 9597   5.252   2.691   5.914 -0.0647  0.5766  0.1655
    1BTD     N2 9598   5.162   2.838   6.115 -0.4511 -0.0904  0.4861
    1BTD     N3 9599   5.494   2.691   6.413 -0.5709 -0.5029  0.4182
    1BTD     N4 9600   5.606   2.511   6.166 -0.0949  0.3189  0.0234
    1BTD     C5 9601   5.435   2.599   6.049 -0.0861  0.4321  0.0961
    1BTD     C6 9602   5.319   2.682   6.028 -0.1688  0.3446  0.2095
    1BTD     C7 9603   5.269   2.764   6.141 -0.3850 -0.0287  0.3889
    1BTD     C8 9604   5.337   2.759   6.267 -0.5078 -0.2959  0.4460
    1BTD    C15 9605   5.450   2.677   6.283 -0.4204 -0.1978  0.3306
    1BTD    C16 9606   5.498   2.598   6.174 -0.2120  0.1619  0.1575
    1BTD    C43 9607   5.738   2.521   6.237 -0.0405 -1.0490  0.4769
    1BTD    C44 9608   5.885   2.460   6.192  0.1140  1.3759  0.7505
    1BTD    C45 9609   5.937   2.525   6.064  0.4359 -0.4391  1.9195
    1BTD    C46 9610   6.085   2.511   6.016 -0.8512  0.5221 -1.6388
    1BTD    C47 9611   5.980   2.466   6.312 -0.6303 -0.0268 -0.4609
    1BTD    C48 9612   5.978   2.397   6.435 -0.4723  0.5642  0.3457
    1BTD    C49 9613   5.980   2.237   6.429 -0.2154 -0.4333 -0.5018
    1BTD    C50 9614   5.924   2.170   6.549 -0.6948  1.3014  0.5428
    1BTD    C75 9615   5.536   2.576   6.507 -0.8037 -0.8701 -0.8876
    1BTD    C76 9616   5.509   2.416   6.499  0.5849 -0.6686 -0.8865
    1BTD    C77 9617   5.354   2.421   6.519  0.0772 -1.5075 -0.5460
    1BTD    C78 9618   5.295   2.295   6.492 -0.0522  1.2617 -1.2078
    1BTD    C79 9619   5.591   2.317   6.583 -0.0113 -0.1852 -0.7017
    1BTD    C80 9620   5.591   2.300   6.738  0.3413  0.0155 -0.0873
    1BTD    C81 9621   5.618   2.422   6.837  0.6950 -0.3571 -0.2782
    1BTD    C82 9622   5.750   2.424   6.899 -0.1064 -0.9101 -0.2468
    2TTP     S1 9623   5.450   2.397   5.817 -0.1715 -0.2774  0.2238
    2TTP     S5 9624   5.776   2.208   6.023  0.4722  0.6285  0.0463
    2TTP     C1 9625   5.734   2.108   5.877  0.7063  0.5377  0.0399
    2TTP     C2 9626   5.631   2.160   5.805  0.5215  0.2527  0.0942
    2TTP     C3 9627   5.581   2.282   5.862  0.1881  0.0956  0.1431
    2TTP     C4 9628   5.492   2.497   5.963 -0.4057 -0.1867  0.2301
    2TTP    C17 9629   5.595   2.445   6.035 -0.2207  0.0985  0.1757
    2TTP    C18 9630   5.645   2.324   5.978  0.1127  0.2554  0.1270
    2TTP    C32 9631   5.588   2.118   5.664  0.1661  0.5229  0.0162
    2TTP    C33 9632   5.477   2.016   5.668  0.6170 -0.3289 -0.4124
    2TTP    C34 9633   5.420   1.989   5.534  0.1481  0.5670 -0.3203
    2TTP    C35 9634   5.341   1.859   5.511 -0.6814  0.0033 -0.4482
    2TTP    C36 9635   5.273   1.790   5.638 -1.0763 -0.3489 -0.5024
    2TTP    C37 9636   5.124   1.815   5.633 -0.1908 -0.6839 -0.1109
    2TTP    C38 9637   5.036   1.703   5.676  1.3046  0.7933 -0.8614
    2TTP    C39 9638   5.033   1.605   5.558 -0.9040  0.3760 -0.6994
    2TTP    C40 9639   4.927   1.515   5.574  1.5012  0.6564 -0.4593
    2TTP    C41 9640   4.857   1.483   5.443  0.3936  1.0334 -0.2816
    2TTP    C42 9641   4.876   1.336   5.419 -0.5852 -0.2485  0.7527
    3TTP     S1 9642   5.234   2.985   6.442  0.0917  0.1272  0.0986
    3TTP     S5 9643   5.518   2.876   6.745 -0.3021 -0.3622  0.2936
    3TTP     C1 9644   5.430   3.026   6.800  0.0904 -0.0661  0.1215
    3TTP     C2 9645   5.337   3.069   6.709  0.2351  0.1025  0.0509
    3TTP     C3 9646   5.332   2.984   6.594  0.0412  0.0038  0.1305
    3TTP     C4 9647   5.322   2.836   6.388 -0.3010 -0.1687  0.2710
    3TTP    C17 9648   5.415   2.793   6.478 -0.4456 -0.3374  0.3413
    3TTP    C18 9649   5.420   2.877   6.594 -0.2517 -0.2388  0.2617
    3TTP    C32 9650   5.256   3.206   6.719 -0.1240  0.5037 -0.3960
    3TTP    C33 9651   5.103   3.192   6.754 -0.9725  0.5798 -0.9452
    3TTP    C34 9652   5.032   3.321   6.743 -0.5550  0.2711 -0.0768
    3TTP    C35 9653   4.916   3.309   6.833  0.5013 -0.6101  0.1364
    3TTP    C36 9654   4.803   3.401   6.819  0.0923  0.4041  0.6270
    3TTP    C37 9655   4.742   3.383   6.681  1.6300 -0.4321  0.2595
    3TTP    C38 9656   4.625   3.487   6.683  0.9655 -0.5534  0.5588
    3TTP    C39 9657   4.500   3.407   6.619  0.0027  0.6201 -0.2233
    3TTP    C40 9658   4.395   3.371   6.733  0.5663  1.0266 -0.0529
    3TTP    C41 9659   4.273   3.305   6.659 -1.1802  0.4954  1.1091
    3TTP    C42 9660   4.287   3.190   6.569 -0.8499  0.6363 -0.3310
    4FIC     F1 9661   6.474   1.779   6.058  0.2322  0.3752 -0.2418
    4FIC     F2 9662   6.383   1.547   5.950  0.0218  0.2038  0.2989
    4FIC     O1 9663   6.050   2.105   5.970  0.2848  0.3889 -0.4454
    4FIC     N5 9664   5.950   1.444   5.732 -0.2431 -0.0331  0.9314
    4FIC     N6 9665   5.638   1.746   5.685 -0.1594  0.0123  0.6633
    4FIC    C19 9666   5.813   1.999   5.835  0.1026  0.2300 -0.0010
    4FIC    C20 9667   5.923   1.926   5.862  0.0975  0.2333  0.0291
    4FIC    C21 9668   6.041   1.988   5.931  0.1947  0.3174 -0.2091
    4FIC    C22 9669   6.143   1.881   5.944  0.1616  0.2980 -0.1061
    4FIC    C23 9670   6.269   1.891   6.002  0.2241  0.3555 -0.2518
    4FIC    C24 9671   6.348   1.777   6.002  0.1750  0.3219 -0.1101
    4FIC    C25 9672   6.300   1.657   5.947  0.0667  0.2336  0.1683
    4FIC    C26 9673   6.175   1.647   5.889  0.0037  0.1758  0.3150
    4FIC    C27 9674   6.094   1.761   5.887  0.0521  0.2086  0.1752
    4FIC    C28 9675   5.957   1.784   5.835  0.0083  0.1653  0.2693
    4FIC    C29 9676   5.877   1.691   5.773 -0.0949  0.0788  0.5294
    4FIC    C30 9677   5.918   1.555   5.751 -0.1761  0.0176  0.7496
    4FIC    C31 9678   5.746   1.722   5.725 -0.1298  0.0427  0.6016
    5FIC     F1 9679   6.085   3.059   7.310 -0.1938  0.0464  0.0783
    5FIC     F2 9680   5.949   3.236   7.466 -0.3051  0.1240 -0.1066
    5FIC     O1 9681   5.726   2.975   6.914  0.0235 -0.2753 -0.0505
    5FIC     N5 9682   5.497   3.430   7.408 -0.3102  0.0066 -0.4643
    5FIC     N6 9683   5.244   3.328   7.066 -0.1178 -0.2604 -0.5277
    5FIC    C19 9684   5.468   3.113   6.922 -0.0055 -0.3152 -0.2729
    5FIC    C20 9685   5.564   3.128   7.016 -0.0559 -0.2373 -0.2333
    5FIC    C21 9686   5.694   3.053   7.004 -0.0367 -0.2217 -0.1180
    5FIC    C22 9687   5.774   3.091   7.122 -0.1036 -0.1311 -0.1019
    5FIC    C23 9688   5.902   3.048   7.155 -0.1128 -0.0869 -0.0077
    5FIC    C24 9689   5.958   3.098   7.271 -0.1811 -0.0011 -0.0118
    5FIC    C25 9690   5.888   3.189   7.352 -0.2382  0.0387 -0.1070
    5FIC    C26 9691   5.760   3.233   7.319 -0.2296 -0.0049 -0.2012
    5FIC    C27 9692   5.702   3.183   7.202 -0.1608 -0.0918 -0.1988
    5FIC    C28 9693   5.570   3.209   7.139 -0.1336 -0.1556 -0.2834
    5FIC    C29 9694   5.472   3.293   7.188 -0.1732 -0.1413 -0.3881
    5FIC    C30 9695   5.486   3.368   7.308 -0.2484 -0.0601 -0.4296
    5FIC    C31 9696   5.347   3.312   7.121 -0.1425 -0.2069 -0.4644
    1BTD     S2 9697   8.559   7.810   8.056 -0.2406 -0.1378  0.1110
    1BTD     N1 9698   8.404   7.759   8.133 -0.1302 -0.3506  0.1936
    1BTD     N2 9699   8.570   7.665   7.949 -0.3710  0.1354 -0.2784
    1BTD     N3 9700   8.313   7.280   7.872 -0.4385  0.3077 -0.9228
    1BTD     N4 9701   8.109   7.396   8.098 -0.1419 -0.2906 -0.3412
    1BTD     C5 9702   8.253   7.568   8.112 -0.1402 -0.3122 -0.0927
    1BTD     C6 9703   8.371   7.643   8.078 -0.1934 -0.2141 -0.0603
    1BTD     C7 9704   8.463   7.591   7.976 -0.3281  0.0578 -0.3244
    1BTD     C8 9705   8.433   7.465   7.912 -0.4027  0.2180 -0.6078
    1BTD    C15 9706   8.317   7.395   7.948 -0.3464  0.1139 -0.6291
    1BTD    C16 9707   8.228   7.446   8.047 -0.2167 -0.1482 -0.3747
    1BTD    C43 9708   8.045   7.261   8.093 -0.0388 -0.1769 -0.4509
    1BTD    C44 9709   8.043   7.146   8.210  0.3755 -1.1922 -0.6805
    1BTD    C45 9710   8.161   7.102   8.279  0.0242  0.1556  0.3622
    1BTD    C46 9711   8.230   7.212   8.350  0.3713  0.3550 -0.4806
    1BTD    C47 9712   7.947   7.018   8.185  0.7280 -0.4113 -0.8477
    1BTD    C48 9713   7.969   6.910   8.102 -1.3861  0.0947  0.6721
    1BTD    C49 9714   7.952   6.776   8.176 -0.7298  1.0738 -0.2086
    1BTD    C50 9715   7.988   6.640   8.098  1.0836 -1.5671 -0.7735
    1BTD    C75 9716   8.227   7.174   7.874  0.4322  0.5230  1.2129
    1BTD    C76 9717   8.132   7.175   7.749 -1.0960  0.0918 -0.7905
    1BTD    C77 9718   8.050   7.058   7.717  0.7314  0.5832  0.7958
    1BTD    C78 9719   8.080   6.905   7.730 -1.4478 -0.2294  1.4339
    1BTD    C79 9720   8.056   7.311   7.714 -0.1993  0.1502  0.5684
    1BTD    C80 9721   7.975   7.333   7.585  0.2112 -0.3658  0.4042
    1BTD    C81 9722   8.042   7.332   7.430 -0.4587  0.1731 -0.5881
    1BTD    C82 9723   8.035   7.189   7.380  0.3554 -0.1888  0.3746
    2TTP     S1 9724   8.068   7.733   8.298 -0.2730 -0.0953 -0.2008
    2TTP     S5 9725   7.829   7.381   8.359  0.3324 -0.4560  0.1116
    2TTP     C1 9726   7.759   7.516   8.458 -0.2445 -0.3271 -0.4591
    2TTP     C2 9727   7.829   7.633   8.445 -0.4654 -0.2083 -0.5891
    2TTP     C3 9728   7.940   7.620   8.356 -0.1870 -0.2146 -0.2427
    2TTP     C4 9729   8.138   7.598   8.199  0.3040 -0.2241  0.3700
    2TTP    C17 9730   8.069   7.481   8.212  0.5248 -0.3432  0.4998
    2TTP    C18 9731   7.957   7.494   8.300  0.2465 -0.3368  0.1533
    2TTP    C32 9732   7.811   7.784   8.482  0.7812  1.7950  0.7937
    2TTP    C33 9733   7.699   7.847   8.579 -1.3471  0.9194 -0.4713
    2TTP    C34 9734   7.548   7.853   8.530  0.0832 -1.4018 -0.5322
    2TTP    C35 9735   7.470   7.946   8.635 -1.6705  0.7715 -0.3493
    2TTP    C36 9736   7.352   7.904   8.726  0.8288 -0.9418 -0.7576
    2TTP    C37 9737   7.215   7.921   8.654  0.5845 -0.0824  0.4498
    2TTP    C38 9738   7.154   8.067   8.661  0.8393 -0.7754 -1.0608
    2TTP    C39 9739   7.044   8.105   8.568 -0.8398 -1.1115  0.4039
    2TTP    C40 9740   6.909   8.077   8.613 -0.4863  0.1460 -0.0686
    2TTP    C41 9741   6.814   8.061   8.512  0.3136  0.5907  0.6273
    2TTP    C42 9742   6.686   7.984   8.569 -0.0892 -0.8028  0.9151
    3TTP     S1 9743   8.637   7.406   7.690 -0.1195 -0.3105  0.1265
    3TTP     S5 9744   8.417   7.056   7.575  0.3912 -0.4904 -0.3098
    3TTP     C1 9745   8.556   7.078   7.459  0.6178 -0.3930 -0.0223
    3TTP     C2 9746   8.632   7.187   7.488  0.4737 -0.3319  0.1293
    3TTP     C3 9747   8.583   7.258   7.602  0.1788 -0.3594  0.0240
    3TTP     C4 9748   8.499   7.384   7.806 -0.3459 -0.4079 -0.1611
    3TTP    C17 9749   8.423   7.275   7.777 -0.2014 -0.4692 -0.3127
    3TTP    C18 9750   8.471   7.204   7.663  0.0930 -0.4414 -0.2074
    3TTP    C32 9751   8.750   7.224   7.403 -0.9324 -0.9157 -0.0773
    3TTP    C33 9752   8.816   7.372   7.377 -0.4082 -0.3720 -1.8767
    3TTP    C34 9753   8.919   7.372   7.272 -0.1634  0.6519 -2.1461
    3TTP    C35 9754   9.012   7.497   7.257 -0.0491 -0.1846  0.3227
    3TTP    C36 9755   9.161   7.496   7.239  1.3128 -0.0593  0.5197
    3TTP    C37 9756   9.198   7.626   7.181  0.9479 -0.5994 -0.3265
    3TTP    C38 9757   9.229   7.743   7.271 -1.0278 -0.4361  0.4579
    3TTP    C39 9758   9.313   7.848   7.199 -0.4243 -0.4275 -0.7502
    3TTP    C40 9759   9.305   7.972   7.290 -0.8591 -0.3635 -1.7143
    3TTP    C41 9760   9.345   7.956   7.437 -0.6704 -0.4391 -0.2455
    3TTP    C42 9761   9.471   8.043   7.467 -0.8951 -0.2810  0.5699
    4FIC     F1 9762   7.068   7.082   8.399  0.2764 -0.8532  0.6497
    4FIC     F2 9763   6.997   7.172   8.646 -0.0859  0.2602  0.1502
    4FIC     O1 9764   7.540   7.338   8.329  0.4632 -1.3011  0.2580
    4FIC     N5 9765   7.230   7.484   8.950 -0.4740  1.5421 -0.8478
    4FIC     N6 9766   7.613   7.666   8.846 -0.2550  0.9677 -1.0536
    4FIC    C19 9767   7.639   7.515   8.540  0.1834 -0.3960 -0.3589
    4FIC    C20 9768   7.523   7.447   8.548  0.1504 -0.3270 -0.2406
    4FIC    C21 9769   7.479   7.358   8.436  0.3016 -0.8125  0.0782
    4FIC    C22 9770   7.350   7.300   8.477  0.2193 -0.5931  0.1338
    4FIC    C23 9771   7.270   7.211   8.405  0.3058 -0.8868  0.3974
    4FIC    C24 9772   7.152   7.170   8.464  0.1996 -0.5891  0.3966
    4FIC    C25 9773   7.115   7.216   8.591  0.0130 -0.0153  0.1387
    4FIC    C26 9774   7.194   7.305   8.663 -0.0741  0.2804 -0.1252
    4FIC    C27 9775   7.314   7.348   8.605  0.0310 -0.0141 -0.1283
    4FIC    C28 9776   7.420   7.440   8.654 -0.0187  0.1724 -0.3688
    4FIC    C29 9777   7.420   7.507   8.774 -0.1889  0.7060 -0.6552
    4FIC    C30 9778   7.316   7.494   8.871 -0.3451  1.1638 -0.7601
    4FIC    C31 9779   7.526   7.594   8.813 -0.2241  0.8470 -0.8726
    5FIC     F1 9780   8.347   6.330   7.197  0.4051  0.0014  0.3806
    5FIC     F2 9781   8.443   6.398   6.952 -0.1330 -0.0981  0.1396
    5FIC     O1 9782   8.453   6.780   7.478  0.9243  0.1568 -0.0612
    5FIC     N5 9783   8.657   6.818   6.799 -0.5364 -0.1304 -0.5219
    5FIC     N6 9784   8.720   7.156   7.068 -0.0219  0.0112 -0.8185
    5FIC    C19 9785   8.583   7.006   7.344  0.5950  0.1169 -0.4483
    5FIC    C20 9786   8.552   6.890   7.282  0.4854  0.0818 -0.3279
    5FIC    C21 9787   8.486   6.778   7.358  0.6683  0.1055 -0.1308
    5FIC    C22 9788   8.467   6.668   7.263  0.4835  0.0559 -0.0386
    5FIC    C23 9789   8.410   6.543   7.287  0.5581  0.0566  0.1448
    5FIC    C24 9790   8.403   6.454   7.180  0.3460  0.0042  0.2010
    5FIC    C25 9791   8.452   6.490   7.054  0.0692 -0.0472  0.0765
    5FIC    C26 9792   8.510   6.614   7.029 -0.0067 -0.0480 -0.1067
    5FIC    C27 9793   8.518   6.705   7.136  0.2048  0.0045 -0.1659
    5FIC    C28 9794   8.572   6.843   7.143  0.1950  0.0185 -0.3488
    5FIC    C29 9795   8.629   6.914   7.040 -0.0389 -0.0200 -0.5070
    5FIC    C30 9796   8.644   6.861   6.908 -0.3114 -0.0807 -0.5145
    5FIC    C31 9797   8.679   7.046   7.056 -0.0284 -0.0029 -0.6775
    1BTD     S2 9798   2.486   5.946   8.358 -0.0330  0.3394 -0.3004
    1BTD     N1 9799   2.592   6.075   8.425 -0.1121  0.3017 -0.1013
    1BTD     N2 9800   2.566   5.813   8.449 -0.1248  0.2844 -0.3011
    1BTD     N3 9801   2.919   5.775   8.756 -0.4545  0.1032  0.0579
    1BTD     N4 9802   2.952   6.098   8.726 -0.4388  0.1247  0.3042
    1BTD     C5 9803   2.779   6.083   8.583 -0.2829  0.2090  0.1073
    1BTD     C6 9804   2.677   6.016   8.508 -0.1984  0.2522 -0.0482
    1BTD     C7 9805   2.662   5.869   8.521 -0.2055  0.2426 -0.1600
    1BTD     C8 9806   2.751   5.797   8.609 -0.2967  0.1900 -0.1106
    1BTD    C15 9807   2.849   5.868   8.681 -0.3776  0.1487  0.0429
    1BTD    C16 9808   2.864   6.009   8.668 -0.3707  0.1583  0.1505
    1BTD    C43 9809   3.022   6.072   8.845 -0.0315 -1.6923 -1.2857
    1BTD    C44 9810   2.967   6.124   8.982 -1.1200  2.1335 -0.5592
    1BTD    C45 9811   2.831   6.088   9.032  1.5586  0.7119 -1.3665
    1BTD    C46 9812   2.762   6.157   9.157  0.7216  0.6990  0.8381
    1BTD    C47 9813   3.081   6.147   9.095 -0.1820 -0.4654 -0.2930
    1BTD    C48 9814   3.168   6.035   9.154  0.2487 -0.0951  0.0281
    1BTD    C49 9815   3.273   6.109   9.231 -1.3596  0.0145  1.6303
    1BTD    C50 9816   3.366   6.008   9.305 -0.5516 -0.2579 -0.2416
    1BTD    C75 9817   3.058   5.784   8.825  0.6799  1.0384 -0.6394
    1BTD    C76 9818   3.188   5.741   8.757  0.0706 -0.3101  0.0002
    1BTD    C77 9819   3.226   5.847   8.644  0.5774  0.5784  1.1582
    1BTD    C78 9820   3.356   5.822   8.555 -0.0770 -1.1857 -0.8175
    1BTD    C79 9821   3.307   5.691   8.843 -1.3950  1.5026  0.1135
    1BTD    C80 9822   3.250   5.618   8.981 -0.3534  0.4893  0.4874
    1BTD    C81 9823   3.356   5.537   9.049  0.6807 -0.4255  0.6542
    1BTD    C82 9824   3.334   5.516   9.202 -1.2643  0.9502  1.0599
    2TTP     S1 9825   2.788   6.397   8.529 -0.2473  0.2313 -0.2547
    2TTP     S5 9826   3.131   6.421   8.787 -0.0611 -0.1289 -0.4671
    2TTP     C1 9827   3.092   6.588   8.727 -0.0269 -0.0630 -0.3084
    2TTP     C2 9828   2.984   6.590   8.643 -0.0824  0.0520 -0.2337
    2TTP     C3 9829   2.928   6.460   8.624 -0.1538  0.0925 -0.2987
    2TTP     C4 9830   2.826   6.230   8.590 -0.2815  0.1655 -0.4132
    2TTP    C17 9831   2.935   6.227   8.673 -0.2260  0.0505 -0.4881
    2TTP    C18 9832   2.991   6.357   8.692 -0.1546  0.0100 -0.4230
    2TTP    C32 9833   2.924   6.730   8.588  1.0298 -0.1268 -0.1811
    2TTP    C33 9834   2.841   6.742   8.459  0.1292 -0.0656  0.1261
    2TTP    C34 9835   2.737   6.856   8.447  0.4937  0.6859  0.4019
    2TTP    C35 9836   2.777   6.999   8.471 -0.3716 -0.4598 -0.2331
    2TTP    C36 9837   2.669   7.116   8.448 -0.4621 -0.7357 -0.6502
    2TTP    C37 9838   2.520   7.095   8.413 -0.6080  1.1128  2.3097
    2TTP    C38 9839   2.443   7.209   8.335  0.4925 -1.3101  0.1468
    2TTP    C39 9840   2.294   7.184   8.313 -0.4180  0.3229  0.2608
    2TTP    C40 9841   2.250   7.163   8.163  0.2691 -1.3300 -0.0820
    2TTP    C41 9842   2.293   7.023   8.100  0.4867  1.2334 -0.9587
    2TTP    C42 9843   2.253   7.005   7.955 -0.8283  0.3787  0.5175
    3TTP     S1 9844   2.686   5.517   8.568 -0.4423 -0.0399  0.4798
    3TTP     S5 9845   3.043   5.423   8.788  0.1991 -0.6571 -0.8020
    3TTP     C1 9846   2.982   5.271   8.709 -0.2638 -0.5221 -0.7102
    3TTP     C2 9847   2.868   5.291   8.636 -0.4892 -0.3234 -0.3088
    3TTP     C3 9848   2.825   5.428   8.640 -0.3043 -0.2710 -0.0596
    3TTP     C4 9849   2.747   5.669   8.647  0.0206 -0.1751  0.3877
    3TTP    C17 9850   2.861   5.649   8.719  0.2460 -0.3736 -0.0139
    3TTP    C18 9851   2.904   5.513   8.715  0.0611 -0.4262 -0.2627
    3TTP    C32 9852   2.791   5.203   8.553  1.7609 -1.1168  0.6307
    3TTP    C33 9853   2.854   5.178   8.411  0.2544 -0.5048 -0.3192
    3TTP    C34 9854   3.007   5.132   8.395  0.8251 -0.0561 -0.2332
    3TTP    C35 9855   3.077   5.214   8.291  0.8484 -0.1026  1.5009
    3TTP    C36 9856   3.213   5.211   8.265 -0.3027  0.2056  0.2283
    3TTP    C37 9857   3.307   5.274   8.378  2.4356 -0.1070 -0.3591
    3TTP    C38 9858   3.444   5.293   8.327  0.3260 -1.7853  0.0730
    3TTP    C39 9859   3.476   5.403   8.229  0.7657 -0.5715  0.5805
    3TTP    C40 9860   3.578   5.521   8.263  0.0555  1.1952 -0.7677
    3TTP    C41 9861   3.598   5.544   8.404  0.6828 -0.8186 -0.4862
    3TTP    C42 9862   3.740   5.594   8.441 -0.8569 -0.9906 -0.0329
    4FIC     F1 9863   3.852   6.786   8.985 -0.0478 -0.3221 -0.2038
    4FIC     F2 9864   3.791   7.050   8.955 -0.1858 -0.2578  0.6120
    4FIC     O1 9865   3.389   6.557   8.823 -0.0311 -0.0566 -0.6311
    4FIC     N5 9866   3.375   7.266   8.798 -0.3722  0.0237  1.4806
    4FIC     N6 9867   3.025   7.033   8.677 -0.3312  0.2183  0.9820
    4FIC    C19 9868   3.167   6.727   8.737 -0.1568  0.0991 -0.0037
    4FIC    C20 9869   3.285   6.775   8.779 -0.1557  0.0298  0.0722
    4FIC    C21 9870   3.395   6.681   8.821 -0.0889 -0.0478 -0.2668
    4FIC    C22 9871   3.509   6.765   8.861 -0.1061 -0.1109 -0.0801
    4FIC    C23 9872   3.634   6.723   8.907 -0.0610 -0.1926 -0.2732
    4FIC    C24 9873   3.727   6.821   8.938 -0.0893 -0.2407 -0.0324
    4FIC    C25 9874   3.695   6.957   8.923 -0.1604 -0.2074  0.3874
    4FIC    C26 9875   3.572   6.999   8.877 -0.2057 -0.1259  0.5822
    4FIC    C27 9876   3.476   6.901   8.845 -0.1780 -0.0763  0.3440
    4FIC    C28 9877   3.337   6.913   8.794 -0.2113  0.0114  0.4542
    4FIC    C29 9878   3.270   7.030   8.766 -0.2805  0.0653  0.8371
    4FIC    C30 9879   3.328   7.159   8.784 -0.3307  0.0422  1.1897
    4FIC    C31 9880   3.136   7.031   8.717 -0.3080  0.1493  0.9148
    5FIC     F1 9881   3.641   4.971   9.103 -0.7944  0.1605  1.9739
    5FIC     F2 9882   3.533   4.723   9.075  0.5591 -0.2328 -0.2310
    5FIC     O1 9883   3.274   5.272   8.841 -0.9949  0.0851  2.1670
    5FIC     N5 9884   3.117   4.580   8.848  2.3621 -0.8516 -3.2637
    5FIC     N6 9885   2.852   4.865   8.649  1.9326 -0.8312 -2.6681
    5FIC    C19 9886   3.041   5.142   8.722  0.2270 -0.3172  0.1294
    5FIC    C20 9887   3.137   5.076   8.788  0.2246 -0.2829  0.1667
    5FIC    C21 9888   3.254   5.150   8.847 -0.4242 -0.0716  1.2465
    5FIC    C22 9889   3.339   5.048   8.912 -0.2466 -0.0887  0.9918
    5FIC    C23 9890   3.459   5.069   8.981 -0.6801  0.0669  1.7276
    5FIC    C24 9891   3.522   4.958   9.034 -0.3948  0.0140  1.2929
    5FIC    C25 9892   3.466   4.830   9.019  0.3025 -0.1886  0.1567
    5FIC    C26 9893   3.347   4.809   8.952  0.7380 -0.3446 -0.5820
    5FIC    C27 9894   3.282   4.920   8.897  0.4587 -0.2940 -0.1576
    5FIC    C28 9895   3.155   4.932   8.820  0.7759 -0.4214 -0.7095
    5FIC    C29 9896   3.071   4.829   8.785  1.4516 -0.6282 -1.8208
    5FIC    C30 9897   3.096   4.692   8.820  1.9499 -0.7504 -2.6102
    5FIC    C31 9898   2.951   4.850   8.710  1.7123 -0.7387 -2.2810
    1BTD     S2 9899   0.436   3.286   1.489  0.2159 -0.1967  0.2955
    1BTD     N1 9900   0.536   3.376   1.368  0.4700 -0.4496  0.3161
    1BTD     N2 9901   0.415   3.141   1.385 -0.5280  0.0355  0.1045
    1BTD     N3 9902   0.553   3.006   0.957 -1.5852  0.0523 -0.2474
    1BTD     N4 9903   0.701   3.295   0.937 -0.3554 -0.5455  0.0134
    1BTD     C5 9904   0.620   3.330   1.143  0.0243 -0.4925  0.1549
    1BTD     C6 9905   0.548   3.297   1.263  0.0110 -0.3529  0.1864
    1BTD     C7 9906   0.480   3.165   1.272 -0.5476 -0.0812  0.0679
    1BTD     C8 9907   0.489   3.074   1.161 -1.0651  0.0371 -0.0761
    1BTD    C15 9908   0.561   3.111   1.046 -1.0315 -0.1071 -0.1018
    1BTD    C16 9909   0.626   3.237   1.037 -0.4932 -0.3687  0.0124
    1BTD    C43 9910   0.693   3.272   0.788 -0.5915  0.4806  0.8546
    1BTD    C44 9911   0.811   3.291   0.696 -0.1075 -1.6665  0.4413
    1BTD    C45 9912   0.946   3.242   0.755  0.1899 -0.1029  0.6026
    1BTD    C46 9913   0.978   3.092   0.740  0.6669 -0.0959  0.6335
    1BTD    C47 9914   0.776   3.262   0.539 -0.8859  0.4923 -0.5156
    1BTD    C48 9915   0.644   3.317   0.476  0.5517 -1.4080 -0.5119
    1BTD    C49 9916   0.610   3.298   0.323 -0.1934  0.3448 -1.4329
    1BTD    C50 9917   0.713   3.257   0.226  0.2946  0.8059 -0.9824
    1BTD    C75 9918   0.661   2.945   0.868 -1.0311 -0.2863  1.0943
    1BTD    C76 9919   0.774   2.857   0.934 -0.0496  1.1721 -0.7284
    1BTD    C77 9920   0.809   2.714   0.890 -0.3681 -0.3479 -0.6595
    1BTD    C78 9921   0.832   2.681   0.743 -0.9629  0.0434 -0.0145
    1BTD    C79 9922   0.846   2.916   1.051 -2.0977  0.0636  0.3548
    1BTD    C80 9923   1.002   2.916   1.049  0.1076  0.6694 -0.3349
    1BTD    C81 9924   1.059   2.879   1.192 -0.8198  1.1357 -0.4119
    1BTD    C82 9925   1.208   2.874   1.174 -0.0133 -0.8675  0.0408
    2TTP     S1 9926   0.666   3.637   1.143 -0.8293  0.2363  0.2677
    2TTP     S5 9927   0.755   3.606   0.724  0.6874 -0.1350  0.6019
    2TTP     C1 9928   0.745   3.782   0.768  0.2006 -0.0942  0.3497
    2TTP     C2 9929   0.717   3.802   0.900 -0.2965  0.0230  0.2316
    2TTP     C3 9930   0.702   3.679   0.971 -0.3108  0.0846  0.3361
    2TTP     C4 9931   0.676   3.461   1.099 -0.3425  0.1955  0.5198
    2TTP    C17 9932   0.704   3.441   0.967  0.1546  0.0784  0.6380
    2TTP    C18 9933   0.719   3.564   0.896  0.1689  0.0166  0.5335
    2TTP    C32 9934   0.702   3.921   0.991  0.0990  0.0643 -0.9861
    2TTP    C33 9935   0.685   4.059   0.940 -0.8027  1.3263 -0.5542
    2TTP    C34 9936   0.595   4.137   1.028  0.3359 -0.8398  1.1911
    2TTP    C35 9937   0.447   4.116   1.088 -0.6748 -0.8486 -0.7647
    2TTP    C36 9938   0.344   4.046   0.995 -0.7256 -0.6920 -0.8653
    2TTP    C37 9939   0.241   3.997   1.091 -0.4109  0.4172  0.0788
    2TTP    C38 9940   0.112   3.959   1.030  0.7910  0.0043 -1.3660
    2TTP    C39 9941   0.039   3.876   1.141  0.1878  0.6840 -0.5776
    2TTP    C40 9942  -0.090   3.820   1.082 -1.5622  0.0881 -0.2116
    2TTP    C41 9943  -0.176   3.727   1.147  1.1994  0.7101  0.8204
    2TTP    C42 9944  -0.322   3.761   1.151  0.3129  0.5172 -2.0106
    3TTP     S1 9945   0.333   2.817   1.222  0.4077 -0.6407  0.4545
    3TTP     S5 9946   0.431   2.671   0.830 -0.1123  0.4405 -0.0860
    3TTP     C1 9947   0.326   2.548   0.913 -0.1879  0.3111 -0.3715
    3TTP     C2 9948   0.290   2.586   1.039 -0.0318 -0.0303 -0.2214
    3TTP     C3 9949   0.343   2.713   1.074  0.1532 -0.2022  0.1245
    3TTP     C4 9950   0.438   2.940   1.139  0.4834 -0.5113  0.7400
    3TTP    C17 9951   0.475   2.902   1.013  0.3272 -0.1699  0.5900
    3TTP    C18 9952   0.421   2.775   0.977  0.1423  0.0019  0.2441
    3TTP    C32 9953   0.210   2.507   1.150 -0.3050  0.7696 -1.0657
    3TTP    C33 9954   0.323   2.461   1.270  1.2220 -0.1687  0.3480
    3TTP    C34 9955   0.243   2.376   1.377 -2.2900 -0.3158  0.6711
    3TTP    C35 9956   0.332   2.367   1.512  0.8865  1.2226  0.9513
    3TTP    C36 9957   0.333   2.213   1.558  1.5457  0.5405 -0.4380
    3TTP    C37 9958   0.359   2.082   1.465 -0.2428 -0.6991 -0.2733
    3TTP    C38 9959   0.516   2.062   1.471 -1.2148  0.2176  0.8270
    3TTP    C39 9960   0.560   2.026   1.328 -0.5875  0.0128  0.5388
    3TTP    C40 9961   0.696   1.963   1.333 -0.6761 -0.8747  0.4133
    3TTP    C41 9962   0.757   1.985   1.201  0.8199  1.1120  1.6778
    3TTP    C42 9963   0.893   1.924   1.179 -0.2704 -1.4196 -0.5194
    4FIC     F1 9964   0.389   3.865   0.043  0.0065  0.1758  0.2369
    4FIC     F2 9965   0.515   4.104   0.012 -0.0834  0.2003  0.0556
    4FIC     O1 9966   0.572   3.714   0.529  0.3710  0.4291  0.1786
    4FIC     N5 9967   0.827   4.340   0.314  0.0474  0.4156 -0.2470
    4FIC     N6 9968   0.945   4.174   0.700  0.3504  0.6087 -0.2560
    4FIC    C19 9969   0.758   3.889   0.672  0.4147  0.5423 -0.0154
    4FIC    C20 9970   0.707   3.917   0.551  0.3265  0.4777  0.0063
    4FIC    C21 9971   0.612   3.823   0.484  0.3097  0.4222  0.1078
    4FIC    C22 9972   0.576   3.884   0.355  0.2067  0.3587  0.1061
    4FIC    C23 9973   0.490   3.833   0.257  0.1573  0.2939  0.1832
    4FIC    C24 9974   0.472   3.909   0.143  0.0598  0.2414  0.1640
    4FIC    C25 9975   0.537   4.032   0.127  0.0137  0.2540  0.0704
    4FIC    C26 9976   0.622   4.084   0.224  0.0625  0.3188 -0.0068
    4FIC    C27 9977   0.642   4.008   0.340  0.1613  0.3724  0.0112
    4FIC    C28 9978   0.726   4.034   0.461  0.2331  0.4460 -0.0539
    4FIC    C29 9979   0.805   4.144   0.483  0.2162  0.4786 -0.1512
    4FIC    C30 9980   0.817   4.251   0.390  0.1234  0.4437 -0.2035
    4FIC    C31 9981   0.881   4.160   0.603  0.2901  0.5498 -0.2082
    5FIC     F1 9982   0.733   2.038   0.415  0.0766  0.0200 -0.2041
    5FIC     F2 9983   0.533   1.856   0.450  0.2900 -0.1313  0.2442
    5FIC     O1 9984   0.556   2.443   0.729  0.1218  0.1695 -0.3711
    5FIC     N5 9985   0.122   1.882   0.723  0.6291 -0.2424  0.7697
    5FIC     N6 9986   0.024   2.235   0.961  0.6214 -0.0951  0.5489
    5FIC    C19 9987   0.303   2.412   0.873  0.3418  0.0781 -0.0021
    5FIC    C20 9988   0.356   2.318   0.793  0.3221  0.0463  0.0224
    5FIC    C21 9989   0.486   2.341   0.722  0.2067  0.0972 -0.1754
    5FIC    C22 9990   0.513   2.219   0.644  0.2147  0.0443 -0.0904
    5FIC    C23 9991   0.623   2.193   0.562  0.1293  0.0646 -0.2116
    5FIC    C24 9992   0.627   2.070   0.498  0.1570  0.0042 -0.0946
    5FIC    C25 9993   0.524   1.976   0.516  0.2670 -0.0737  0.1364
    5FIC    C26 9994   0.415   2.001   0.597  0.3527 -0.0943  0.2583
    5FIC    C27 9995   0.409   2.125   0.663  0.3262 -0.0340  0.1428
    5FIC    C28 9996   0.308   2.182   0.755  0.3966 -0.0359  0.2213
    5FIC    C29 9997   0.192   2.121   0.798  0.5092 -0.1014  0.4371
    5FIC    C30 9998   0.154   1.990   0.756  0.5747 -0.1787  0.6193
    5FIC    C31 9999   0.100   2.184   0.887  0.5703 -0.0976  0.4974
    1BTD     S210000   0.219   9.480   8.205 -0.4241 -0.0374 -0.0600
    1BTD     N110001   0.058   9.410   8.244 -0.3971  0.0575  0.2308
    1BTD     N210002   0.302   9.405   8.346 -0.2426  0.0191 -0.1354
    1BTD     N310003   0.178   9.125   8.703  0.1758  0.3045  0.2360
    1BTD     N410004  -0.122   9.132   8.576 -0.0145  0.3519  0.6869
    1BTD     C510005  -0.032   9.265   8.419 -0.1950  0.2105  0.4635
    1BTD     C610006   0.073   9.338   8.354 -0.2613  0.1225  0.2553
    1BTD     C710007   0.209   9.335   8.411 -0.1748  0.1013  0.0503
    1BTD     C810008   0.234   9.259   8.531 -0.0264  0.1686  0.0641
    1BTD    C1510009   0.127   9.189   8.591  0.0338  0.2539  0.2713
    1BTD    C1610010  -0.004   9.192   8.536 -0.0495  0.2743  0.4686
    1BTD    C4310011  -0.143   9.009   8.658  0.6658 -0.5232 -1.0368
    1BTD    C4410012  -0.121   8.863   8.619  1.1722  0.5485  0.3785
    1BTD    C4510013   0.030   8.830   8.563 -0.2287 -0.8844  0.1595
    1BTD    C4610014   0.055   8.696   8.478  0.4479 -0.1887  0.0435
    1BTD    C4710015  -0.197   8.757   8.693  0.1804 -0.1946 -0.7775
    1BTD    C4810016  -0.153   8.760   8.855 -0.5469 -0.5872  0.9465
    1BTD    C4910017  -0.048   8.667   8.912  1.9817  0.4386  0.7269
    1BTD    C5010018  -0.107   8.524   8.924 -0.9288  0.8396 -0.3349
    1BTD    C7510019   0.123   9.078   8.832 -0.1055 -0.0748  0.7605
    1BTD    C7610020   0.133   9.175   8.955 -1.3439 -0.6222 -0.0703
    1BTD    C7710021   0.148   9.100   9.097 -0.6265  0.6445  0.5992
    1BTD    C7810022   0.010   9.021   9.138 -1.7530 -0.5208  0.6828
    1BTD    C7910023   0.019   9.276   8.931 -0.6705 -1.2015 -1.2605
    1BTD    C8010024   0.028   9.405   9.030  0.5296  0.0072 -0.7709
    1BTD    C8110025  -0.117   9.399   9.072  0.4663  0.5662 -0.3930
    1BTD    C8210026  -0.161   9.480   9.197 -0.2954  0.2531  0.3368
    2TTP     S110027  -0.294   9.377   8.333  0.6284  0.4854 -0.0041
    2TTP     S510028  -0.460   9.203   8.689  0.0131 -0.1845 -0.6111
    2TTP     C110029  -0.574   9.331   8.629  0.0993 -0.0974 -0.5884
    2TTP     C210030  -0.530   9.392   8.515  0.2940  0.1147 -0.4001
    2TTP     C310031  -0.404   9.340   8.472  0.3827  0.2162 -0.2661
    2TTP     C410032  -0.180   9.249   8.393  0.5422  0.3982 -0.0267
    2TTP    C1710033  -0.225   9.188   8.507  0.3475  0.1862 -0.2153
    2TTP    C1810034  -0.351   9.240   8.550  0.2587  0.0851 -0.3490
    2TTP    C3210035  -0.613   9.490   8.439 -0.8859  0.0291  0.4929
    2TTP    C3310036  -0.742   9.441   8.377 -0.2544 -0.1722 -1.2538
    2TTP    C3410037  -0.746   9.438   8.234  0.6533  0.4634  2.4572
    2TTP    C3510038  -0.863   9.389   8.138 -1.1882 -0.8261 -0.7339
    2TTP    C3610039  -0.873   9.237   8.106 -0.6857 -0.5946  0.5259
    2TTP    C3710040  -1.001   9.197   8.058 -0.6136  1.7348  0.5542
    2TTP    C3810041  -1.076   9.132   8.170 -0.3636  0.0417 -0.8194
    2TTP    C3910042  -1.225   9.139   8.154  1.2679  0.0379  0.1478
    2TTP    C4010043  -1.295   9.062   8.249 -0.0458 -0.3657 -0.1647
    2TTP    C4110044  -1.425   8.988   8.202  0.4631  0.1512 -0.4921
    2TTP    C4210045  -1.540   9.067   8.147  1.0102 -0.2027  0.2538
    3TTP     S110046   0.529   9.225   8.566  0.0240  0.0745  0.3576
    3TTP     S510047   0.450   8.912   8.851 -0.2400 -0.5915 -0.4385
    3TTP     C110048   0.627   8.907   8.807 -0.1530 -0.3488 -0.1262
    3TTP     C210049   0.661   9.003   8.716 -0.0664 -0.1290  0.1385
    3TTP     C310050   0.550   9.085   8.678 -0.0656 -0.1445  0.1035
    3TTP     C410051   0.353   9.230   8.610 -0.0631 -0.1681  0.0451
    3TTP    C1710052   0.318   9.134   8.701 -0.1497 -0.3883 -0.2193
    3TTP    C1810053   0.429   9.052   8.738 -0.1505 -0.3729 -0.1845
    3TTP    C3210054   0.811   9.019   8.657 -0.4708 -0.8704  0.4096
    3TTP    C3310055   0.839   8.957   8.518 -0.3575  1.7447 -1.3493
    3TTP    C3410056   0.990   8.895   8.527 -0.7130  1.4162 -0.2659
    3TTP    C3510057   1.016   8.794   8.413  0.5605 -0.8999  0.1643
    3TTP    C3610058   1.036   8.657   8.461 -0.0286  1.4314  0.2846
    3TTP    C3710059   1.089   8.549   8.356 -0.2410 -0.6553 -0.4782
    3TTP    C3810060   1.158   8.434   8.426 -0.8967 -1.4796 -0.2677
    3TTP    C3910061   1.078   8.364   8.540  0.1748 -1.2258  0.4583
    3TTP    C4010062   1.129   8.220   8.532  0.0642  0.5567 -1.1687
    3TTP    C4110063   1.073   8.126   8.645 -0.2899  0.0789  0.3939
    3TTP    C4210064   0.928   8.070   8.617 -0.1248  0.3602  0.0864
    4FIC     F110065  -1.043   9.002   9.219  0.1042 -0.3707 -0.3898
    4FIC     F210066  -1.218   9.208   9.190  0.5102  0.0610  0.1884
    4FIC     O110067  -0.665   9.135   8.855 -0.1459 -0.6406 -0.7491
    4FIC     N510068  -1.200   9.600   8.888  0.9155  0.4900  0.7634
    4FIC     N610069  -0.869   9.662   8.609  0.6378  0.1919  0.3664
    4FIC    C1910070  -0.698   9.379   8.697  0.1527 -0.3237 -0.3241
    4FIC    C2010071  -0.786   9.338   8.790  0.2000 -0.2728 -0.2565
    4FIC    C2110072  -0.762   9.211   8.867  0.0379 -0.4451 -0.4871
    4FIC    C2210073  -0.877   9.195   8.959  0.1407 -0.3347 -0.3402
    4FIC    C2310074  -0.899   9.093   9.050  0.0527 -0.4272 -0.4642
    4FIC    C2410075  -1.015   9.100   9.127  0.1810 -0.2904 -0.2813
    4FIC    C2510076  -1.105   9.206   9.111  0.3901 -0.0677  0.0163
    4FIC    C2610077  -1.083   9.309   9.020  0.4787  0.0255  0.1421
    4FIC    C2710078  -0.966   9.304   8.942  0.3514 -0.1106 -0.0398
    4FIC    C2810079  -0.914   9.395   8.838  0.3963 -0.0634  0.0234
    4FIC    C2910080  -0.974   9.511   8.794  0.5836  0.1359  0.2902
    4FIC    C3010081  -1.098   9.560   8.846  0.7653  0.3297  0.5496
    4FIC    C3110082  -0.916   9.594   8.692  0.6125  0.1652  0.3304
    5FIC     F110083   0.564   8.111   9.013 -0.3056 -0.1006 -0.4072
    5FIC     F210084   0.832   8.110   9.061 -0.4494  0.0155  0.4327
    5FIC     O110085   0.494   8.621   8.843  0.0513 -0.2198 -0.9167
    5FIC     N510086   1.167   8.470   9.008 -0.4017  0.0980  1.2767
    5FIC     N610087   1.058   8.868   8.866 -0.0939 -0.0191  0.7091
    5FIC    C1910088   0.725   8.800   8.828  0.0407 -0.1511 -0.2954
    5FIC    C2010089   0.732   8.672   8.869 -0.0435 -0.1256 -0.2003
    5FIC    C2110090   0.609   8.586   8.874 -0.0318 -0.1638 -0.5367
    5FIC    C2210091   0.652   8.453   8.922 -0.1377 -0.1223 -0.3271
    5FIC    C2310092   0.573   8.341   8.943 -0.1664 -0.1369 -0.5100
    5FIC    C2410093   0.637   8.226   8.990 -0.2718 -0.0894 -0.2467
    5FIC    C2510094   0.775   8.226   9.014 -0.3457 -0.0296  0.1857
    5FIC    C2610095   0.854   8.338   8.994 -0.3177 -0.0148  0.3705
    5FIC    C2710096   0.792   8.455   8.947 -0.2114 -0.0620  0.1092
    5FIC    C2810097   0.846   8.589   8.915 -0.1564 -0.0618  0.2046
    5FIC    C2910098   0.978   8.628   8.926 -0.2015 -0.0117  0.5929
    5FIC    C3010099   1.081   8.541   8.971 -0.3115  0.0484  0.9675
    5FIC    C3110100   1.021   8.760   8.893 -0.1421 -0.0162  0.6549
    1BTD     S210101   3.974   2.390   5.025 -0.5723 -0.0636 -0.8390
    1BTD     N110102   4.006   2.388   4.848 -0.6214  0.4075 -0.8570
    1BTD     N210103   3.989   2.569   5.040 -0.4571 -0.1119 -0.3473
    1BTD     N310104   4.078   2.928   4.751 -0.3114  0.6402  0.6220
    1BTD     N410105   4.098   2.705   4.515 -0.5139  1.2802 -0.0060
    1BTD     C510106   4.053   2.556   4.677 -0.5629  0.8554 -0.4051
    1BTD     C610107   4.025   2.514   4.811 -0.5530  0.4997 -0.5134
    1BTD     C710108   4.016   2.615   4.919 -0.4611  0.2090 -0.2280
    1BTD     C810109   4.036   2.754   4.887 -0.3833  0.2885  0.1513
    1BTD    C1510110   4.063   2.791   4.754 -0.3962  0.6407  0.2446
    1BTD    C1610111   4.072   2.693   4.650 -0.4850  0.9208 -0.0305
    1BTD    C4310112   4.187   2.799   4.449 -0.9794 -0.4619  1.4181
    1BTD    C4410113   4.244   2.779   4.294  0.2029  0.7613 -0.1525
    1BTD    C4510114   4.258   2.901   4.223  0.6737 -0.6325  0.3342
    1BTD    C4610115   4.132   2.991   4.201  0.4136  1.0718  0.4519
    1BTD    C4710116   4.358   2.685   4.263 -0.1164  0.2654  0.6858
    1BTD    C4810117   4.393   2.563   4.357  1.5683  1.1907  0.3554
    1BTD    C4910118   4.453   2.433   4.291  0.3886  0.0718 -1.7666
    1BTD    C5010119   4.596   2.486   4.248  0.3144 -0.3094  0.1877
    1BTD    C7510120   3.997   2.989   4.640 -0.1070  0.5346 -0.6241
    1BTD    C7610121   4.013   3.139   4.589 -0.1159 -0.3253 -0.8158
    1BTD    C7710122   4.157   3.180   4.548  0.2317  0.1394 -0.8728
    1BTD    C7810123   4.206   3.318   4.599 -0.8790  0.9001  0.3589
    1BTD    C7910124   3.895   3.205   4.534  0.0494 -1.5800  0.3505
    1BTD    C8010125   3.815   3.279   4.641  0.5671  0.1469 -0.8668
    1BTD    C8110126   3.738   3.212   4.757 -0.2108  0.1480  0.5794
    1BTD    C8210127   3.689   3.321   4.845 -0.0533  0.1669 -0.3479
    2TTP     S110128   3.976   2.326   4.501 -0.5405 -0.1826 -0.0117
    2TTP     S510129   3.937   2.614   4.183 -0.2379 -0.3412 -0.1935
    2TTP     C110130   3.853   2.460   4.133  0.0272 -0.4526 -0.3037
    2TTP     C210131   3.860   2.362   4.228 -0.0506 -0.4101 -0.2539
    2TTP     C310132   3.932   2.405   4.344 -0.3224 -0.2881 -0.1272
    2TTP     C410133   4.060   2.479   4.551 -0.8055 -0.0711  0.0985
    2TTP    C1710134   4.053   2.577   4.456 -0.7279 -0.1135  0.0489
    2TTP    C1810135   3.981   2.534   4.340 -0.4560 -0.2356 -0.0780
    2TTP    C3210136   3.794   2.227   4.230 -0.6576  0.6337  1.2521
    2TTP    C3310137   3.674   2.226   4.313  0.4936 -1.4278 -0.0941
    2TTP    C3410138   3.532   2.209   4.259 -0.0401 -0.1244 -0.6604
    2TTP    C3510139   3.401   2.211   4.343 -0.0927 -0.1564  0.6846
    2TTP    C3610140   3.414   2.153   4.489  0.1446 -0.1961 -0.1826
    2TTP    C3710141   3.307   2.197   4.587  1.4692 -0.2851  0.0732
    2TTP    C3810142   3.355   2.235   4.729  0.5714  0.4353  0.9198
    2TTP    C3910143   3.427   2.146   4.814  0.3472 -0.1562  0.0325
    2TTP    C4010144   3.465   2.177   4.957 -0.0952 -1.0217  0.6457
    2TTP    C4110145   3.555   2.299   4.964 -0.2005 -0.4501  0.7161
    2TTP    C4210146   3.481   2.440   4.970  0.2047  1.0501 -0.2763
    3TTP     S110147   3.953   2.938   5.124 -0.7994  0.8966  0.0404
    3TTP     S510148   4.145   3.258   4.909  0.4697 -0.0169 -0.2074
    3TTP     C110149   4.089   3.322   5.070  0.4759  0.3970 -0.3668
    3TTP     C210150   4.026   3.227   5.146  0.0844  0.7035 -0.2997
    3TTP     C310151   4.020   3.100   5.079 -0.2347  0.6225 -0.1200
    3TTP     C410152   4.009   2.875   4.963 -0.8056  0.4827  0.1996
    3TTP    C1710153   4.071   2.970   4.887 -0.4138  0.1762  0.1326
    3TTP    C1810154   4.077   3.096   4.953 -0.0950  0.2573 -0.0471
    3TTP    C3210155   3.997   3.240   5.295  0.5312 -0.1647 -1.4516
    3TTP    C3310156   4.120   3.213   5.384 -0.3674  0.5670  0.9907
    3TTP    C3410157   4.112   3.180   5.519  0.3390 -1.2769 -0.2259
    3TTP    C3510158   4.244   3.145   5.587 -1.0091  0.0347  0.3478
    3TTP    C3610159   4.271   3.176   5.733 -0.4038 -0.7599  0.7044
    3TTP    C3710160   4.160   3.139   5.815  0.0418  0.6226  0.3888
    3TTP    C3810161   4.113   3.257   5.910 -0.4033  3.3613 -0.0584
    3TTP    C3910162   4.001   3.225   6.005 -0.6339 -0.0534 -0.8458
    3TTP    C4010163   3.939   3.347   6.073 -0.3853 -0.1370 -0.3246
    3TTP    C4110164   3.877   3.464   5.995 -0.8511  0.2134 -1.3571
    3TTP    C4210165   3.775   3.437   5.901  0.2583 -0.5633  0.3607
    4FIC     F110166   3.633   2.914   3.474 -0.5518  0.2756  0.3741
    4FIC     F210167   3.490   2.702   3.380  0.0693  0.0230 -0.0077
    4FIC     O110168   3.837   2.706   3.930 -0.6371  0.3330  0.4389
    4FIC     N510169   3.432   2.249   3.569  0.9013 -0.2992 -0.5103
    4FIC     N610170   3.620   2.129   3.944  0.7094 -0.2033 -0.3828
    4FIC    C1910171   3.774   2.429   4.002 -0.0740  0.1122  0.0972
    4FIC    C2010172   3.728   2.490   3.891 -0.0768  0.1076  0.0958
    4FIC    C2110173   3.765   2.632   3.861 -0.3757  0.2252  0.2774
    4FIC    C2210174   3.699   2.667   3.733 -0.2958  0.1869  0.2252
    4FIC    C2310175   3.703   2.788   3.665 -0.4963  0.2633  0.3456
    4FIC    C2410176   3.632   2.797   3.547 -0.3670  0.2056  0.2634
    4FIC    C2510177   3.559   2.688   3.498 -0.0469  0.0755  0.0667
    4FIC    C2610178   3.554   2.567   3.566  0.1543 -0.0013 -0.0543
    4FIC    C2710179   3.625   2.556   3.686  0.0277  0.0554  0.0263
    4FIC    C2810180   3.640   2.442   3.781  0.1750  0.0014 -0.0610
    4FIC    C2910181   3.584   2.317   3.769  0.4855 -0.1231 -0.2508
    4FIC    C3010182   3.500   2.280   3.659  0.7131 -0.2195 -0.3929
    4FIC    C3110183   3.604   2.214   3.865  0.6070 -0.1665 -0.3224
    5FIC     F110184   4.608   3.935   4.905 -0.0257 -0.2524 -0.3730
    5FIC     F210185   4.428   4.104   5.020  0.3473 -0.1923  0.1330
    5FIC     O110186   4.362   3.459   4.979 -0.3959 -0.0801 -0.4898
    5FIC     N510187   3.994   4.008   5.236  0.6196  0.0170  0.7772
    5FIC     N610188   3.838   3.601   5.271  0.2552  0.1395  0.5836
    5FIC    C1910189   4.103   3.451   5.115 -0.1710  0.0386 -0.0481
    5FIC    C2010190   4.172   3.564   5.092 -0.0925 -0.0072 -0.0385
    5FIC    C2110191   4.305   3.560   5.021 -0.2176 -0.0668 -0.2739
    5FIC    C2210192   4.352   3.700   5.013 -0.0870 -0.1059 -0.1965
    5FIC    C2310193   4.470   3.746   4.956 -0.1364 -0.1656 -0.3492
    5FIC    C2410194   4.493   3.883   4.960  0.0127 -0.1934 -0.2332
    5FIC    C2510195   4.400   3.969   5.019  0.2049 -0.1624  0.0276
    5FIC    C2610196   4.282   3.924   5.075  0.2551 -0.1029  0.1811
    5FIC    C2710197   4.257   3.786   5.073  0.1061 -0.0739  0.0669
    5FIC    C2810198   4.143   3.706   5.123  0.1104 -0.0119  0.1744
    5FIC    C2910199   4.031   3.755   5.188  0.2716  0.0324  0.4237
    5FIC    C3010200   4.011   3.894   5.214  0.4623  0.0237  0.6171
    5FIC    C3110201   3.926   3.670   5.233  0.2617  0.0911  0.5102
    1BTD     S210202   0.551   4.068   5.769 -0.2195 -0.0829  0.3400
    1BTD     N110203   0.698   4.015   5.679  0.1562  0.3933  0.6629
    1BTD     N210204   0.485   4.165   5.633 -0.5641 -0.8092 -0.0212
    1BTD     N310205   0.615   4.267   5.193 -0.5881 -1.4290 -0.1748
    1BTD     N410206   0.877   4.082   5.250  0.2995  0.0528  0.6683
    1BTD     C510207   0.788   4.052   5.454  0.2203  0.1976  0.6554
    1BTD     C610208   0.690   4.069   5.558  0.0128  0.0064  0.4934
    1BTD     C710209   0.571   4.153   5.533 -0.3904 -0.6665  0.1106
    1BTD     C810210   0.556   4.216   5.404 -0.5659 -1.1147 -0.0912
    1BTD    C1510211   0.654   4.196   5.305 -0.3517 -0.9062  0.0786
    1BTD    C1610212   0.769   4.116   5.330  0.0368 -0.2578  0.4477
    1BTD    C4310213   0.942   4.131   5.122 -0.3128  0.1574 -0.7197
    1BTD    C4410214   1.032   4.254   5.140 -0.7707 -0.2245  0.0849
    1BTD    C4510215   0.987   4.360   5.243 -0.3094 -0.6202 -0.1317
    1BTD    C4610216   1.098   4.406   5.333 -0.4217  0.7582  0.6646
    1BTD    C4710217   1.071   4.336   5.016 -0.4561  0.0674  0.6424
    1BTD    C4810218   1.130   4.271   4.892 -0.2416  0.0653 -0.3043
    1BTD    C4910219   1.164   4.382   4.800 -1.0329 -0.7864 -0.9836
    1BTD    C5010220   1.209   4.321   4.674  0.4301  0.8919  1.0120
    1BTD    C7510221   0.669   4.255   5.048  0.4219 -0.5840 -0.9950
    1BTD    C7610222   0.654   4.373   4.949 -0.1661 -0.1839 -0.6455
    1BTD    C7710223   0.726   4.511   4.990 -0.8685 -0.6296  0.2744
    1BTD    C7810224   0.712   4.633   4.899 -0.3459  0.7937  0.6132
    1BTD    C7910225   0.688   4.332   4.803 -0.7436 -0.3216 -0.0971
    1BTD    C8010226   0.613   4.224   4.734 -0.6765  1.2858  0.8376
    1BTD    C8110227   0.492   4.252   4.650  0.7978  0.6295  0.1963
    1BTD    C8210228   0.481   4.362   4.548  0.0541 -0.7149 -0.2434
    2TTP     S110229   1.015   3.891   5.559 -0.6157 -0.3535 -0.1390
    2TTP     S510230   1.175   3.871   5.160  0.6767  0.8637  0.3052
    2TTP     C110231   1.280   3.771   5.270  0.0610  0.1599  0.2623
    2TTP     C210232   1.236   3.771   5.399 -0.3744 -0.2575  0.1228
    2TTP     C310233   1.119   3.850   5.417 -0.2374 -0.0365  0.0443
    2TTP     C410234   0.910   3.991   5.449 -0.0000  0.3502 -0.0962
    2TTP    C1710235   0.954   3.991   5.320  0.4354  0.7676  0.0434
    2TTP    C1810236   1.071   3.912   5.302  0.2984  0.5467  0.1218
    2TTP    C3210237   1.271   3.653   5.506 -0.0075 -0.2971  0.4634
    2TTP    C3310238   1.322   3.715   5.636  0.4302  0.8635 -1.2542
    2TTP    C3410239   1.478   3.721   5.631 -0.1242 -0.0055  0.0419
    2TTP    C3510240   1.530   3.798   5.754  0.1563 -0.1272 -0.5665
    2TTP    C3610241   1.619   3.684   5.792 -0.3139  0.0420 -0.9148
    2TTP    C3710242   1.733   3.746   5.880  0.9364 -1.0180  0.8220
    2TTP    C3810243   1.784   3.670   5.998  0.5284  0.2745 -1.0052
    2TTP    C3910244   1.687   3.667   6.123 -1.2582  0.4048  0.1472
    2TTP    C4010245   1.681   3.523   6.172 -0.6577 -0.1742  0.3353
    2TTP    C4110246   1.551   3.451   6.156 -0.1049  0.8671 -0.3277
    2TTP    C4210247   1.408   3.499   6.190  0.4034  0.7880  0.0570
    3TTP     S110248   0.292   4.342   5.404  0.2306 -0.3243 -0.1630
    3TTP     S510249   0.307   4.363   4.974 -0.7176  0.7889 -0.1493
    3TTP     C110250   0.138   4.402   5.029 -0.5965  0.6621  0.3283
    3TTP     C210251   0.123   4.398   5.164 -0.2966  0.3110  0.3523
    3TTP     C310252   0.245   4.364   5.230 -0.1516  0.1293 -0.0056
    3TTP     C410253   0.461   4.302   5.349  0.1095 -0.1975 -0.6405
    3TTP    C1710254   0.476   4.307   5.213 -0.1904  0.1537 -0.6643
    3TTP    C1810255   0.354   4.341   5.147 -0.3355  0.3355 -0.3065
    3TTP    C3210256  -0.008   4.454   5.237 -1.4660  0.2280  1.0214
    3TTP    C3310257  -0.005   4.590   5.309 -0.1209 -0.7896  0.6117
    3TTP    C3410258   0.091   4.682   5.399  0.7299 -0.6211 -0.6829
    3TTP    C3510259   0.139   4.618   5.524  0.4033  0.9945  0.1742
    3TTP    C3610260   0.252   4.676   5.597 -0.5750  0.2166  0.5675
    3TTP    C3710261   0.302   4.613   5.728  0.8535  1.3231  0.6658
    3TTP    C3810262   0.226   4.636   5.860 -0.6958  1.9510 -0.2948
    3TTP    C3910263   0.116   4.556   5.934 -0.1977  0.0853  0.3763
    3TTP    C4010264   0.007   4.502   5.851 -0.6094  1.0333  1.0894
    3TTP    C4110265  -0.139   4.462   5.896  0.7887 -0.3543  0.7456
    3TTP    C4210266  -0.171   4.405   6.038 -1.2455 -0.3484  0.9214
    4FIC     F110267   1.734   3.717   4.589  0.4304  0.7811  0.4511
    4FIC     F210268   1.853   3.495   4.691 -0.0862  0.1926 -0.2007
    4FIC     O110269   1.408   3.856   4.998  0.6200  0.2263  0.7926
    4FIC     N510270   1.793   3.275   5.130 -0.6938 -1.0490 -0.8947
    4FIC     N610271   1.515   3.429   5.430 -0.4415 -1.3638 -0.4965
    4FIC    C1910272   1.407   3.694   5.242  0.1938 -0.5330  0.2912
    4FIC    C2010273   1.484   3.668   5.135  0.1663 -0.3705  0.2307
    4FIC    C2110274   1.479   3.756   5.013  0.3946  0.0210  0.5015
    4FIC    C2210275   1.575   3.699   4.916  0.2975  0.1105  0.3524
    4FIC    C2310276   1.605   3.746   4.789  0.4378  0.4418  0.5065
    4FIC    C2410277   1.699   3.676   4.715  0.3036  0.4616  0.3143
    4FIC    C2510278   1.760   3.561   4.768  0.0375  0.1580 -0.0215
    4FIC    C2610279   1.731   3.514   4.895 -0.1037 -0.1735 -0.1769
    4FIC    C2710280   1.636   3.584   4.971  0.0288 -0.1987  0.0135
    4FIC    C2810281   1.582   3.560   5.108 -0.0625 -0.5063 -0.0746
    4FIC    C2910282   1.618   3.457   5.192 -0.3113 -0.8511 -0.3805
    4FIC    C3010283   1.714   3.358   5.158 -0.5207 -0.9587 -0.6623
    4FIC    C3110284   1.561   3.442   5.322 -0.3815 -1.1312 -0.4425
    5FIC     F110285   0.046   4.393   4.205  0.0700 -1.0886  0.2483
    5FIC     F210286  -0.208   4.486   4.238  0.6428  0.6416 -0.0402
    5FIC     O110287   0.207   4.350   4.721 -0.5051 -1.3586  0.4084
    5FIC     N510288  -0.457   4.590   4.653  1.0564  2.9367 -0.3407
    5FIC     N610289  -0.280   4.538   5.049  0.4914  2.3769 -0.1572
    5FIC    C1910290   0.022   4.424   4.935 -0.1623  0.1984  0.1896
    5FIC    C2010291  -0.008   4.431   4.804 -0.0399  0.1988  0.1607
    5FIC    C2110292   0.092   4.391   4.700 -0.2309 -0.6281  0.2788
    5FIC    C2210293   0.027   4.411   4.569 -0.0285 -0.3977  0.2104
    5FIC    C2310294   0.080   4.388   4.443 -0.1028 -0.9488  0.2768
    5FIC    C2410295  -0.001   4.414   4.333  0.1277 -0.5811  0.1897
    5FIC    C2510296  -0.131   4.462   4.351  0.4227  0.3105  0.0413
    5FIC    C2610297  -0.186   4.485   4.476  0.4983  0.8641 -0.0256
    5FIC    C2710298  -0.105   4.460   4.588  0.2680  0.5038  0.0608
    5FIC    C2810299  -0.132   4.474   4.733  0.2728  0.9059  0.0242
    5FIC    C2910300  -0.248   4.518   4.791  0.5198  1.7685 -0.1104
    5FIC    C3010301  -0.363   4.557   4.715  0.8140  2.4078 -0.2365
    5FIC    C3110302  -0.265   4.529   4.933  0.5026  2.0981 -0.1355
    1BTD     S210303   5.940   7.739   8.327 -0.0704  0.0008  0.2321
    1BTD     N110304   5.805   7.621   8.330 -0.0579 -0.0321 -0.2983
    1BTD     N210305   5.839   7.875   8.267 -0.0300  0.1887  0.5867
    1BTD     N310306   5.388   7.938   8.152  0.0744  0.5119  0.3519
    1BTD     N410307   5.346   7.624   8.229  0.0401  0.2398 -0.7384
    1BTD     C510308   5.566   7.626   8.276 -0.0063  0.1131 -0.5150
    1BTD     C610309   5.697   7.685   8.289 -0.0261  0.0920 -0.1893
    1BTD     C710310   5.716   7.828   8.253 -0.0105  0.2156  0.3064
    1BTD     C810311   5.603   7.904   8.208  0.0240  0.3542  0.4511
    1BTD    C1510312   5.477   7.843   8.197  0.0423  0.3697  0.1201
    1BTD    C1610313   5.459   7.705   8.231  0.0272  0.2504 -0.3572
    1BTD    C4310314   5.259   7.604   8.107  0.4811  0.0303  0.5889
    1BTD    C4410315   5.133   7.533   8.112  1.1012  0.6392  0.1878
    1BTD    C4510316   5.015   7.615   8.167 -0.8282  0.1287 -0.4974
    1BTD    C4610317   4.906   7.552   8.236 -0.4021 -0.1234 -0.8140
    1BTD    C4710318   5.102   7.485   7.963 -1.5708 -2.3966 -0.5804
    1BTD    C4810319   5.175   7.363   7.920 -0.9219  0.5387  0.2889
    1BTD    C4910320   5.150   7.239   7.987 -1.2214  0.7814  1.4369
    1BTD    C5010321   5.255   7.169   8.084 -0.0781  0.3151  0.2806
    1BTD    C7510322   5.249   7.948   8.204 -1.0978  1.2861  0.4671
    1BTD    C7610323   5.134   7.990   8.116  0.7671 -1.3255 -0.2984
    1BTD    C7710324   4.998   7.972   8.182 -0.6081 -0.1046 -0.9747
    1BTD    C7810325   4.965   8.031   8.321 -0.4659 -0.0504 -0.2943
    1BTD    C7910326   5.118   7.921   7.971  0.6137  0.9742 -1.1484
    1BTD    C8010327   5.031   7.973   7.864  0.7391 -1.0555  0.1765
    1BTD    C8110328   4.929   7.869   7.831 -0.7293 -0.9392 -0.5406
    1BTD    C8210329   4.981   7.750   7.752 -0.6674 -1.5149 -0.0908
    2TTP     S110330   5.576   7.364   8.410  0.0594  0.4283 -0.0544
    2TTP     S510331   5.146   7.350   8.396  0.0664  0.0296  0.1197
    2TTP     C110332   5.205   7.221   8.510  0.2400 -0.0249 -0.0299
    2TTP     C210333   5.341   7.217   8.521  0.2481  0.0949 -0.0923
    2TTP     C310334   5.404   7.317   8.440  0.1173  0.2339 -0.0246
    2TTP     C410335   5.517   7.493   8.296 -0.1142  0.4826  0.0949
    2TTP    C1710336   5.381   7.496   8.285 -0.1224  0.3626  0.1573
    2TTP    C1810337   5.318   7.397   8.366  0.0082  0.2236  0.0894
    2TTP    C3210338   5.426   7.134   8.632 -0.0591 -1.0727  0.4082
    2TTP    C3310339   5.457   7.198   8.767 -0.4204 -0.2689 -0.0332
    2TTP    C3410340   5.535   7.087   8.835  0.9057  0.1521  0.2810
    2TTP    C3510341   5.527   7.082   8.977 -0.3067 -1.0859 -0.1444
    2TTP    C3610342   5.468   6.960   9.028 -0.1399  0.5871  0.4519
    2TTP    C3710343   5.489   6.943   9.178 -0.0417 -1.0876  2.3815
    2TTP    C3810344   5.367   7.012   9.249 -1.4719  0.5183 -0.6441
    2TTP    C3910345   5.336   6.946   9.386  0.3125 -0.1370 -0.1185
    2TTP    C4010346   5.316   7.052   9.488  0.2623  0.5215  0.0384
    2TTP    C4110347   5.245   6.998   9.602 -0.5810 -0.3551  0.2538
    2TTP    C4210348   5.272   7.077   9.731  0.5947  0.5204  0.5805
    3TTP     S110349   5.708   8.161   8.063  0.3557  0.0149 -0.0849
    3TTP     S510350   5.301   8.244   7.951  0.0737  0.1140  0.9923
    3TTP     C110351   5.408   8.370   7.876 -0.0554 -0.1027  0.4370
    3TTP     C210352   5.540   8.352   7.906  0.0241 -0.1459  0.0715
    3TTP     C310353   5.561   8.238   7.990  0.1898 -0.0098  0.2172
    3TTP     C410354   5.600   8.035   8.138  0.4847  0.2315  0.4709
    3TTP    C1710355   5.468   8.053   8.108  0.4052  0.2748  0.8363
    3TTP    C1810356   5.447   8.167   8.025  0.2394  0.1385  0.6907
    3TTP    C3210357   5.669   8.433   7.867 -0.6963 -1.0658  0.7638
    3TTP    C3310358   5.672   8.582   7.894  0.6814  0.4793 -0.1443
    3TTP    C3410359   5.776   8.649   7.810  0.6960  0.4187 -1.0017
    3TTP    C3510360   5.826   8.784   7.889  0.7463  0.3424  0.0869
    3TTP    C3610361   5.938   8.863   7.825  1.1385  0.8258  0.6893
    3TTP    C3710362   6.022   8.806   7.714  0.5609 -0.0290  1.7435
    3TTP    C3810363   6.074   8.917   7.619 -0.2003  0.3902  0.3555
    3TTP    C3910364   6.128   9.044   7.658  0.0071 -0.8877  1.4711
    3TTP    C4010365   6.209   9.105   7.546  0.8780  0.6555  0.0994
    3TTP    C4110366   6.225   9.263   7.561 -0.8929  1.5965 -0.1441
    3TTP    C4210367   6.325   9.299   7.449 -0.3970 -1.1707 -0.7920
    4FIC     F110368   4.413   7.093   8.705  0.1627 -0.4137 -0.3068
    4FIC     F210369   4.493   6.875   8.848  0.0936 -0.6407 -0.6101
    4FIC     O110370   4.887   7.271   8.515  0.2745 -0.0106  0.3433
    4FIC     N510371   4.947   6.691   8.918  0.0740 -0.6800 -0.5827
    4FIC     N610372   5.301   6.874   8.740  0.1754 -0.3194 -0.0134
    4FIC    C1910373   5.132   7.127   8.584  0.2481 -0.0844  0.2849
    4FIC    C2010374   5.010   7.091   8.626  0.2228 -0.1768  0.1328
    4FIC    C2110375   4.888   7.170   8.586  0.2385 -0.1310  0.1750
    4FIC    C2210376   4.773   7.103   8.649  0.2033 -0.2568 -0.0219
    4FIC    C2310377   4.639   7.140   8.641  0.2025 -0.2662 -0.0596
    4FIC    C2410378   4.547   7.062   8.709  0.1654 -0.3968 -0.2589
    4FIC    C2510379   4.589   6.950   8.782  0.1298 -0.5136 -0.4150
    4FIC    C2610380   4.722   6.913   8.791  0.1302 -0.5050 -0.3784
    4FIC    C2710381   4.817   6.991   8.723  0.1676 -0.3737 -0.1774
    4FIC    C2810382   4.964   6.979   8.711  0.1783 -0.3293 -0.0887
    4FIC    C2910383   5.043   6.882   8.769  0.1519 -0.4132 -0.1919
    4FIC    C3010384   4.990   6.777   8.851  0.1091 -0.5596 -0.4065
    4FIC    C3110385   5.184   6.878   8.753  0.1650 -0.3611 -0.0930
    5FIC     F110386   4.816   8.402   7.306  0.1068 -0.3633  0.6725
    5FIC     F210387   4.844   8.672   7.300  0.2792 -0.3927  0.0302
    5FIC     O110388   5.200   8.266   7.662  0.1533  0.2196  0.8459
    5FIC     N510389   5.159   8.965   7.545  0.5598 -0.0191 -0.7695
    5FIC     N610390   5.454   8.805   7.825  0.5614  0.4427 -0.5047
    5FIC    C1910391   5.364   8.477   7.783  0.3343  0.3990  0.2939
    5FIC    C2010392   5.266   8.500   7.693  0.3159  0.2532  0.2754
    5FIC    C2110393   5.186   8.387   7.636  0.2210  0.1686  0.5699
    5FIC    C2210394   5.089   8.447   7.543  0.2252  0.0145  0.4654
    5FIC    C2310395   4.993   8.382   7.466  0.1538 -0.1049  0.6536
    5FIC    C2410396   4.912   8.460   7.385  0.1739 -0.2406  0.5008
    5FIC    C2510397   4.927   8.599   7.382  0.2629 -0.2555  0.1698
    5FIC    C2610398   5.022   8.665   7.459  0.3341 -0.1369 -0.0194
    5FIC    C2710399   5.105   8.588   7.541  0.3151  0.0017  0.1310
    5FIC    C2810400   5.215   8.626   7.633  0.3743  0.1478  0.0011
    5FIC    C2910401   5.260   8.754   7.659  0.4661  0.1793 -0.3133
    5FIC    C3010402   5.204   8.869   7.596  0.5172  0.0701 -0.5629
    5FIC    C3110403   5.366   8.781   7.750  0.5181  0.3240 -0.4169
    1BTD     S210404   3.553   1.598   6.726  0.4078 -0.0442 -0.5316
    1BTD     N110405   3.504   1.757   6.795  0.4176 -0.1477 -0.2837
    1BTD     N210406   3.390   1.561   6.658  0.4016  0.0647 -0.5754
    1BTD     N310407   2.972   1.774   6.644  0.4068  0.0995 -0.2174
    1BTD     N410408   3.113   2.015   6.813  0.4265 -0.1621  0.1421
    1BTD     C510409   3.298   1.889   6.802  0.4220 -0.1521 -0.0657
    1BTD     C610410   3.376   1.774   6.765  0.4159 -0.0983 -0.2483
    1BTD     C710411   3.312   1.664   6.689  0.4070  0.0205 -0.4116
    1BTD     C810412   3.173   1.675   6.653  0.4047  0.0798 -0.3842
    1BTD    C1510413   3.101   1.790   6.691  0.4109  0.0237 -0.2028
    1BTD    C1610414   3.163   1.895   6.765  0.4194 -0.0908 -0.0457
    1BTD    C4310415   2.970   2.088   6.782 -0.5875  0.4164 -0.0795
    1BTD    C4410416   2.934   2.249   6.798 -1.4414  0.3217  0.8522
    1BTD    C4510417   2.780   2.291   6.817  0.0639  0.3745  0.0299
    1BTD    C4610418   2.710   2.225   6.935 -0.1411  0.8386 -0.3442
    1BTD    C4710419   2.992   2.340   6.690 -0.2593  0.7267  0.2687
    1BTD    C4810420   3.094   2.445   6.725 -0.4257 -0.0599 -1.1402
    1BTD    C4910421   3.087   2.495   6.864 -1.4056 -0.0484 -0.2423
    1BTD    C5010422   3.224   2.530   6.903 -0.1866 -0.9858 -0.3624
    1BTD    C7510423   2.840   1.794   6.725  0.0437  1.1677 -0.1904
    1BTD    C7610424   2.696   1.827   6.686 -0.2975  0.7661  0.2196
    1BTD    C7710425   2.677   1.944   6.582  1.3208  0.6450 -0.0684
    1BTD    C7810426   2.780   1.944   6.471  0.9499 -0.3667 -0.4396
    1BTD    C7910427   2.617   1.837   6.821  1.5744 -0.5708  0.5865
    1BTD    C8010428   2.465   1.839   6.805  0.5906  0.1018 -0.1715
    1BTD    C8110429   2.411   1.892   6.941  0.1130 -0.4455  0.1425
    1BTD    C8210430   2.298   1.811   7.004  0.2714  0.3066  1.0845
    2TTP     S110431   3.451   2.039   7.005  0.4686  0.2659  0.0437
    2TTP     S510432   3.085   2.251   7.082  0.4113  0.2800 -0.2643
    2TTP     C110433   3.200   2.283   7.219  0.3231  0.3321 -0.2017
    2TTP     C210434   3.320   2.220   7.203  0.3356  0.3309 -0.1030
    2TTP     C310435   3.325   2.143   7.082  0.4153  0.2887 -0.0730
    2TTP     C410436   3.335   2.007   6.868  0.5568  0.2138 -0.0188
    2TTP    C1710437   3.215   2.070   6.884  0.5443  0.2151 -0.1175
    2TTP    C1810438   3.210   2.147   7.004  0.4646  0.2573 -0.1476
    2TTP    C3210439   3.440   2.208   7.312  0.0281  0.2187  0.5653
    2TTP    C3310440   3.586   2.208   7.263 -0.9164 -1.9831 -0.2792
    2TTP    C3410441   3.645   2.354   7.272  0.8457 -0.4136  0.1957
    2TTP    C3510442   3.654   2.416   7.399  0.2492 -0.5629  0.0274
    2TTP    C3610443   3.751   2.362   7.487  0.3161 -0.2149 -0.5713
    2TTP    C3710444   3.820   2.438   7.614  0.5175  1.3332  0.1515
    2TTP    C3810445   3.862   2.597   7.603  0.2834 -0.6786  0.2579
    2TTP    C3910446   3.971   2.627   7.709 -0.3395 -1.1154  0.1853
    2TTP    C4010447   4.026   2.774   7.720  1.1472  0.6502 -0.3347
    2TTP    C4110448   4.085   2.830   7.590 -0.2404 -0.8576 -0.0484
    2TTP    C4210449   4.123   2.976   7.620 -0.7405 -0.0747 -0.1412
    3TTP     S110450   3.107   1.444   6.485  0.0110  0.3139  0.2168
    3TTP     S510451   2.710   1.601   6.430 -0.4141 -0.6735  0.4222
    3TTP     C110452   2.734   1.462   6.315 -0.0333 -0.4466  0.2246
    3TTP     C210453   2.858   1.406   6.325  0.1205 -0.1283  0.1496
    3TTP     C310454   2.938   1.470   6.424 -0.0570 -0.0522  0.2453
    3TTP     C410455   3.083   1.582   6.600 -0.3698  0.0871  0.4144
    3TTP    C1710456   2.959   1.639   6.590 -0.5236 -0.2312  0.4893
    3TTP    C1810457   2.878   1.575   6.491 -0.3461 -0.3074  0.3934
    3TTP    C3210458   2.933   1.301   6.239  1.5838 -1.7039  0.7543
    3TTP    C3310459   3.013   1.191   6.294 -1.1683  0.0083 -0.3068
    3TTP    C3410460   3.094   1.104   6.192 -1.1026 -0.6753  1.2650
    3TTP    C3510461   3.136   0.965   6.247  0.7585  0.8795  0.2742
    3TTP    C3610462   3.007   0.871   6.266  0.2821  0.9481  0.2101
    3TTP    C3710463   3.007   0.757   6.372  0.4393 -0.5451  0.8450
    3TTP    C3810464   3.118   0.654   6.331 -0.4824 -0.3833  0.1897
    3TTP    C3910465   3.043   0.517   6.328 -0.1390  0.0628  1.5728
    3TTP    C4010466   3.020   0.437   6.446  0.8736  1.5979  1.2263
    3TTP    C4110467   2.872   0.423   6.451 -0.5597 -0.6184 -0.0158
    3TTP    C4210468   2.853   0.294   6.503  0.4038 -0.7846  0.2308
    4FIC     F110469   2.649   2.867   7.402 -0.2596 -0.3951  0.4596
    4FIC     F210470   2.779   2.907   7.638  0.3361  0.0740  0.0576
    4FIC     O110471   2.955   2.480   7.180 -0.3830 -0.3056  0.1311
    4FIC     N510472   3.184   2.688   7.819  1.1048  0.8121 -0.7541
    4FIC     N610473   3.397   2.378   7.598  0.8884  0.7874 -0.9297
    4FIC    C1910474   3.188   2.380   7.327  0.1426  0.1743 -0.3693
    4FIC    C2010475   3.106   2.476   7.373  0.1502  0.1335 -0.2710
    4FIC    C2110476   2.988   2.522   7.292 -0.1294 -0.1184 -0.0124
    4FIC    C2210477   2.921   2.626   7.372 -0.0421 -0.0982  0.0358
    4FIC    C2310478   2.806   2.698   7.338 -0.2252 -0.2837  0.2507
    4FIC    C2410479   2.761   2.792   7.429 -0.0919 -0.2205  0.2527
    4FIC    C2510480   2.828   2.813   7.550  0.2152  0.0212  0.0454
    4FIC    C2610481   2.942   2.741   7.585  0.3991  0.2073 -0.1696
    4FIC    C2710482   2.990   2.646   7.494  0.2681  0.1468 -0.1752
    4FIC    C2810483   3.106   2.554   7.500  0.3986  0.2987 -0.3719
    4FIC    C2910484   3.197   2.544   7.602  0.6932  0.5455 -0.6033
    4FIC    C3010485   3.190   2.623   7.721  0.9184  0.6912 -0.6855
    4FIC    C3110486   3.307   2.453   7.599  0.7988  0.6772 -0.7815
    5FIC     F110487   1.954   1.598   6.085 -0.3417  0.0439 -0.3372
    5FIC     F210488   2.004   1.451   5.861 -0.2005  0.2306 -0.4283
    5FIC     O110489   2.428   1.558   6.343 -0.4711 -0.0871 -0.1187
    5FIC     N510490   2.415   1.212   5.724 -0.0897  0.4056 -0.4036
    5FIC     N610491   2.775   1.210   5.970 -0.2194  0.2656 -0.2147
    5FIC    C1910492   2.645   1.403   6.221 -0.3822  0.0447 -0.1283
    5FIC    C2010493   2.523   1.419   6.165 -0.3551  0.0704 -0.1796
    5FIC    C2110494   2.417   1.500   6.234 -0.4044 -0.0015 -0.1708
    5FIC    C2210495   2.299   1.497   6.146 -0.3577  0.0498 -0.2362
    5FIC    C2310496   2.175   1.558   6.167 -0.3788  0.0131 -0.2525
    5FIC    C2410497   2.078   1.541   6.070 -0.3246  0.0756 -0.3175
    5FIC    C2510498   2.104   1.465   5.955 -0.2520  0.1717 -0.3645
    5FIC    C2610499   2.227   1.404   5.933 -0.2306  0.2088 -0.3484
    5FIC    C2710500   2.327   1.420   6.030 -0.2845  0.1467 -0.2828
    5FIC    C2810501   2.466   1.369   6.037 -0.2800  0.1632 -0.2499
    5FIC    C2910502   2.529   1.291   5.944 -0.2182  0.2481 -0.2793
    5FIC    C3010503   2.466   1.248   5.823 -0.1478  0.3344 -0.3476
    5FIC    C3110504   2.664   1.247   5.959 -0.2192  0.2573 -0.2437
    1BTD     S210505  10.430   0.891   9.459 -0.5697 -0.0271  0.0297
    1BTD     N110506  10.464   1.062   9.418  0.3462 -0.1580  0.2015
    1BTD     N210507  10.405   0.922   9.634 -1.3187  0.0582 -0.0844
    1BTD     N310508  10.417   1.296   9.917 -1.1904 -0.0043 -0.0069
    1BTD     N410509  10.489   1.469   9.651  0.8609 -0.2707  0.3450
    1BTD     C510510  10.476   1.273   9.543  0.5898 -0.2136  0.2720
    1BTD     C610511  10.456   1.131   9.531  0.0615 -0.1327  0.1667
    1BTD     C710512  10.423   1.052   9.652 -0.8705 -0.0117  0.0069
    1BTD     C810513  10.412   1.120   9.779 -1.2271  0.0224 -0.0396
    1BTD    C1510514  10.433   1.259   9.785 -0.6848 -0.0598  0.0677
    1BTD    C1610515  10.465   1.334   9.669  0.2131 -0.1764  0.2220
    1BTD    C4310516  10.401   1.585   9.685  0.2754 -0.6262 -0.9129
    1BTD    C4410517  10.305   1.637   9.588 -0.1883  0.9553  0.3909
    1BTD    C4510518  10.169   1.543   9.604  0.7025  0.6146  0.6911
    1BTD    C4610519  10.017   1.586   9.610  0.5747 -1.3039 -0.6595
    1BTD    C4710520  10.285   1.785   9.567  0.1673 -0.8284  0.7945
    1BTD    C4810521  10.239   1.828   9.431  0.0217 -1.0925  0.1352
    1BTD    C4910522  10.220   1.983   9.404 -0.3479 -0.2573 -1.0347
    1BTD    C5010523  10.095   2.034   9.471  0.1915  0.0015  0.2053
    1BTD    C7510524  10.467   1.417   9.985  0.5193  0.7650  0.1610
    1BTD    C7610525  10.622   1.398  10.013  0.2738 -0.6975 -0.5840
    1BTD    C7710526  10.726   1.362   9.910 -1.4251  0.5083  0.7027
    1BTD    C7810527  10.879   1.364   9.933  0.1735 -0.2385 -0.6829
    1BTD    C7910528  10.658   1.472  10.127 -0.5480 -0.8927 -0.1820
    1BTD    C8010529  10.669   1.617  10.127 -0.6316 -0.9930  0.7017
    1BTD    C8110530  10.679   1.693  10.257 -0.8661  0.5626  1.1548
    1BTD    C8210531  10.778   1.632  10.355  0.8677 -0.9824 -0.6813
    2TTP     S110532  10.582   1.384   9.283  0.0071  0.1200  0.2240
    2TTP     S510533  10.695   1.746   9.486 -0.0184  0.2968 -0.0753
    2TTP     C110534  10.758   1.753   9.316 -0.0230  0.1623 -0.0831
    2TTP     C210535  10.727   1.642   9.243 -0.0153  0.0998  0.0088
    2TTP     C310536  10.652   1.547   9.319 -0.0055  0.1559  0.0885
    2TTP     C410537  10.518   1.377   9.454  0.0117  0.2546  0.2317
    2TTP    C1710538  10.550   1.489   9.526  0.0041  0.3170  0.1396
    2TTP    C1810539  10.625   1.584   9.450 -0.0057  0.2610  0.0598
    2TTP    C3210540  10.757   1.621   9.098 -0.5927  1.0098 -0.5370
    2TTP    C3310541  10.702   1.521   8.993 -0.0880 -0.1953 -0.1444
    2TTP    C3410542  10.778   1.399   8.947 -0.2240 -0.7851  1.7223
    2TTP    C3510543  10.808   1.273   9.023 -0.9214  0.1594  0.0705
    2TTP    C3610544  10.959   1.254   9.046 -0.1594  0.9792  0.1703
    2TTP    C3710545  10.995   1.138   9.123  1.2779  0.8114 -1.3171
    2TTP    C3810546  10.959   1.131   9.277 -0.5622  1.0451  0.5525
    2TTP    C3910547  11.077   1.204   9.346  0.5380  0.0275  1.6423
    2TTP    C4010548  11.012   1.316   9.419  0.6629 -0.4285  0.4645
    2TTP    C4110549  11.135   1.408   9.439 -1.2569 -0.3320  1.2470
    2TTP    C4210550  11.099   1.555   9.484 -0.7807 -0.3863  0.1223
    3TTP     S110551  10.402   0.913  10.010 -0.0493 -0.2543  0.4059
    3TTP     S510552  10.381   1.241  10.287  0.3691 -0.2519  0.4351
    3TTP     C110553  10.379   1.085  10.381 -0.0624 -0.2637  0.4093
    3TTP     C210554  10.385   0.975  10.301 -0.2172 -0.2652  0.3984
    3TTP     C310555  10.392   1.009  10.163 -0.0005 -0.2570  0.4108
    3TTP     C410556  10.404   1.068   9.916  0.3822 -0.2426  0.4313
    3TTP    C1710557  10.398   1.179   9.996  0.5367 -0.2411  0.4424
    3TTP    C1810558  10.391   1.145  10.134  0.3204 -0.2493  0.4303
    3TTP    C3210559  10.331   0.833  10.340  0.0283 -0.4346 -2.1478
    3TTP    C3310560  10.387   0.695  10.302  0.6566 -0.9040 -0.6138
    3TTP    C3410561  10.333   0.561  10.353 -0.7950  0.5018 -0.6033
    3TTP    C3510562  10.403   0.479  10.459  0.1241 -0.0883 -0.5842
    3TTP    C3610563  10.453   0.333  10.437 -0.7627  0.6089  1.6926
    3TTP    C3710564  10.593   0.323  10.500 -0.6827 -0.2787  0.4943
    3TTP    C3810565  10.703   0.361  10.399  0.5508 -0.3575  1.3710
    3TTP    C3910566  10.748   0.507  10.350 -0.1431 -0.6835  0.8679
    3TTP    C4010567  10.890   0.551  10.398  1.0880  0.4207 -0.8753
    3TTP    C4110568  11.013   0.477  10.337  0.0163 -0.4967 -0.4090
    3TTP    C4210569  11.052   0.499  10.183  0.1657 -0.9917 -1.2381
    4FIC     F110570  11.272   2.335   9.597  0.8023 -0.5188 -0.6804
    4FIC     F210571  11.256   2.453   9.352  0.3579 -0.3593 -0.5763
    4FIC     O110572  10.964   1.897   9.521  0.3109 -0.2459 -0.2801
    4FIC     N510573  11.013   2.308   8.946 -0.6320  0.0644 -0.1416
    4FIC     N610574  10.776   1.942   8.936 -0.9263  0.2456  0.1502
    4FIC    C1910575  10.839   1.853   9.260 -0.2887  0.0034 -0.0390
    4FIC    C2010576  10.918   1.958   9.289 -0.1476 -0.0715 -0.1435
    4FIC    C2110577  10.978   1.974   9.425  0.1607 -0.1985 -0.2642
    4FIC    C2210578  11.057   2.099   9.422  0.2470 -0.2546 -0.3583
    4FIC    C2310579  11.131   2.155   9.526  0.5133 -0.3716 -0.4840
    4FIC    C2410580  11.197   2.274   9.499  0.5447 -0.4045 -0.5552
    4FIC    C2510581  11.188   2.334   9.373  0.3150 -0.3220 -0.5013
    4FIC    C2610582  11.114   2.279   9.269  0.0489 -0.2052 -0.3762
    4FIC    C2710583  11.047   2.158   9.294  0.0134 -0.1704 -0.3026
    4FIC    C2810584  10.961   2.074   9.207 -0.2382 -0.0545 -0.1683
    4FIC    C2910585  10.928   2.099   9.076 -0.5045  0.0486 -0.0834
    4FIC    C3010586  10.975   2.214   9.005 -0.5734  0.0569 -0.1159
    4FIC    C3110587  10.845   2.013   8.999 -0.7350  0.1563  0.0443
    5FIC     F110588  10.750   1.565  10.922 -0.3130  0.1250 -0.1333
    5FIC     F210589  10.627   1.427  11.122  0.0155 -0.2348 -0.1781
    5FIC     O110590  10.563   1.304  10.486 -0.5217  0.4975 -0.2670
    5FIC     N510591  10.317   1.042  11.097  0.3393 -0.4867 -0.3388
    5FIC     N610592  10.195   0.866  10.716  0.1097 -0.1231 -0.4346
    5FIC    C1910593  10.379   1.080  10.522 -0.2822  0.2860 -0.3578
    5FIC    C2010594  10.431   1.151  10.624 -0.2425  0.2064 -0.3223
    5FIC    C2110595  10.525   1.265  10.597 -0.3724  0.3244 -0.2768
    5FIC    C2210596  10.562   1.320  10.729 -0.2880  0.1944 -0.2463
    5FIC    C2310597  10.647   1.427  10.756 -0.3576  0.2386 -0.2003
    5FIC    C2410598  10.667   1.460  10.889 -0.2526  0.0913 -0.1784
    5FIC    C2510599  10.603   1.389  10.991 -0.0831 -0.0940 -0.2017
    5FIC    C2610600  10.518   1.282  10.965 -0.0129 -0.1391 -0.2475
    5FIC    C2710601  10.497   1.246  10.831 -0.1175  0.0081 -0.2701
    5FIC    C2810602  10.414   1.140  10.771 -0.0827  0.0081 -0.3181
    5FIC    C2910603  10.336   1.048  10.838  0.0689 -0.1462 -0.3519
    5FIC    C3010604  10.326   1.045  10.980  0.2170 -0.3329 -0.3443
    5FIC    C3110605  10.259   0.949  10.771  0.0906 -0.1326 -0.3970
    1BTD     S210606   4.486   7.208   2.030  0.1177 -0.0131  0.0550
    1BTD     N110607   4.326   7.262   2.091  0.2167 -0.4898  0.7572
    1BTD     N210608   4.418   7.106   1.899 -0.1053  0.7985 -0.4787
    1BTD     N310609   3.990   6.994   1.743 -0.3812  1.5913 -0.2981
    1BTD     N410610   3.876   7.187   1.980  0.0153  0.0038  1.2248
    1BTD     C510611   4.092   7.220   2.030  0.1066 -0.2130  0.9829
    1BTD     C610612   4.234   7.204   2.015  0.0851 -0.0428  0.5676
    1BTD     C710613   4.286   7.116   1.907 -0.0951  0.6784 -0.1242
    1BTD     C810614   4.193   7.050   1.820 -0.2445  1.1933 -0.3660
    1BTD    C1510615   4.055   7.069   1.839 -0.2170  1.0029  0.0585
    1BTD    C1610616   4.005   7.153   1.943 -0.0435  0.3080  0.7250
    1BTD    C4310617   3.776   7.078   1.997 -0.2200 -0.7699  0.2388
    1BTD    C4410618   3.630   7.097   1.980 -1.1739  0.3991  0.5278
    1BTD    C4510619   3.536   6.995   2.047  0.4511  0.5668  0.5776
    1BTD    C4610620   3.550   6.992   2.204 -0.8841  0.1676 -1.1133
    1BTD    C4710621   3.600   7.160   1.844  0.1535  0.5530  0.6680
    1BTD    C4810622   3.456   7.208   1.833  0.7587 -0.7245  0.4667
    1BTD    C4910623   3.419   7.276   1.693 -0.0166  0.4488 -0.6018
    1BTD    C5010624   3.274   7.319   1.696  1.1732  0.6364 -0.3570
    1BTD    C7510625   3.853   7.002   1.690 -0.1962 -1.1093  0.7051
    1BTD    C7610626   3.843   7.115   1.575 -0.0659  1.8678  0.8993
    1BTD    C7710627   3.729   7.075   1.490  0.2528  1.3579 -1.0716
    1BTD    C7810628   3.743   7.112   1.353  0.7767  0.5820 -0.7460
    1BTD    C7910629   3.838   7.259   1.616 -0.5254 -0.2833  1.0224
    1BTD    C8010630   3.908   7.372   1.531  0.1160 -0.6956  0.4741
    1BTD    C8110631   4.068   7.369   1.495 -0.0523  0.2665  0.7344
    1BTD    C8210632   4.162   7.336   1.614 -0.2058  1.2974  0.0998
    2TTP     S110633   4.033   7.429   2.249 -0.1447 -0.2337 -0.4076
    2TTP     S510634   3.619   7.404   2.136 -0.4968 -0.4131  0.8883
    2TTP     C110635   3.636   7.531   2.265 -0.0683 -0.0663  0.5005
    2TTP     C210636   3.765   7.546   2.308  0.0659  0.0094  0.0774
    2TTP     C310637   3.855   7.458   2.240 -0.1651 -0.2036  0.0443
    2TTP     C410638   4.016   7.303   2.119 -0.5733 -0.5805 -0.0199
    2TTP    C1710639   3.887   7.287   2.076 -0.7072 -0.6565  0.4033
    2TTP    C1810640   3.797   7.375   2.145 -0.4762 -0.4433  0.4364
    2TTP    C3210641   3.824   7.658   2.403  0.1641  0.6808 -0.0464
    2TTP    C3310642   3.867   7.792   2.343 -0.1689 -0.4111  0.1871
    2TTP    C3410643   3.830   7.825   2.189 -1.4147  0.0981 -0.4578
    2TTP    C3510644   3.912   7.761   2.079 -0.0449 -0.2629 -0.3458
    2TTP    C3610645   3.952   7.846   1.957 -0.1315  0.4365 -0.0381
    2TTP    C3710646   4.079   7.935   1.948  0.5049  0.4466  0.4135
    2TTP    C3810647   4.203   7.870   1.983 -0.6044  1.0244  0.6349
    2TTP    C3910648   4.316   7.978   2.001 -0.7719  1.4233 -0.2314
    2TTP    C4010649   4.465   7.925   2.027  1.2800 -0.3023 -0.7428
    2TTP    C4110650   4.551   8.040   2.042  1.1295 -0.6027 -1.1538
    2TTP    C4210651   4.692   8.008   2.061 -1.6775  1.0630  1.7317
    3TTP     S110652   4.341   6.866   1.616 -0.0776 -0.2620  0.0589
    3TTP     S510653   3.960   6.733   1.468 -0.1949  0.2152 -0.0697
    3TTP     C110654   4.091   6.640   1.382 -0.2874 -0.0779  0.1053
    3TTP     C210655   4.216   6.676   1.423 -0.2565 -0.2426  0.1553
    3TTP     C310656   4.214   6.778   1.523 -0.1589 -0.1432  0.0573
    3TTP     C410657   4.211   6.959   1.701  0.0148  0.0310 -0.1161
    3TTP    C1710658   4.085   6.924   1.661 -0.0159  0.1958 -0.1661
    3TTP    C1810659   4.088   6.822   1.560 -0.1136  0.0964 -0.0680
    3TTP    C3210660   4.343   6.614   1.362  0.0082  0.3955  0.2746
    3TTP    C3310661   4.421   6.694   1.259 -0.6676 -0.7373 -0.7488
    3TTP    C3410662   4.389   6.719   1.104  1.4247 -1.2626 -0.1598
    3TTP    C3510663   4.236   6.738   1.057 -0.6851 -1.0537 -0.6954
    3TTP    C3610664   4.198   6.669   0.928 -0.0977  0.4417 -0.1015
    3TTP    C3710665   4.198   6.513   0.945  1.4352  0.0651  0.2923
    3TTP    C3810666   4.213   6.410   0.826 -0.7107 -0.5642  0.1685
    3TTP    C3910667   4.226   6.455   0.688  0.5976 -2.1642 -0.1271
    3TTP    C4010668   4.257   6.356   0.577  1.2994  0.8012 -0.4808
    3TTP    C4110669   4.388   6.331   0.532 -0.5771  0.0129 -0.7257
    3TTP    C4210670   4.439   6.333   0.395  0.8744 -0.1237  0.9956
    4FIC     F110671   2.907   7.777   1.983 -0.6540 -0.4387  0.2717
    4FIC     F210672   2.848   7.868   2.232 -0.2933  0.1304  0.1530
    4FIC     O110673   3.407   7.583   2.061 -0.5808 -0.3537  0.0159
    4FIC     N510674   3.119   7.861   2.647  0.2776  1.0089 -0.2000
    4FIC     N610675   3.521   7.691   2.657  0.2620  0.9606 -0.3760
    4FIC    C1910676   3.528   7.601   2.327 -0.2102  0.2200 -0.1885
    4FIC    C2010677   3.404   7.646   2.297 -0.2427  0.1764 -0.1193
    4FIC    C2110678   3.349   7.633   2.158 -0.4372 -0.1251 -0.0159
    4FIC    C2210679   3.214   7.692   2.161 -0.4227 -0.0945  0.0395
    4FIC    C2310680   3.124   7.703   2.056 -0.5664 -0.3145  0.1384
    4FIC    C2410681   3.001   7.763   2.083 -0.5187 -0.2324  0.1746
    4FIC    C2510682   2.971   7.810   2.211 -0.3329  0.0610  0.1133
    4FIC    C2610683   3.061   7.799   2.317 -0.1887  0.2813  0.0145
    4FIC    C2710684   3.185   7.739   2.292 -0.2342  0.2027 -0.0234
    4FIC    C2810685   3.301   7.713   2.380 -0.1162  0.3809 -0.1234
    4FIC    C2910686   3.310   7.744   2.514  0.0739  0.6783 -0.2044
    4FIC    C3010687   3.205   7.808   2.586  0.1854  0.8589 -0.2018
    4FIC    C3110688   3.426   7.715   2.592  0.1763  0.8318 -0.2983
    5FIC     F110689   3.413   6.452   0.972  0.7161  0.3561 -0.7749
    5FIC     F210690   3.524   6.210   0.913 -0.1397 -0.6123  1.3403
    5FIC     O110691   3.815   6.684   1.250  0.9714  0.7601 -1.4765
    5FIC     N510692   3.971   6.029   1.025 -1.1880 -1.7167  3.8812
    5FIC     N610693   4.263   6.260   1.255 -0.8161 -1.2059  2.9066
    5FIC    C1910694   4.064   6.536   1.292  0.2445 -0.0218  0.2951
    5FIC    C2010695   3.959   6.487   1.225  0.2138 -0.0856  0.3890
    5FIC    C2110696   3.834   6.569   1.207  0.6020  0.3343 -0.5587
    5FIC    C2210697   3.740   6.486   1.130  0.4565  0.1397 -0.1805
    5FIC    C2310698   3.611   6.520   1.089  0.7018  0.3918 -0.7715
    5FIC    C2410699   3.541   6.425   1.016  0.4928  0.1294 -0.2388
    5FIC    C2510700   3.598   6.301   0.985  0.0519 -0.3694  0.8509
    5FIC    C2610701   3.727   6.267   1.026 -0.1949 -0.6233  1.4454
    5FIC    C2710702   3.800   6.362   1.100  0.0110 -0.3641  0.9201
    5FIC    C2810703   3.936   6.357   1.157 -0.1557 -0.5221  1.3134
    5FIC    C2910704   4.025   6.252   1.148 -0.5726 -0.9850  2.3384
    5FIC    C3010705   3.995   6.130   1.081 -0.9094 -1.3857  3.1831
    5FIC    C3110706   4.155   6.257   1.207 -0.7041 -1.1039  2.6451
    1BTD     S210707   1.266  10.101   5.968  0.0468 -0.0292 -0.3305
    1BTD     N110708   1.243   9.991   5.828 -0.2980  0.0777 -0.3600
    1BTD     N210709   1.443  10.073   5.980  0.0207 -0.3057 -0.5686
    1BTD     N310710   1.764   9.817   5.751 -0.6548 -0.6762 -1.1069
    1BTD     N410711   1.517   9.716   5.564 -1.0476 -0.2038 -0.8500
    1BTD     C510712   1.389   9.848   5.692 -0.6846 -0.0751 -0.6188
    1BTD     C610713   1.363   9.941   5.799 -0.4090 -0.0896 -0.5367
    1BTD     C710714   1.475   9.987   5.884 -0.2306 -0.3042 -0.6535
    1BTD     C810715   1.608   9.938   5.858 -0.3367 -0.4935 -0.8467
    1BTD    C1510716   1.629   9.847   5.753 -0.6078 -0.4712 -0.9212
    1BTD    C1610717   1.521   9.803   5.671 -0.7797 -0.2648 -0.8085
    1BTD    C4310718   1.605   9.602   5.532  0.5697  0.1227 -0.4029
    1BTD    C4410719   1.620   9.483   5.630  1.6826  0.1087 -1.1828
    1BTD    C4510720   1.484   9.413   5.662 -0.4049  0.4168 -1.0362
    1BTD    C4610721   1.486   9.332   5.791  1.9866  0.7935 -0.4301
    1BTD    C4710722   1.749   9.390   5.604  0.3240 -0.6550  0.0818
    1BTD    C4810723   1.838   9.352   5.721 -0.1112 -0.3697 -0.3484
    1BTD    C4910724   1.922   9.463   5.776 -0.8025 -0.6356 -0.3371
    1BTD    C5010725   2.033   9.442   5.888 -0.0496  1.1699 -0.4769
    1BTD    C7510726   1.855   9.802   5.643 -0.9461  0.4060  0.4917
    1BTD    C7610727   1.910   9.924   5.570 -0.1322 -0.5383  0.8262
    1BTD    C7710728   2.048   9.905   5.497  1.6932  1.4990 -0.6622
    1BTD    C7810729   2.120  10.025   5.450  0.4697 -0.1897 -0.1265
    1BTD    C7910730   1.806  10.020   5.491 -1.2516 -0.8323 -1.1536
    1BTD    C8010731   1.777  10.031   5.347  0.3971 -0.1659  0.5409
    1BTD    C8110732   1.690   9.912   5.287  0.1830 -0.9159  1.1245
    1BTD    C8210733   1.769   9.782   5.276  2.0497 -0.0808 -0.5791
    2TTP     S110734   1.144   9.819   5.521 -0.1099  0.0921 -0.1628
    2TTP     S510735   1.363   9.583   5.236 -0.0212 -0.2348  0.1757
    2TTP     C110736   1.194   9.609   5.173  0.0526 -0.1557  0.0102
    2TTP     C210737   1.117   9.683   5.257  0.0295 -0.0494 -0.1040
    2TTP     C310738   1.188   9.723   5.375 -0.0472 -0.0277 -0.0650
    2TTP     C410739   1.313   9.794   5.585 -0.1837  0.0129  0.0027
    2TTP    C1710740   1.390   9.719   5.500 -0.1606 -0.0928  0.1169
    2TTP    C1810741   1.319   9.680   5.383 -0.0839 -0.1152  0.0780
    2TTP    C3210742   0.967   9.705   5.234  0.1163 -0.7636 -0.0643
    2TTP    C3310743   0.906   9.839   5.240 -0.3632  0.0772 -0.2052
    2TTP    C3410744   0.953   9.946   5.140  1.4903 -1.2144 -0.9413
    2TTP    C3510745   1.059  10.040   5.197 -0.1182  0.4780  1.1380
    2TTP    C3610746   0.995  10.174   5.263 -0.0879 -0.3838 -1.5516
    2TTP    C3710747   1.048  10.270   5.356  0.3049 -0.2145 -1.1022
    2TTP    C3810748   0.974  10.246   5.488  0.9879  0.2606 -0.1376
    2TTP    C3910749   0.982  10.115   5.548 -0.3485 -0.0507  1.4179
    2TTP    C4010750   0.862  10.088   5.645  0.1880  0.3868  0.8045
    2TTP    C4110751   0.863   9.971   5.745 -1.3111 -1.4965  0.0980
    2TTP    C4210752   0.890   9.992   5.899 -0.2126 -0.5582 -0.0346
    3TTP     S110753   1.770  10.013   6.091 -0.2521 -0.0457 -0.3012
    3TTP     S510754   2.081   9.758   5.940  0.5692  0.4251  0.5698
    3TTP     C110755   2.125   9.809   6.108 -0.0432  0.3940  0.7449
    3TTP     C210756   2.032   9.891   6.165 -0.3329  0.2465  0.4861
    3TTP     C310757   1.922   9.916   6.077 -0.0817  0.1528  0.1404
    3TTP     C410758   1.726   9.962   5.922  0.3603 -0.0148 -0.4764
    3TTP    C1710759   1.819   9.880   5.866  0.6500  0.1325 -0.2175
    3TTP    C1810760   1.929   9.855   5.953  0.3988  0.2260  0.1281
    3TTP    C3210761   2.030   9.971   6.292  0.2352  0.0163 -0.9521
    3TTP    C3310762   2.068  10.125   6.302 -0.0275 -0.7244 -0.4350
    3TTP    C3410763   2.078  10.164   6.450 -0.3318  0.1493  1.8793
    3TTP    C3510764   2.079  10.313   6.470  2.4067  0.1138 -0.5588
    3TTP    C3610765   2.094  10.358   6.617  0.5354 -0.7683  0.4805
    3TTP    C3710766   1.969  10.349   6.715 -1.1353 -0.0076  1.6777
    3TTP    C3810767   1.963  10.275   6.851 -0.6411 -0.7717 -0.2644
    3TTP    C3910768   1.981  10.125   6.824 -1.0660  0.1595 -0.3270
    3TTP    C4010769   1.993  10.031   6.948  0.1757 -0.3081 -1.2315
    3TTP    C4110770   1.873   9.938   6.955  0.2761  0.8103 -1.1693
    3TTP    C4210771   1.750  10.019   7.011 -0.1905 -0.4848 -0.0617
    4FIC     F110772   1.526   9.594   4.416 -0.2577  0.5584 -0.3790
    4FIC     F210773   1.289   9.498   4.321 -0.2503  0.3667 -0.2044
    4FIC     O110774   1.411   9.652   4.942  0.1227  0.3436 -0.2711
    4FIC     N510775   0.867   9.402   4.561  0.0316 -0.0625  0.1234
    4FIC     N610776   0.825   9.466   4.991  0.3274 -0.1912  0.1725
    4FIC    C1910777   1.144   9.581   5.038  0.2649  0.0839 -0.0660
    4FIC    C2010778   1.182   9.570   4.910  0.1690  0.1457 -0.0999
    4FIC    C2110779   1.321   9.608   4.868  0.1004  0.2789 -0.2064
    4FIC    C2210780   1.329   9.585   4.722  0.0023  0.3169 -0.2182
    4FIC    C2310781   1.438   9.605   4.639 -0.0850  0.4325 -0.3040
    4FIC    C2410782   1.422   9.575   4.504 -0.1688  0.4466 -0.2970
    4FIC    C2510783   1.300   9.526   4.456 -0.1648  0.3478 -0.2070
    4FIC    C2610784   1.190   9.505   4.539 -0.0780  0.2320 -0.1214
    4FIC    C2710785   1.205   9.535   4.675  0.0077  0.2160 -0.1267
    4FIC    C2810786   1.110   9.524   4.789  0.1103  0.1068 -0.0504
    4FIC    C2910787   0.980   9.480   4.782  0.1443 -0.0083  0.0473
    4FIC    C3010788   0.918   9.437   4.660  0.0822 -0.0377  0.0887
    4FIC    C3110789   0.895   9.473   4.897  0.2448 -0.1085  0.1156
    5FIC     F110790   2.818   9.420   5.930  0.1951 -0.6595  0.4451
    5FIC     F210791   2.885   9.430   6.194  0.2978 -0.0207  0.3979
    5FIC     O110792   2.337   9.668   5.939  0.0961 -0.8359  0.0618
    5FIC     N510793   2.640   9.621   6.578  0.3751  0.7718  0.0566
    5FIC     N610794   2.251   9.813   6.532  0.2770  0.5047 -0.2334
    5FIC    C1910795   2.231   9.766   6.193  0.1591 -0.2887 -0.1196
    5FIC    C2010796   2.349   9.703   6.181  0.1800 -0.2689 -0.0213
    5FIC    C2110797   2.397   9.656   6.047  0.1451 -0.5612  0.0679
    5FIC    C2210798   2.528   9.592   6.069  0.1802 -0.4561  0.1631
    5FIC    C2310799   2.611   9.533   5.974  0.1660 -0.6421  0.2650
    5FIC    C2410800   2.731   9.480   6.019  0.2065 -0.4892  0.3425
    5FIC    C2510801   2.765   9.485   6.154  0.2593 -0.1606  0.3180
    5FIC    C2610802   2.683   9.543   6.250  0.2738  0.0267  0.2165
    5FIC    C2710803   2.561   9.598   6.206  0.2335 -0.1235  0.1370
    5FIC    C2810804   2.453   9.667   6.281  0.2354  0.0045  0.0226
    5FIC    C2910805   2.449   9.692   6.416  0.2801  0.3166 -0.0319
    5FIC    C3010806   2.554   9.653   6.505  0.3322  0.5658  0.0169
    5FIC    C3110807   2.340   9.758   6.479  0.2782  0.4182 -0.1423
    1BTD     S210808  10.917   2.518   5.933 -0.0206 -0.3562 -0.1432
    1BTD     N110809  10.892   2.529   5.755 -0.1724 -0.8431 -0.1549
    1BTD     N210810  11.095   2.498   5.922  0.0629  0.3381 -0.1986
    1BTD     N310811  11.414   2.475   5.578 -0.0410  0.8740 -0.3324
    1BTD     N410812  11.164   2.514   5.373 -0.3309 -0.5816 -0.2785
    1BTD     C510813  11.037   2.521   5.558 -0.2518 -0.6890 -0.2201
    1BTD     C610814  11.012   2.517   5.700 -0.1540 -0.4817 -0.1972
    1BTD     C710815  11.125   2.500   5.793 -0.0224  0.1795 -0.2217
    1BTD     C810816  11.258   2.486   5.740  0.0048  0.6003 -0.2679
    1BTD    C1510817  11.278   2.490   5.601 -0.0938  0.3766 -0.2890
    1BTD    C1610818  11.169   2.507   5.511 -0.2204 -0.2604 -0.2652
    1BTD    C4310819  11.260   2.591   5.288  0.6539 -0.8867  0.5731
    1BTD    C4410820  11.294   2.595   5.146 -0.7927  0.0367  0.8061
    1BTD    C4510821  11.314   2.451   5.079  0.2058 -0.3611  0.7755
    1BTD    C4610822  11.357   2.432   4.934 -0.4455 -1.0760  0.7214
    1BTD    C4710823  11.329   2.712   5.048 -0.9997  0.1112  1.7391
    1BTD    C4810824  11.266   2.850   5.051  0.0583  0.5154 -0.1615
    1BTD    C4910825  11.116   2.838   5.072 -0.0315 -1.2162  0.7910
    1BTD    C5010826  11.043   2.893   4.941  0.1288 -0.9184 -1.0131
    1BTD    C7510827  11.470   2.400   5.463 -0.3599 -0.3585  0.7730
    1BTD    C7610828  11.612   2.403   5.406 -0.2374 -1.3147 -0.2847
    1BTD    C7710829  11.668   2.267   5.355 -0.9877 -0.1685  0.2648
    1BTD    C7810830  11.565   2.191   5.269 -0.2350  0.8449 -0.2577
    1BTD    C7910831  11.612   2.525   5.293 -0.4467  0.5733 -0.0448
    1BTD    C8010832  11.759   2.582   5.279 -0.6996 -0.1135 -0.0187
    1BTD    C8110833  11.776   2.703   5.192  0.1978 -0.1018 -1.0715
    1BTD    C8210834  11.815   2.827   5.288 -0.6050  2.0696 -0.3609
    2TTP     S110835  10.780   2.502   5.410  0.0567  0.1517  0.3328
    2TTP     S510836  10.987   2.434   5.039 -0.2153  0.2725  0.1587
    2TTP     C110837  10.809   2.403   5.013 -0.2107  0.0989  0.3260
    2TTP     C210838  10.735   2.423   5.126 -0.1264  0.0513  0.3895
    2TTP     C310839  10.815   2.462   5.237 -0.0622  0.1504  0.3085
    2TTP     C410840  10.958   2.532   5.436  0.0517  0.3253  0.1655
    2TTP    C1710841  11.032   2.513   5.323 -0.0322  0.3729  0.1018
    2TTP    C1810842  10.951   2.474   5.212 -0.0961  0.2739  0.1830
    2TTP    C3210843  10.579   2.415   5.144 -0.6485 -0.1008  0.0273
    2TTP    C3310844  10.503   2.289   5.097 -0.5438  1.1706 -1.1543
    2TTP    C3410845  10.399   2.234   5.193  0.3993 -0.1062  0.8982
    2TTP    C3510846  10.295   2.123   5.191 -0.4704 -0.1571  1.6199
    2TTP    C3610847  10.253   2.042   5.064 -1.2611 -1.0574  1.8963
    2TTP    C3710848  10.193   2.134   4.950 -1.1842  0.6507  0.8383
    2TTP    C3810849  10.270   2.137   4.822  0.1517 -0.5060 -1.3334
    2TTP    C3910850  10.222   2.253   4.744 -0.6023  1.0803  0.6831
    2TTP    C4010851  10.320   2.330   4.662 -0.7598 -0.6723  0.0825
    2TTP    C4110852  10.234   2.433   4.581  0.0804 -0.9349  1.0741
    2TTP    C4210853  10.332   2.489   4.481 -0.8041  0.9735  0.1682
    3TTP     S110854  11.439   2.401   5.959 -0.3964 -0.3640 -0.3690
    3TTP     S510855  11.760   2.381   5.673 -0.0004  1.2246 -0.0560
    3TTP     C110856  11.823   2.326   5.835 -0.1251  0.6891 -0.1842
    3TTP     C210857  11.728   2.329   5.933 -0.2548  0.1670 -0.2884
    3TTP     C310858  11.601   2.375   5.883 -0.2602  0.1711 -0.2707
    3TTP     C410859  11.376   2.456   5.797 -0.2717  0.1714 -0.2407
    3TTP    C1710860  11.472   2.453   5.699 -0.1420  0.6935 -0.1365
    3TTP    C1810861  11.598   2.407   5.749 -0.1365  0.6896 -0.1541
    3TTP    C3210862  11.759   2.271   6.080  1.3134 -0.8198  0.6579
    3TTP    C3310863  11.712   2.368   6.179 -0.1141 -0.0541 -2.7018
    3TTP    C3410864  11.813   2.457   6.259 -1.0507  1.9802  0.2924
    3TTP    C3510865  11.893   2.378   6.365 -0.7149  0.7951 -0.8619
    3TTP    C3610866  11.937   2.458   6.488 -0.2691 -0.4581 -1.2954
    3TTP    C3710867  11.942   2.387   6.619  1.5838  0.9937  1.2252
    3TTP    C3810868  11.923   2.231   6.630 -1.8713 -0.6866  1.2491
    3TTP    C3910869  11.954   2.196   6.770 -1.7968  0.5882  0.7874
    3TTP    C4010870  12.007   2.043   6.774 -0.0536 -1.6699 -0.4981
    3TTP    C4110871  12.063   1.991   6.924  1.2609 -1.1524 -0.3247
    3TTP    C4210872  12.005   2.050   7.044 -0.8865 -0.8708 -0.7080
    4FIC     F110873  10.877   2.798   4.310  0.1333  0.2895  0.2794
    4FIC     F210874  10.803   2.570   4.182 -0.3941  0.5774  0.0645
    4FIC     O110875  10.831   2.645   4.827  0.4447 -0.2986  0.1346
    4FIC     N510876  10.664   2.132   4.366 -0.9298  0.5721 -0.3480
    4FIC     N610877  10.643   2.058   4.796 -0.5803  0.0545 -0.4178
    4FIC    C1910878  10.744   2.372   4.889  0.0519 -0.2324 -0.1223
    4FIC    C2010879  10.758   2.420   4.763 -0.0062 -0.0957 -0.0774
    4FIC    C2110880  10.804   2.561   4.740  0.2069 -0.1407  0.0558
    4FIC    C2210881  10.809   2.580   4.594  0.0770  0.0386  0.0733
    4FIC    C2310882  10.845   2.695   4.524  0.1941  0.0678  0.1817
    4FIC    C2410883  10.842   2.688   4.385  0.0310  0.2506  0.1758
    4FIC    C2510884  10.804   2.571   4.320 -0.2410  0.3986  0.0650
    4FIC    C2610885  10.768   2.456   4.389 -0.3591  0.3706 -0.0434
    4FIC    C2710886  10.770   2.460   4.529 -0.1967  0.1865 -0.0395
    4FIC    C2810887  10.738   2.357   4.631 -0.2584  0.1099 -0.1365
    4FIC    C2910888  10.696   2.228   4.606 -0.5035  0.2102 -0.2578
    4FIC    C3010889  10.679   2.176   4.474 -0.7370  0.4088 -0.3070
    4FIC    C3110890  10.667   2.136   4.711 -0.5441  0.1240 -0.3451
    5FIC     F110891  12.542   2.487   5.500 -0.0249  0.0504  0.0042
    5FIC     F210892  12.644   2.266   5.621  0.1441  0.3397  0.3954
    5FIC     O110893  12.031   2.475   5.678 -0.1356 -0.2711 -0.3327
    5FIC     N510894  12.426   1.939   5.922  0.3081  0.5268  0.7178
    5FIC     N610895  12.006   1.974   6.037  0.1875  0.2173  0.3760
    5FIC    C1910896  11.947   2.260   5.857 -0.0135 -0.1088 -0.0784
    5FIC    C2010897  12.071   2.271   5.807  0.0078 -0.0392 -0.0089
    5FIC    C2110898  12.107   2.385   5.716 -0.0586 -0.1305 -0.1490
    5FIC    C2210899  12.249   2.368   5.681 -0.0142 -0.0202 -0.0254
    5FIC    C2310900  12.327   2.448   5.599 -0.0492 -0.0509 -0.0886
    5FIC    C2410901  12.459   2.412   5.580  0.0055  0.0725  0.0562
    5FIC    C2510902  12.512   2.298   5.643  0.0925  0.2214  0.2577
    5FIC    C2610903  12.435   2.217   5.725  0.1280  0.2530  0.3220
    5FIC    C2710904  12.300   2.252   5.745  0.0735  0.1296  0.1775
    5FIC    C2810905  12.193   2.188   5.825  0.0905  0.1237  0.1955
    5FIC    C2910906  12.205   2.074   5.901  0.1680  0.2462  0.3686
    5FIC    C3010907  12.326   2.000   5.912  0.2448  0.4000  0.5602
    5FIC    C3110908  12.095   2.020   5.975  0.1783  0.2296  0.3717
    1BTD     S210909   8.188  10.000   5.131  0.0686 -0.3246 -0.6713
    1BTD     N110910   8.310  10.124   5.176 -0.1380 -0.1161 -0.6822
    1BTD     N210911   8.282   9.937   4.991  0.2587 -0.3049 -0.5527
    1BTD     N310912   8.694  10.033   4.788  0.2735  0.1106 -0.3303
    1BTD     N410913   8.729  10.264   5.015 -0.2158  0.3433 -0.4900
    1BTD     C510914   8.528  10.194   5.089 -0.1729  0.1206 -0.5800
    1BTD     C610915   8.410  10.113   5.089 -0.0587 -0.0465 -0.6011
    1BTD     C710916   8.394  10.008   4.986  0.1633 -0.1521 -0.5286
    1BTD     C810917   8.498   9.990   4.888  0.2606 -0.0851 -0.4385
    1BTD    C1510918   8.612  10.072   4.892  0.1429  0.0794 -0.4211
    1BTD    C1610919   8.627  10.173   4.991 -0.0714  0.1811 -0.4908
    1BTD    C4310920   8.851  10.283   4.937  0.2716  0.0011 -1.1370
    1BTD    C4410921   8.865  10.412   4.855 -0.1118 -0.5468 -0.7507
    1BTD    C4510922   9.002  10.441   4.807 -0.0982  0.6230 -0.1387
    1BTD    C4610923   9.086  10.514   4.905  0.0142  0.5318 -0.7032
    1BTD    C4710924   8.753  10.450   4.750 -0.4657 -0.7581 -1.4315
    1BTD    C4810925   8.741  10.419   4.610  0.4898  0.4053 -0.1358
    1BTD    C4910926   8.787  10.530   4.504 -0.1588  0.0254 -1.7481
    1BTD    C5010927   8.699  10.536   4.383 -0.2526 -0.1970 -0.2227
    1BTD    C7510928   8.840  10.041   4.760  0.1840 -0.5367 -1.3189
    1BTD    C7610929   8.958   9.930   4.784  0.3783 -0.8197  0.0467
    1BTD    C7710930   9.103   9.956   4.750 -1.3336 -0.0487  0.1208
    1BTD    C7810931   9.105  10.029   4.619  0.1378 -0.3940  0.7056
    1BTD    C7910932   8.943   9.852   4.924  0.4111 -0.8139  1.7261
    1BTD    C8010933   9.056   9.755   4.949  0.7454 -0.5280 -0.4152
    1BTD    C8110934   9.043   9.684   5.088  1.3575 -0.8373 -0.3015
    1BTD    C8210935   8.973   9.556   5.082 -0.5107  0.5844 -0.1540
    2TTP     S110936   8.493  10.416   5.290  0.2364  0.2231  0.0640
    2TTP     S510937   8.913  10.503   5.253  0.2072  0.2716 -0.1645
    2TTP     C110938   8.843  10.607   5.385  0.3085  0.1167  0.0130
    2TTP     C210939   8.710  10.587   5.404  0.3240  0.0930  0.0939
    2TTP     C310940   8.657  10.488   5.315  0.2558  0.1957  0.0187
    2TTP     C410941   8.563  10.311   5.158  0.1349  0.3779 -0.1135
    2TTP    C1710942   8.697  10.332   5.139  0.1196  0.4016 -0.1945
    2TTP    C1810943   8.749  10.431   5.228  0.1879  0.2987 -0.1193
    2TTP    C3210944   8.612  10.654   5.506 -0.7969 -0.5779  0.5437
    2TTP    C3310945   8.562  10.799   5.473 -0.2066  2.6058 -0.2809
    2TTP    C3410946   8.475  10.775   5.355  0.3533 -0.8743  0.2461
    2TTP    C3510947   8.403  10.907   5.316 -1.8156 -0.6894 -1.5141
    2TTP    C3610948   8.376  10.927   5.158 -0.6848 -0.0020  0.1098
    2TTP    C3710949   8.505  10.938   5.080  0.2401 -0.1639 -1.2912
    2TTP    C3810950   8.563  10.799   5.037 -0.6112 -0.5684 -0.0273
    2TTP    C3910951   8.528  10.724   4.906  1.5295  0.2794  0.8682
    2TTP    C4010952   8.504  10.809   4.764 -0.1998  0.6220 -0.5445
    2TTP    C4110953   8.620  10.818   4.656 -1.3361  1.1712 -0.6916
    2TTP    C4210954   8.696  10.945   4.655 -0.5751 -0.1160  0.1957
    3TTP     S110955   8.428   9.764   4.691  0.0650  0.2648  0.5436
    3TTP     S510956   8.768   9.876   4.454 -0.5751  0.3612 -0.3387
    3TTP     C110957   8.680   9.740   4.369 -0.6514  0.2102 -0.0201
    3TTP     C210958   8.570   9.698   4.438 -0.4582  0.1719  0.2711
    3TTP     C310959   8.551   9.771   4.559 -0.2432  0.2599  0.2531
    3TTP     C410960   8.515   9.900   4.776  0.1411  0.4158  0.2249
    3TTP    C1710961   8.626   9.942   4.707 -0.0519  0.4544 -0.0660
    3TTP    C1810962   8.645   9.869   4.586 -0.2673  0.3662 -0.0483
    3TTP    C3210963   8.474   9.576   4.402 -0.8781  0.2360 -1.2079
    3TTP    C3310964   8.464   9.463   4.509  0.7834  1.3712 -0.6075
    3TTP    C3410965   8.410   9.343   4.424 -0.1674 -1.1694  0.3096
    3TTP    C3510966   8.393   9.215   4.500  0.0623  0.9521  0.6196
    3TTP    C3610967   8.257   9.146   4.433 -0.5757 -0.1149  1.3004
    3TTP    C3710968   8.194   9.050   4.533  0.3267 -0.4242  1.0117
    3TTP    C3810969   8.073   8.974   4.488  0.5635 -0.2076 -0.3732
    3TTP    C3910970   8.097   8.908   4.347  0.0147  0.4950  0.8821
    3TTP    C4010971   8.128   8.766   4.390 -0.5802 -0.1346  0.8442
    3TTP    C4110972   8.044   8.650   4.326  0.1625 -0.4799  0.2205
    3TTP    C4210973   7.901   8.661   4.377 -1.1332 -0.5644 -0.8569
    4FIC     F110974   9.642  10.798   5.448  0.2575 -0.7803 -0.0859
    4FIC     F210975   9.597  10.880   5.703  0.4044  0.4010 -0.4267
    4FIC     O110976   9.142  10.663   5.292  0.0918 -1.0395  0.6604
    4FIC     N510977   9.174  10.902   5.959  0.4976  1.9135 -0.3847
    4FIC     N610978   8.792  10.780   5.786  0.3388  1.4727  0.2673
    4FIC    C1910979   8.920  10.694   5.480  0.1738 -0.0037  0.6001
    4FIC    C2010980   9.048  10.724   5.510  0.2093  0.0157  0.4256
    4FIC    C2110981   9.156  10.706   5.407  0.1633 -0.5357  0.4703
    4FIC    C2210982   9.282  10.748   5.472  0.2201 -0.3593  0.2450
    4FIC    C2310983   9.410  10.749   5.416  0.2053 -0.7186  0.1992
    4FIC    C2410984   9.514  10.794   5.496  0.2682 -0.4508 -0.0284
    4FIC    C2510985   9.490  10.836   5.628  0.3437  0.1577 -0.2037
    4FIC    C2610986   9.363  10.836   5.684  0.3591  0.5188 -0.1593
    4FIC    C2710987   9.256  10.791   5.604  0.2959  0.2556  0.0701
    4FIC    C2810988   9.111  10.778   5.633  0.2923  0.5102  0.1740
    4FIC    C2910989   9.048  10.809   5.751  0.3541  1.0929  0.0592
    4FIC    C3010990   9.117  10.860   5.865  0.4327  1.5421 -0.1844
    4FIC    C3110991   8.907  10.793   5.770  0.3452  1.2987  0.1744
    5FIC     F110992   9.268   9.848   3.804 -0.1824  0.3579 -0.2878
    5FIC     F210993   9.130   9.683   3.637  0.4096 -0.5548  0.1120
    5FIC     O110994   8.951   9.837   4.242 -0.3884  0.6697 -0.4278
    5FIC     N510995   8.707   9.437   3.709  1.1144 -1.6444  0.5873
    5FIC     N610996   8.487   9.462   4.086  0.8342 -1.2164  0.3973
    5FIC    C1910997   8.707   9.675   4.239  0.1041 -0.0907 -0.0955
    5FIC    C2010998   8.792   9.684   4.135  0.1328 -0.1338 -0.0758
    5FIC    C2110999   8.915   9.770   4.144 -0.1309  0.2735 -0.2539
    5FIC    C2211000   8.985   9.757   4.015 -0.0226  0.1075 -0.1804
    5FIC    C2311001   9.104   9.818   3.976 -0.1860  0.3607 -0.2906
    5FIC    C2411002   9.151   9.791   3.848 -0.0346  0.1286 -0.1882
    5FIC    C2511003   9.080   9.706   3.762  0.2705 -0.3415  0.0179
    5FIC    C2611004   8.961   9.645   3.800  0.4351 -0.5960  0.1287
    5FIC    C2711005   8.912   9.671   3.929  0.2859 -0.3669  0.0278
    5FIC    C2811006   8.791   9.623   4.000  0.3932 -0.5343  0.1001
    5FIC    C2911007   8.695   9.538   3.949  0.6797 -0.9756  0.2934
    5FIC    C3011008   8.702   9.483   3.817  0.9179 -1.3418  0.4543
    5FIC    C3111009   8.581   9.496   4.024  0.7629 -1.1053  0.3494
    1BTD     S211010   3.800   5.049   8.657  0.2617 -0.5988 -0.4291
    1BTD     N111011   3.838   4.977   8.818  0.1020 -0.2301 -0.2227
    1BTD     N211012   3.912   5.188   8.676  0.1899 -0.5161 -0.6051
    1BTD     N311013   4.212   5.341   9.004 -0.2450  0.3188 -0.5920
    1BTD     N411014   4.120   5.081   9.178 -0.3535  0.6708 -0.1206
    1BTD     C511015   3.987   5.034   9.004 -0.1345  0.2360 -0.1752
    1BTD     C611016   3.928   5.056   8.874  0.0081 -0.0724 -0.2923
    1BTD     C711017   3.970   5.174   8.795  0.0574 -0.2325 -0.5062
    1BTD     C811018   4.068   5.264   8.849 -0.0384 -0.0758 -0.5925
    1BTD    C1511019   4.122   5.239   8.977 -0.1773  0.2261 -0.4719
    1BTD    C1611020   4.082   5.126   9.053 -0.2246  0.3802 -0.2657
    1BTD    C4311021   4.113   5.139   9.306 -0.4131  0.7524 -1.2782
    1BTD    C4411022   4.044   5.268   9.354 -1.3832 -0.0149 -1.0988
    1BTD    C4511023   4.075   5.317   9.500  0.9112  0.1570  1.3503
    1BTD    C4611024   4.019   5.234   9.613  0.2762  0.9831 -0.1789
    1BTD    C4711025   3.915   5.324   9.300 -0.3555  1.3212 -1.4711
    1BTD    C4811026   3.883   5.465   9.282 -0.8072 -0.0494 -0.5712
    1BTD    C4911027   3.896   5.512   9.132  0.2137  0.5448 -0.5059
    1BTD    C5011028   3.970   5.639   9.125 -0.1266  0.1677 -0.5843
    1BTD    C7511029   4.316   5.330   9.111 -0.1285 -0.0259  1.4726
    1BTD    C7611030   4.410   5.439   9.159 -0.0370 -1.6944 -0.7335
    1BTD    C7711031   4.555   5.384   9.177 -0.2604 -0.0052 -0.7579
    1BTD    C7811032   4.609   5.282   9.283 -0.4569  1.3786 -1.0242
    1BTD    C7911033   4.351   5.535   9.273 -0.4784  0.7019  0.0871
    1BTD    C8011034   4.462   5.610   9.356 -1.5821  0.9847  0.6310
    1BTD    C8111035   4.506   5.726   9.271 -0.4234  0.6044 -0.1575
    1BTD    C8211036   4.659   5.730   9.243  0.1116 -0.1611 -0.1700
    2TTP     S111037   3.877   4.785   9.122  0.0088 -0.3296 -0.0090
    2TTP     S511038   4.130   4.834   9.465 -0.2033  0.3393  0.0534
    2TTP     C111039   4.036   4.680   9.484  0.2982  0.0203 -0.0339
    2TTP     C211040   3.952   4.655   9.379  0.3932 -0.2053 -0.0579
    2TTP     C311041   3.959   4.758   9.280  0.0735 -0.1339 -0.0088
    2TTP     C411042   3.970   4.939   9.102 -0.4925 -0.0105  0.0782
    2TTP    C1711043   4.054   4.964   9.208 -0.5875  0.2150  0.1025
    2TTP    C1811044   4.047   4.861   9.307 -0.2679  0.1436  0.0532
    2TTP    C3211045   3.871   4.541   9.351 -0.0190  0.7736  0.0387
    2TTP    C3311046   3.728   4.548   9.284  0.0844 -0.5557 -0.6666
    2TTP    C3411047   3.687   4.414   9.239  0.7950  0.4999  0.9622
    2TTP    C3511048   3.541   4.414   9.221 -0.2334 -0.7688  1.1529
    2TTP    C3611049   3.503   4.340   9.087  0.6229 -1.5184  1.0228
    2TTP    C3711050   3.566   4.351   8.945 -0.0919 -0.4471 -1.6089
    2TTP    C3811051   3.461   4.305   8.842 -0.0033 -0.7756  0.3750
    2TTP    C3911052   3.499   4.303   8.698 -0.1837 -0.9880  0.9195
    2TTP    C4011053   3.449   4.424   8.605  0.3485 -0.7627  1.3167
    2TTP    C4111054   3.300   4.445   8.602 -0.4232  0.7595 -0.8697
    2TTP    C4211055   3.248   4.582   8.571  0.5132  0.5889 -0.5242
    3TTP     S111056   4.161   5.451   8.634  0.1831  0.3636 -0.2396
    3TTP     S511057   4.423   5.646   8.914 -0.4796  0.1862  0.5116
    3TTP     C111058   4.443   5.725   8.751 -0.3442  0.5196  0.6868
    3TTP     C211059   4.363   5.669   8.655 -0.1317  0.5940  0.4659
    3TTP     C311060   4.283   5.562   8.707 -0.0679  0.3904  0.1490
    3TTP     C411061   4.140   5.372   8.797  0.0478  0.0303 -0.4151
    3TTP    C1711062   4.220   5.428   8.893 -0.1646 -0.0441 -0.1939
    3TTP    C1811063   4.300   5.535   8.841 -0.2284  0.1594  0.1225
    3TTP    C3211064   4.383   5.694   8.506 -0.0266  0.3176 -0.2434
    3TTP    C3311065   4.257   5.681   8.419  0.4177  0.4817 -1.0974
    3TTP    C3411066   4.256   5.692   8.274 -1.6882 -1.3097  0.9146
    3TTP    C3511067   4.334   5.582   8.199 -0.9626 -0.0579  2.3087
    3TTP    C3611068   4.288   5.509   8.068  0.2859  0.1399  1.0936
    3TTP    C3711069   4.145   5.458   8.105  0.1772  0.2636  0.5011
    3TTP    C3811070   4.090   5.447   7.975  0.7696  0.5255  1.5533
    3TTP    C3911071   3.946   5.457   7.956  1.1072 -0.3109 -0.3619
    3TTP    C4011072   3.905   5.588   7.886  0.1519 -0.6594 -0.2859
    3TTP    C4111073   3.758   5.613   7.870 -0.2503 -0.2067  0.0247
    3TTP    C4211074   3.711   5.757   7.855  0.1363 -0.5503 -0.4589
    4FIC     F111075   4.390   4.670  10.218 -0.5288  0.0463  0.0992
    4FIC     F211076   4.306   4.413  10.251 -0.3982 -0.0367 -0.2079
    4FIC     O111077   4.177   4.787   9.734 -0.1074  0.3254 -0.0200
    4FIC     N511078   4.034   4.127   9.952  0.0902  0.0432 -0.7343
    4FIC     N611079   3.885   4.270   9.568  0.3931  0.2779 -0.7658
    4FIC    C1911080   4.022   4.583   9.593  0.1671  0.3453 -0.3559
    4FIC    C2011081   4.078   4.563   9.714  0.0559  0.2782 -0.3140
    4FIC    C2111082   4.157   4.673   9.780 -0.0819  0.2726 -0.1385
    4FIC    C2211083   4.204   4.619   9.908 -0.1792  0.1923 -0.1361
    4FIC    C2311084   4.281   4.684  10.004 -0.3190  0.1595 -0.0012
    4FIC    C2411085   4.314   4.612  10.119 -0.3901  0.0823 -0.0291
    4FIC    C2511086   4.271   4.480  10.135 -0.3226  0.0398 -0.1871
    4FIC    C2611087   4.194   4.415  10.040 -0.1830  0.0722 -0.3223
    4FIC    C2711088   4.160   4.486   9.923 -0.1092  0.1503 -0.2968
    4FIC    C2811089   4.081   4.446   9.804  0.0380  0.2015 -0.4122
    4FIC    C2911090   4.021   4.324   9.783  0.1382  0.1811 -0.5786
    4FIC    C3011091   4.028   4.216   9.876  0.1115  0.1053 -0.6635
    4FIC    C3111092   3.946   4.295   9.664  0.2779  0.2345 -0.6804
    5FIC     F111093   4.875   6.196   9.266  0.1317 -0.6247  0.2666
    5FIC     F211094   5.060   6.232   9.070 -0.2437 -0.0565  0.0134
    5FIC     O111095   4.503   5.903   9.002  0.0943 -0.7170  0.4210
    5FIC     N511096   5.062   6.077   8.600 -0.8099  0.6946 -0.2406
    5FIC     N611097   4.734   5.841   8.434 -0.7632  0.5077 -0.0689
    5FIC    C1911098   4.548   5.835   8.721 -0.2774 -0.2072  0.2339
    5FIC    C2011099   4.635   5.907   8.795 -0.2533 -0.2060  0.2053
    5FIC    C2111100   4.604   5.938   8.939 -0.0576 -0.4768  0.3066
    5FIC    C2211101   4.718   6.017   8.989 -0.0827 -0.4002  0.2429
    5FIC    C2311102   4.735   6.069   9.117  0.0581 -0.5803  0.2978
    5FIC    C2411103   4.851   6.141   9.142 -0.0002 -0.4587  0.2186
    5FIC    C2511104   4.947   6.160   9.041 -0.1937 -0.1660  0.0877
    5FIC    C2611105   4.930   6.109   8.913 -0.3349  0.0149  0.0324
    5FIC    C2711106   4.813   6.035   8.886 -0.2785 -0.1042  0.1116
    5FIC    C2811107   4.766   5.968   8.763 -0.3911  0.0267  0.0827
    5FIC    C2911108   4.831   5.964   8.642 -0.5859  0.3096 -0.0341
    5FIC    C3011109   4.957   6.026   8.619 -0.7083  0.5203 -0.1473
    5FIC    C3111110   4.777   5.896   8.528 -0.6824  0.4171 -0.0525
    1BTD     S211111   9.269   1.843   6.585  0.1318 -0.1267 -0.1363
    1BTD     N111112   9.212   2.013   6.604  0.8740  0.1085  0.0330
    1BTD     N211113   9.255   1.843   6.405 -0.4263 -0.0888 -0.0975
    1BTD     N311114   9.126   2.151   6.075 -0.2239  0.4131  0.2868
    1BTD     N411115   9.073   2.359   6.320  1.3781  0.6562  0.4474
    1BTD     C511116   9.140   2.191   6.452  1.1182  0.3915  0.2475
    1BTD     C611117   9.188   2.058   6.482  0.6776  0.1985  0.1059
    1BTD     C711118   9.212   1.964   6.371 -0.0503  0.0880  0.0328
    1BTD     C811119   9.187   2.006   6.236 -0.3014  0.1762  0.1051
    1BTD    C1511120   9.141   2.137   6.212  0.1485  0.3654  0.2437
    1BTD    C1611121   9.117   2.228   6.319  0.8498  0.4719  0.3141
    1BTD    C4311122   9.073   2.487   6.238 -1.2193  0.3917 -0.5779
    1BTD    C4411123   9.201   2.578   6.249  1.4515  0.1500  0.1905
    1BTD    C4511124   9.170   2.698   6.156  0.3307  0.3373 -0.7997
    1BTD    C4611125   9.039   2.767   6.102 -0.7120  1.1892 -0.1089
    1BTD    C4711126   9.345   2.526   6.250  0.8356  0.0305 -0.6513
    1BTD    C4811127   9.436   2.503   6.134  1.1842  0.0743  0.1429
    1BTD    C4911128   9.540   2.595   6.087 -0.7101  0.6201  0.0761
    1BTD    C5011129   9.630   2.531   5.964 -0.0251  0.1307 -1.2012
    1BTD    C7511130   9.038   2.250   6.025  0.2649  0.9844 -1.0790
    1BTD    C7611131   9.039   2.313   5.893  0.2462  0.1535 -0.5519
    1BTD    C7711132   8.901   2.323   5.827  0.9762 -1.1476 -0.3753
    1BTD    C7811133   8.866   2.211   5.735 -0.4277  0.1746 -0.0638
    1BTD    C7911134   9.156   2.404   5.845 -0.4774  0.5973  0.9229
    1BTD    C8011135   9.302   2.357   5.858 -0.3816 -0.1206  1.4862
    1BTD    C8111136   9.380   2.338   5.722  0.3927  0.6807  0.7940
    1BTD    C8211137   9.313   2.358   5.580 -0.6622 -0.1150 -0.5859
    2TTP     S111138   9.055   2.329   6.707 -0.0730  0.5781  0.3305
    2TTP     S511139   8.938   2.679   6.485 -0.5679  0.2352  0.0461
    2TTP     C111140   8.890   2.702   6.659 -0.8403  0.1971 -0.0236
    2TTP     C211141   8.923   2.595   6.738 -0.7036  0.3009  0.0601
    2TTP     C311142   8.988   2.492   6.663 -0.3788  0.4140  0.1824
    2TTP     C411143   9.103   2.307   6.533  0.1996  0.6161  0.4002
    2TTP    C1711144   9.070   2.413   6.454  0.0628  0.5125  0.3165
    2TTP    C1811145   9.005   2.517   6.528 -0.2623  0.3992  0.1943
    2TTP    C3211146   8.890   2.588   6.880  0.5436  1.4201 -1.0182
    2TTP    C3311147   8.996   2.647   6.973  0.5311  0.2407 -0.1050
    2TTP    C3411148   8.965   2.626   7.121  1.0180 -0.0699  0.2454
    2TTP    C3511149   9.061   2.700   7.218  0.5333  1.0477  0.3081
    2TTP    C3611150   9.030   2.721   7.363  0.6968  0.3091  0.9037
    2TTP    C3711151   9.076   2.608   7.446  0.8689  0.6424  0.2408
    2TTP    C3811152   9.006   2.629   7.583 -0.9177  0.1707 -0.8099
    2TTP    C3911153   9.102   2.671   7.696 -0.0086 -0.8373  0.0038
    2TTP    C4011154   9.042   2.650   7.834  0.3515  0.6084  0.4632
    2TTP    C4111155   8.925   2.742   7.876  0.6910 -0.9444  0.0488
    2TTP    C4211156   8.932   2.892   7.828 -0.7662 -0.4316 -0.7843
    3TTP     S111157   9.265   1.785   6.057  0.1545  0.1570  0.1028
    3TTP     S511158   9.202   2.042   5.718  0.4911  0.0201 -0.0654
    3TTP     C111159   9.279   1.888   5.660  1.1713  0.2694  0.1632
    3TTP     C211160   9.303   1.800   5.761  1.1075  0.3264  0.2285
    3TTP     C311161   9.261   1.850   5.888  0.5190  0.1752  0.1006
    3TTP     C411162   9.187   1.939   6.115 -0.5252 -0.0922 -0.1258
    3TTP    C1711163   9.163   2.027   6.014 -0.4616 -0.1493 -0.1911
    3TTP    C1811164   9.205   1.977   5.887  0.1268  0.0019 -0.0632
    3TTP    C3211165   9.371   1.664   5.747 -0.1420 -0.3578  1.6514
    3TTP    C3311166   9.297   1.539   5.801 -0.4740  0.4577 -1.0581
    3TTP    C3411167   9.375   1.431   5.737 -1.4402 -1.2243 -0.4992
    3TTP    C3511168   9.319   1.295   5.759 -0.7963 -0.1238  0.1043
    3TTP    C3611169   9.372   1.185   5.665 -0.5403  0.6724 -0.1872
    3TTP    C3711170   9.379   1.039   5.719 -0.7784 -1.8182  0.5582
    3TTP    C3811171   9.451   0.928   5.647 -1.3703  0.4781 -0.3510
    3TTP    C3911172   9.470   0.817   5.732  0.1038 -0.5043 -1.0775
    3TTP    C4011173   9.601   0.750   5.707 -0.3197 -2.0490 -1.1538
    3TTP    C4111174   9.575   0.610   5.677  0.0976  0.3511 -0.6724
    3TTP    C4211175   9.523   0.506   5.764  0.0392  0.5806 -0.0945
    4FIC     F111176   8.532   3.368   6.332  0.1671  0.2273 -0.1582
    4FIC     F211177   8.427   3.425   6.577  0.2241  0.4062 -0.1750
    4FIC     O111178   8.817   2.922   6.444 -0.1233  0.0845  0.0178
    4FIC     N511179   8.481   3.189   7.009  0.0982  0.5618 -0.0738
    4FIC     N611180   8.725   2.828   7.046 -0.1402  0.4142  0.0672
    4FIC    C1911181   8.819   2.818   6.717 -0.1724  0.2049  0.0643
    4FIC    C2011182   8.751   2.928   6.680 -0.1016  0.2338  0.0206
    4FIC    C2111183   8.755   2.975   6.537 -0.0808  0.1677 -0.0008
    4FIC    C2211184   8.671   3.096   6.531  0.0002  0.2214 -0.0482
    4FIC    C2311185   8.645   3.176   6.420  0.0448  0.1900 -0.0813
    4FIC    C2411186   8.562   3.286   6.438  0.1200  0.2537 -0.1238
    4FIC    C2511187   8.509   3.315   6.564  0.1488  0.3458 -0.1324
    4FIC    C2611188   8.535   3.236   6.676  0.1047  0.3777 -0.0993
    4FIC    C2711189   8.618   3.124   6.659  0.0288  0.3142 -0.0563
    4FIC    C2811190   8.665   3.022   6.756 -0.0327  0.3256 -0.0142
    4FIC    C2911191   8.634   3.015   6.890 -0.0267  0.4056 -0.0089
    4FIC    C3011192   8.550   3.111   6.955  0.0420  0.4912 -0.0446
    4FIC    C3111193   8.684   2.913   6.975 -0.0892  0.4098  0.0329
    5FIC     F111194   9.064   2.245   4.947 -0.3564 -0.3333 -0.1640
    5FIC     F211195   9.242   2.085   4.819  0.4811  0.4892 -0.0499
    5FIC     O111196   9.118   2.072   5.457 -0.7217 -0.8538 -0.3003
    5FIC     N511197   9.538   1.730   4.998  1.4241  1.3009  0.0173
    5FIC     N611198   9.544   1.627   5.422  0.9701  0.7284 -0.1123
    5FIC    C1911199   9.308   1.857   5.515 -0.0519 -0.2528 -0.2397
    5FIC    C2011200   9.287   1.906   5.392  0.0074 -0.1540 -0.2098
    5FIC    C2111201   9.188   2.017   5.370 -0.3524 -0.4804 -0.2441
    5FIC    C2211202   9.190   2.047   5.226 -0.1800 -0.2690 -0.1981
    5FIC    C2311203   9.115   2.143   5.158 -0.3946 -0.4437 -0.2083
    5FIC    C2411204   9.135   2.153   5.021 -0.1640 -0.1811 -0.1575
    5FIC    C2511205   9.227   2.070   4.955  0.2674  0.2425 -0.0986
    5FIC    C2611206   9.302   1.975   5.022  0.4833  0.4190 -0.0882
    5FIC    C2711207   9.284   1.963   5.161  0.2551  0.1581 -0.1391
    5FIC    C2811208   9.347   1.873   5.260  0.3879  0.2455 -0.1439
    5FIC    C2911209   9.443   1.777   5.235  0.7863  0.6245 -0.0964
    5FIC    C3011210   9.494   1.752   5.105  1.1356  0.9951 -0.0341
    5FIC    C3111211   9.498   1.695   5.338  0.8852  0.6795 -0.1055
    1BTD     S211212   1.463   9.872   9.684  0.2494 -0.0046  0.0616
    1BTD     N111213   1.284   9.854   9.681  0.2154  0.1349  0.7443
    1BTD     N211214   1.462  10.038   9.616  0.1628 -0.2317 -0.5000
    1BTD     N311215   1.137  10.344   9.470 -0.0753 -0.4430 -0.4127
    1BTD     N411216   0.918  10.116   9.549 -0.0105  0.0093  1.1206
    1BTD     C511217   1.095   9.993   9.611  0.0967  0.0639  0.9222
    1BTD     C611218   1.235   9.966   9.631  0.1449  0.0117  0.5293
    1BTD     C711219   1.335  10.070   9.595  0.1155 -0.1941 -0.1671
    1BTD     C811220   1.289  10.195   9.541  0.0393 -0.3364 -0.4361
    1BTD    C1511221   1.151  10.217   9.523 -0.0058 -0.2786 -0.0329
    1BTD    C1611222   1.056  10.117   9.558  0.0225 -0.0807  0.6381
    1BTD    C4311223   0.848  10.150   9.417 -0.6321  0.6352 -1.1393
    1BTD    C4411224   0.708  10.120   9.369  0.2867  0.3988  1.1873
    1BTD    C4511225   0.655  10.224   9.268 -0.0060  0.0491 -0.2567
    1BTD    C4611226   0.513  10.199   9.224 -0.5078 -0.5486 -0.4491
    1BTD    C4711227   0.688   9.971   9.355  0.3901  0.5525  0.4364
    1BTD    C4811228   0.694   9.899   9.225  0.5074  0.0021  1.2845
    1BTD    C4911229   0.807   9.940   9.110  0.1039  0.0678  0.1212
    1BTD    C5011230   0.733   9.951   8.968  1.9020  0.3644  0.2254
    1BTD    C7511231   1.000  10.415   9.464 -0.0466 -0.7293  0.4885
    1BTD    C7611232   0.959  10.502   9.572  0.4634 -1.6250  0.1595
    1BTD    C7711233   0.819  10.545   9.521  1.3399  0.7591 -0.3694
    1BTD    C7811234   0.713  10.614   9.599  0.0349 -0.5198 -1.1924
    1BTD    C7911235   0.984  10.456   9.732 -0.0738 -0.0997  1.0509
    1BTD    C8011236   0.874  10.362   9.772  0.5117 -0.7112 -0.9594
    1BTD    C8111237   0.807  10.410   9.919 -0.2659  0.3306  1.4985
    1BTD    C8211238   0.693  10.305   9.967 -2.0891 -1.4716 -0.6313
    2TTP     S111239   0.930   9.761   9.720 -0.2196 -0.4012 -0.3309
    2TTP     S511240   0.586  10.018   9.699  0.3271  0.4165  0.5784
    2TTP     C111241   0.541   9.868   9.791  0.0427  0.2406  0.1568
    2TTP     C211242   0.644   9.780   9.803 -0.1429 -0.0226 -0.1493
    2TTP     C311243   0.763   9.828   9.740 -0.0672 -0.0942 -0.0610
    2TTP     C411244   0.976   9.911   9.628  0.0647 -0.2251  0.0908
    2TTP    C1711245   0.872   9.999   9.616  0.2503  0.0381  0.3965
    2TTP    C1811246   0.753   9.952   9.679  0.1746  0.1099  0.3088
    2TTP    C3211247   0.670   9.637   9.861 -0.2232 -0.9814 -0.4714
    2TTP    C3311248   0.599   9.541   9.769  0.6424  1.1068  0.1264
    2TTP    C3411249   0.632   9.518   9.619  0.0691 -1.2723 -0.9760
    2TTP    C3511250   0.749   9.428   9.576 -1.8267 -0.0197 -0.1745
    2TTP    C3611251   0.748   9.278   9.612 -0.7041  0.2704 -0.3042
    2TTP    C3711252   0.875   9.192   9.567 -0.6222  0.3750 -0.0667
    2TTP    C3811253   0.864   9.035   9.544 -0.8736 -0.2925 -0.6867
    2TTP    C3911254   0.883   8.986   9.399 -0.4126  1.3399  0.2130
    2TTP    C4011255   0.902   8.834   9.369 -1.3963  1.2098  0.7278
    2TTP    C4111256   0.833   8.805   9.230  0.8162  0.3707  0.3426
    2TTP    C4211257   0.679   8.764   9.211  0.0994 -0.3653 -0.1486
    3TTP     S111258   1.522  10.346   9.423 -0.1662  0.5593  0.4228
    3TTP     S511259   1.247  10.643   9.277 -0.6900 -0.2134 -0.1760
    3TTP     C111260   1.413  10.683   9.215 -0.7699 -0.0751 -0.3033
    3TTP     C211261   1.508  10.594   9.257 -0.6128  0.1717 -0.1261
    3TTP     C311262   1.453  10.491   9.338 -0.4237  0.2606  0.1168
    3TTP     C411263   1.356  10.306   9.484 -0.0862  0.4210  0.5500
    3TTP    C1711264   1.261  10.395   9.443 -0.2433  0.1743  0.3729
    3TTP    C1811265   1.316  10.499   9.361 -0.4324  0.0856  0.1302
    3TTP    C3211266   1.656  10.595   9.206  0.5036  0.4277 -0.0672
    3TTP    C3311267   1.748  10.485   9.199  0.0904 -0.7367  0.1642
    3TTP    C3411268   1.889  10.501   9.228 -0.3791 -0.0367 -0.0302
    3TTP    C3511269   1.991  10.404   9.204 -1.5500  0.4691  0.1366
    3TTP    C3611270   2.063  10.382   9.077  1.0643 -0.7653  0.4240
    3TTP    C3711271   2.098  10.505   8.994 -0.2633 -1.2685 -1.0767
    3TTP    C3811272   2.109  10.491   8.843 -1.0393 -0.2562  1.0308
    3TTP    C3911273   2.113  10.357   8.778  1.2435 -1.0807 -0.3879
    3TTP    C4011274   2.086  10.374   8.630 -0.1090  0.3371 -0.7201
    3TTP    C4111275   2.058  10.232   8.605 -0.1178  1.1514 -0.1960
    3TTP    C4211276   1.990  10.188   8.472 -0.9602  0.3684  0.0746
    4FIC     F111277  -0.207  10.227   9.798 -0.0086 -0.2303  0.4313
    4FIC     F211278  -0.282  10.051   9.991  0.1125 -0.3273  0.3903
    4FIC     O111279   0.300  10.061   9.701  0.0990  0.1276  0.3774
    4FIC     N511280  -0.030   9.681  10.201  0.3633 -0.2117  0.2937
    4FIC     N611281   0.381   9.586  10.087  0.4229  0.0877  0.2599
    4FIC    C1911282   0.407   9.834   9.852  0.2529  0.1622  0.3192
    4FIC    C2011283   0.283   9.883   9.869  0.2211  0.0758  0.3347
    4FIC    C2111284   0.235  10.000   9.788  0.1417  0.0639  0.3641
    4FIC    C2211285   0.096  10.026   9.830  0.1250 -0.0381  0.3743
    4FIC    C2311286   0.010  10.125   9.783  0.0582 -0.0832  0.4008
    4FIC    C2411287  -0.116  10.131   9.839  0.0558 -0.1805  0.4056
    4FIC    C2511288  -0.155  10.041   9.939  0.1182 -0.2309  0.3848
    4FIC    C2611289  -0.070   9.942   9.987  0.1848 -0.1855  0.3583
    4FIC    C2711290   0.059   9.934   9.931  0.1886 -0.0873  0.3531
    4FIC    C2811291   0.172   9.842   9.959  0.2501 -0.0191  0.3276
    4FIC    C2911292   0.173   9.740  10.050  0.3205 -0.0403  0.3028
    4FIC    C3011293   0.061   9.707  10.133  0.3438 -0.1342  0.2975
    4FIC    C3111294   0.287   9.656  10.070  0.3765  0.0300  0.2792
    5FIC     F111295   1.011  11.343   8.935 -0.0616 -0.2134 -0.7877
    5FIC     F211296   1.240  11.420   8.809  0.2462  0.2930  0.0703
    5FIC     O111297   1.175  10.884   9.172 -0.1916 -0.3226 -0.9089
    5FIC     N511298   1.686  11.206   8.798  0.5960  0.9429  1.2183
    5FIC     N611299   1.768  10.832   9.009  0.4324  0.7553  0.9511
    5FIC    C1911300   1.452  10.796   9.136  0.0562  0.1222 -0.1314
    5FIC    C2011301   1.402  10.908   9.082  0.0769  0.1299 -0.1347
    5FIC    C2111302   1.258  10.947   9.104 -0.0562 -0.1068 -0.5469
    5FIC    C2211303   1.237  11.073   9.031  0.0061 -0.0317 -0.4363
    5FIC    C2311304   1.120  11.148   9.023 -0.0737 -0.1862 -0.7126
    5FIC    C2411305   1.124  11.264   8.947  0.0101 -0.0718 -0.5333
    5FIC    C2511306   1.241  11.304   8.883  0.1686  0.1893 -0.0907
    5FIC    C2611307   1.359  11.230   8.891  0.2490  0.3445  0.1869
    5FIC    C2711308   1.357  11.112   8.967  0.1661  0.2320  0.0110
    5FIC    C2811309   1.463  11.012   8.995  0.2159  0.3419  0.2139
    5FIC    C2911310   1.593  11.016   8.950  0.3630  0.5915  0.6430
    5FIC    C3011311   1.643  11.120   8.867  0.4906  0.7839  0.9580
    5FIC    C3111312   1.688  10.915   8.983  0.4002  0.6804  0.8099
    1BTD     S211313   8.157   7.432   3.238 -0.2123  0.1316 -0.1088
    1BTD     N111314   8.083   7.283   3.170 -0.2966  0.2290 -0.2301
    1BTD     N211315   8.045   7.441   3.379 -0.0048 -0.0998  0.0741
    1BTD     N311316   7.682   7.192   3.541  0.2661 -0.3946  0.2279
    1BTD     N411317   7.729   6.997   3.284 -0.0936  0.0106 -0.1469
    1BTD     C511318   7.897   7.136   3.233 -0.1863  0.1101 -0.1822
    1BTD     C611319   7.984   7.250   3.251 -0.1719  0.0913 -0.1330
    1BTD     C711320   7.963   7.338   3.368 -0.0087 -0.0926  0.0373
    1BTD     C811321   7.856   7.309   3.461  0.1324 -0.2489  0.1498
    1BTD    C1511322   7.775   7.196   3.439  0.1126 -0.2240  0.0963
    1BTD    C1611323   7.795   7.111   3.326 -0.0447 -0.0466 -0.0677
    1BTD    C4311324   7.638   6.898   3.369 -0.6143 -1.7319  0.3965
    1BTD    C4411325   7.665   6.741   3.358  0.1160 -1.9845  0.1786
    1BTD    C4511326   7.757   6.676   3.457 -0.5571  1.0583 -0.8593
    1BTD    C4611327   7.787   6.529   3.454 -1.4692 -0.1921  1.0239
    1BTD    C4711328   7.532   6.661   3.384  0.1532  1.0697 -1.0229
    1BTD    C4811329   7.408   6.692   3.301  0.5630  0.9255 -0.2379
    1BTD    C4911330   7.276   6.668   3.350  1.2389  0.5895 -1.1432
    1BTD    C5011331   7.216   6.665   3.490 -0.2488 -0.3151 -1.0434
    1BTD    C7511332   7.617   7.076   3.609  0.6601 -0.5471 -0.5999
    1BTD    C7611333   7.689   6.982   3.697  0.1084 -0.3309 -0.0937
    1BTD    C7711334   7.613   6.870   3.762 -0.0811  0.8151 -1.2089
    1BTD    C7811335   7.660   6.722   3.768  1.1627 -2.0075  0.0228
    1BTD    C7911336   7.827   7.019   3.764  0.1089  0.9173  0.0136
    1BTD    C8011337   7.857   7.126   3.866  0.9447 -0.1283 -0.5299
    1BTD    C8111338   7.793   7.094   4.004  0.1722 -0.0388  0.6962
    1BTD    C8211339   7.838   7.184   4.111 -0.4463 -0.8933 -0.3040
    2TTP     S111340   7.925   7.056   2.954  0.2925 -0.3567  0.1879
    2TTP     S511341   7.551   6.847   2.991 -0.1037  0.2902 -0.1369
    2TTP     C111342   7.589   6.868   2.814  0.1460  0.1216 -0.1050
    2TTP     C211343   7.707   6.934   2.792  0.2832 -0.0879 -0.0028
    2TTP     C311344   7.771   6.970   2.915  0.1959 -0.1230  0.0540
    2TTP     C411345   7.888   7.034   3.131  0.0430 -0.1881  0.1561
    2TTP    C1711346   7.770   6.968   3.153 -0.0943  0.0213  0.0540
    2TTP    C1811347   7.705   6.933   3.031 -0.0069  0.0566 -0.0028
    2TTP    C3211348   7.777   6.943   2.653 -0.3287  0.4159 -0.1227
    2TTP    C3311349   7.896   7.047   2.627 -1.3269  1.5323  0.6775
    2TTP    C3411350   8.028   6.965   2.586 -0.3100  0.6953 -1.0408
    2TTP    C3511351   8.171   6.995   2.605 -0.2177 -0.5643  0.3699
    2TTP    C3611352   8.241   6.985   2.742  0.7658  0.1284  0.0169
    2TTP    C3711353   8.192   6.904   2.862 -0.1628  0.3848  0.4140
    2TTP    C3811354   8.270   6.920   2.985 -0.9786  0.7592  0.4518
    2TTP    C3911355   8.221   6.838   3.107 -1.1034 -0.5625 -0.7557
    2TTP    C4011356   8.210   6.690   3.099  0.3467 -0.8694  0.9664
    2TTP    C4111357   8.064   6.646   3.093 -0.5870  0.9568 -0.6170
    2TTP    C4211358   8.060   6.489   3.087 -0.4027  0.9827  0.0766
    3TTP     S111359   7.821   7.534   3.656  0.2707 -0.7836 -0.0017
    3TTP     S511360   7.456   7.345   3.782 -0.4884  0.5310 -0.1939
    3TTP     C111361   7.462   7.513   3.853 -0.0633  0.6200 -0.4342
    3TTP     C211362   7.575   7.581   3.819  0.1962  0.2195 -0.3890
    3TTP     C311363   7.661   7.503   3.735  0.0685 -0.1724 -0.1629
    3TTP     C411364   7.815   7.367   3.585 -0.1546 -0.8727  0.2386
    3TTP    C1711365   7.701   7.298   3.620 -0.4139 -0.4721  0.1934
    3TTP    C1811366   7.616   7.376   3.704 -0.2863 -0.0802 -0.0326
    3TTP    C3211367   7.604   7.730   3.840  0.2380 -0.6625  0.5222
    3TTP    C3311368   7.679   7.822   3.736  0.8053  0.8212  0.0568
    3TTP    C3411369   7.593   7.898   3.645  1.3862  0.3078 -0.3579
    3TTP    C3511370   7.471   7.981   3.685  1.1683 -0.4377 -0.0488
    3TTP    C3611371   7.413   8.000   3.819  0.1290 -1.1133 -1.2577
    3TTP    C3711372   7.301   8.099   3.805 -0.1192 -1.4206 -0.3660
    3TTP    C3811373   7.305   8.207   3.910  0.0115 -0.5270 -0.2484
    3TTP    C3911374   7.400   8.336   3.875  0.2658  0.7957 -0.2271
    3TTP    C4011375   7.345   8.403   3.751  0.7642 -0.3439  0.7908
    3TTP    C4111376   7.225   8.506   3.772 -1.4548  0.7799  2.0216
    3TTP    C4211377   7.194   8.557   3.637 -1.0474  0.8256  0.6000
    4FIC     F111378   6.824   6.580   2.768 -0.3527  0.0960 -0.0597
    4FIC     F211379   6.888   6.469   2.528 -0.1580 -0.1687  0.1141
    4FIC     O111380   7.288   6.830   2.893 -0.3486 -0.0381  0.1937
    4FIC     N511381   7.311   6.486   2.272  0.1252 -0.6448  0.5448
    4FIC     N611382   7.661   6.704   2.418  0.0892 -0.6962  0.7079
    4FIC    C1911383   7.514   6.812   2.708 -0.1610 -0.3384  0.4499
    4FIC    C2011384   7.395   6.753   2.686 -0.1695 -0.2944  0.3794
    4FIC    C2111385   7.283   6.767   2.786 -0.2687 -0.1379  0.2484
    4FIC    C2211386   7.169   6.692   2.731 -0.2518 -0.1278  0.1987
    4FIC    C2311387   7.043   6.676   2.788 -0.3214 -0.0045  0.0808
    4FIC    C2411388   6.950   6.600   2.717 -0.2877 -0.0216  0.0550
    4FIC    C2511389   6.984   6.543   2.594 -0.1875 -0.1580  0.1447
    4FIC    C2611390   7.109   6.559   2.536 -0.1175 -0.2815  0.2626
    4FIC    C2711391   7.204   6.635   2.606 -0.1501 -0.2664  0.2905
    4FIC    C2811392   7.344   6.670   2.574 -0.0955 -0.3743  0.4050
    4FIC    C2911393   7.414   6.633   2.461  0.0042 -0.5201  0.5140
    4FIC    C3011394   7.357   6.553   2.358  0.0703 -0.5883  0.5305
    4FIC    C3111395   7.549   6.672   2.438  0.0503 -0.6161  0.6200
    5FIC     F111396   6.777   7.245   4.227 -0.1855  0.1769 -0.1713
    5FIC     F211397   6.836   7.408   4.437 -0.3480  0.1792 -0.1268
    5FIC     O111398   7.183   7.365   3.889 -0.1274  0.4421 -0.0084
    5FIC     N511399   7.210   7.726   4.499 -0.5399  0.3711  0.0533
    5FIC     N611400   7.515   7.787   4.192 -0.4618  0.5778  0.1717
    5FIC    C1911401   7.383   7.562   3.970 -0.2618  0.5382  0.0920
    5FIC    C2011402   7.279   7.526   4.047 -0.2702  0.4715  0.0494
    5FIC    C2111403   7.180   7.424   3.998 -0.1982  0.4253 -0.0010
    5FIC    C2211404   7.080   7.408   4.105 -0.2283  0.3568 -0.0391
    5FIC    C2311405   6.969   7.324   4.106 -0.1838  0.2967 -0.0912
    5FIC    C2411406   6.889   7.326   4.219 -0.2258  0.2380 -0.1197
    5FIC    C2511407   6.919   7.410   4.328 -0.3095  0.2391 -0.0968
    5FIC    C2611408   7.030   7.494   4.327 -0.3543  0.2986 -0.0448
    5FIC    C2711409   7.112   7.493   4.214 -0.3129  0.3588 -0.0154
    5FIC    C2811410   7.236   7.569   4.182 -0.3419  0.4295  0.0401
    5FIC    C2911411   7.298   7.661   4.263 -0.4202  0.4514  0.0756
    5FIC    C3011412   7.249   7.697   4.392 -0.4859  0.4073  0.0632
    5FIC    C3111413   7.417   7.730   4.223 -0.4427  0.5208  0.1281
    1BTD     S211414   8.201   7.891   8.682 -0.0914 -0.7206 -0.6365
    1BTD     N111415   8.094   7.991   8.786  0.6981 -0.2432 -0.2589
    1BTD     N211416   8.135   7.734   8.739 -0.8385 -0.4323 -0.6859
    1BTD     N311417   7.806   7.594   9.043 -0.9356  1.0170 -0.1059
    1BTD     N411418   7.755   7.910   9.101  0.9576  1.2499  0.4203
    1BTD     C511419   7.918   7.945   8.950  0.8105  0.5335  0.0894
    1BTD     C611420   8.018   7.906   8.854  0.3805  0.0893 -0.1929
    1BTD     C711421   8.041   7.762   8.828 -0.4795 -0.0167 -0.4318
    1BTD     C811422   7.963   7.665   8.898 -0.8664  0.3272 -0.3769
    1BTD    C1511423   7.866   7.707   8.991 -0.4212  0.7575 -0.0973
    1BTD    C1611424   7.843   7.846   9.016  0.4074  0.8594  0.1332
    1BTD    C4311425   7.674   7.871   9.208 -0.8792 -0.4080 -0.3569
    1BTD    C4411426   7.513   7.870   9.180 -0.3914 -0.2919 -0.2067
    1BTD    C4511427   7.488   8.014   9.115  0.3041 -0.1169  1.0130
    1BTD    C4611428   7.355   8.027   9.046  0.6574  1.0646  1.0528
    1BTD    C4711429   7.442   7.813   9.299  1.0009 -1.8361  0.0574
    1BTD    C4811430   7.305   7.782   9.254  0.1231  0.4249 -0.8643
    1BTD    C4911431   7.224   7.731   9.367  0.8511 -0.0775  0.7622
    1BTD    C5011432   7.088   7.780   9.314 -0.6195  0.6759 -1.2094
    1BTD    C7511433   7.736   7.563   9.176 -0.1406  0.3123 -0.2636
    1BTD    C7611434   7.814   7.541   9.319 -1.4783 -0.4802  1.3988
    1BTD    C7711435   7.917   7.654   9.356  0.2908  0.3410  0.4092
    1BTD    C7811436   8.029   7.632   9.463  0.2107 -0.2288  1.0751
    1BTD    C7911437   7.806   7.402   9.397 -0.6441 -0.0620 -0.1854
    1BTD    C8011438   7.666   7.355   9.433  0.4508  1.2216  0.1027
    1BTD    C8111439   7.535   7.419   9.491  0.0155  0.2269 -0.1743
    1BTD    C8211440   7.567   7.558   9.546 -0.4303  0.3789  1.5396
    2TTP     S111441   7.961   8.228   9.015 -0.2363 -0.3396 -0.3282
    2TTP     S511442   7.670   8.198   9.331  0.4423 -0.2964  0.3071
    2TTP     C111443   7.746   8.363   9.337  0.3971 -0.2665  0.0701
    2TTP     C211444   7.840   8.382   9.240  0.1851 -0.2780 -0.1402
    2TTP     C311445   7.856   8.267   9.157  0.0504 -0.3107 -0.1216
    2TTP     C411446   7.886   8.062   9.009 -0.1913 -0.3691 -0.0911
    2TTP    C1711447   7.792   8.043   9.106  0.0208 -0.3578  0.1189
    2TTP    C1811448   7.776   8.159   9.189  0.1556 -0.3250  0.1001
    2TTP    C3211449   7.916   8.502   9.196  0.5689  0.0709 -0.2684
    2TTP    C3311450   8.071   8.491   9.189  0.4688 -0.0292 -1.1023
    2TTP    C3411451   8.154   8.490   9.053  0.8068  0.0286  0.5355
    2TTP    C3511452   8.278   8.568   9.088 -1.1196 -0.2510 -0.6606
    2TTP    C3611453   8.358   8.595   8.952 -1.1663 -0.1574  0.5375
    2TTP    C3711454   8.513   8.566   8.974 -0.4913  0.5368 -0.0402
    2TTP    C3811455   8.564   8.424   9.019  0.3993 -1.6192  0.1813
    2TTP    C3911456   8.720   8.421   9.034  0.3949  0.7032 -0.5158
    2TTP    C4011457   8.812   8.285   9.034 -0.7616 -0.3713 -0.1462
    2TTP    C4111458   8.784   8.198   9.158 -1.1039 -0.1206  0.7274
    2TTP    C4211459   8.700   8.062   9.137 -1.5488 -0.2964  0.0569
    3TTP     S111460   8.018   7.379   8.779  0.6257  0.0062 -0.4301
    3TTP     S511461   7.672   7.249   8.998  0.4413 -0.3140 -0.9096
    3TTP     C111462   7.725   7.114   8.888  0.7583 -0.2892 -0.7876
    3TTP     C211463   7.835   7.146   8.814  0.8340 -0.1891 -0.6325
    3TTP     C311464   7.881   7.279   8.841  0.6443 -0.1281 -0.6039
    3TTP     C411465   7.965   7.514   8.888  0.3085 -0.0185 -0.5519
    3TTP    C1711466   7.854   7.482   8.962  0.2330 -0.1187 -0.7072
    3TTP    C1811467   7.808   7.349   8.935  0.4226 -0.1798 -0.7353
    3TTP    C3211468   7.893   7.068   8.684  0.0487  1.2181 -1.4805
    3TTP    C3311469   7.871   7.078   8.531  1.2384 -0.1777 -1.4922
    3TTP    C3411470   7.722   7.026   8.512 -1.2097  0.5539 -0.0273
    3TTP    C3511471   7.716   6.872   8.519 -0.4251 -0.1144 -1.1499
    3TTP    C3611472   7.584   6.797   8.532  0.7054 -0.7178 -0.4467
    3TTP    C3711473   7.483   6.837   8.427 -0.9748  0.3893  0.2390
    3TTP    C3811474   7.345   6.769   8.402 -0.5638  0.4965  0.1984
    3TTP    C3911475   7.335   6.626   8.340 -0.0056  0.3212  0.1697
    3TTP    C4011476   7.318   6.483   8.405 -0.4132  0.1095 -0.6344
    3TTP    C4111477   7.452   6.435   8.483 -0.6254 -0.1876 -1.1368
    3TTP    C4211478   7.584   6.415   8.398  0.5480 -1.7775  0.1746
    4FIC     F111479   7.087   8.554   9.795 -0.2109  0.0310 -0.6075
    4FIC     F211480   7.240   8.743   9.917 -0.0035 -0.5097 -0.0138
    4FIC     O111481   7.439   8.356   9.435 -0.1427  0.1550 -0.6092
    4FIC     N511482   7.709   8.875   9.835  0.3436 -1.1995  0.8380
    4FIC     N611483   7.954   8.682   9.529  0.3549 -0.9933  0.7169
    4FIC    C1911484   7.709   8.467   9.423  0.0798 -0.3178 -0.0427
    4FIC    C2011485   7.615   8.509   9.509  0.0546 -0.3278 -0.0658
    4FIC    C2111486   7.478   8.447   9.509 -0.0616 -0.0761 -0.3648
    4FIC    C2211487   7.401   8.516   9.614 -0.0601 -0.1583 -0.3092
    4FIC    C2311488   7.269   8.493   9.651 -0.1488  0.0048 -0.5186
    4FIC    C2411489   7.217   8.571   9.754 -0.1271 -0.1188 -0.4126
    4FIC    C2511490   7.296   8.669   9.816 -0.0203 -0.3974 -0.1071
    4FIC    C2611491   7.428   8.692   9.780  0.0685 -0.5617  0.1030
    4FIC    C2711492   7.482   8.614   9.676  0.0483 -0.4401  0.0002
    4FIC    C2811493   7.617   8.614   9.614  0.1231 -0.5553  0.1624
    4FIC    C2911494   7.722   8.695   9.648  0.2347 -0.8218  0.4652
    4FIC    C3011495   7.715   8.794   9.751  0.2941 -1.0283  0.6692
    4FIC    C3111496   7.849   8.687   9.582  0.3000 -0.9148  0.6020
    5FIC     F111497   6.955   6.857   9.028 -0.0752  0.2903 -0.8018
    5FIC     F211498   7.053   6.605   9.064 -0.2705  0.2785 -0.3395
    5FIC     O111499   7.408   7.126   8.903  0.2335 -0.1658 -0.6704
    5FIC     N511500   7.516   6.436   9.026 -0.3307 -0.0635  0.4194
    5FIC     N611501   7.850   6.697   8.921 -0.0501 -0.4176  0.4289
    5FIC    C1911502   7.662   6.981   8.893  0.1569 -0.3393 -0.1815
    5FIC    C2011503   7.545   6.923   8.923  0.0869 -0.2239 -0.2329
    5FIC    C2111504   7.418   7.004   8.926  0.1326 -0.1402 -0.4885
    5FIC    C2211505   7.310   6.911   8.962  0.0343 -0.0229 -0.4799
    5FIC    C2311506   7.174   6.940   8.977  0.0345  0.0826 -0.6726
    5FIC    C2411507   7.090   6.835   9.012 -0.0694  0.1827 -0.6199
    5FIC    C2511508   7.141   6.706   9.030 -0.1698  0.1766 -0.3816
    5FIC    C2611509   7.276   6.676   9.015 -0.1707  0.0713 -0.1886
    5FIC    C2711510   7.362   6.781   8.980 -0.0662 -0.0309 -0.2379
    5FIC    C2811511   7.509   6.783   8.957 -0.0379 -0.1547 -0.0772
    5FIC    C2911512   7.595   6.676   8.965 -0.1134 -0.1969  0.1698
    5FIC    C3011513   7.551   6.544   8.999 -0.2325 -0.1236  0.3061
    5FIC    C3111514   7.735   6.688   8.941 -0.0780 -0.3182  0.3107
    1BTD     S211515   1.899   3.482   6.492  0.4098 -0.3429  0.3563
    1BTD     N111516   1.981   3.581   6.366  0.6364 -1.1348 -0.1333
    1BTD     N211517   2.033   3.496   6.611  0.1103  0.5746  0.6020
    1BTD     N311518   2.454   3.703   6.626 -0.0904  1.0141  0.2197
    1BTD     N411519   2.390   3.808   6.324  0.5579 -1.0923 -0.6863
    1BTD     C511520   2.195   3.698   6.348  0.5876 -1.0872 -0.4110
    1BTD     C611521   2.098   3.618   6.417  0.4851 -0.6973 -0.0901
    1BTD     C711522   2.127   3.570   6.554  0.1907  0.2595  0.3214
    1BTD     C811523   2.252   3.606   6.615  0.0134  0.7786  0.3916
    1BTD    C1511524   2.345   3.685   6.544  0.1227  0.3686  0.0683
    1BTD    C1611525   2.316   3.731   6.412  0.4065 -0.5534 -0.3283
    1BTD    C4311526   2.544   3.826   6.301  0.6626  1.9592 -0.6025
    1BTD    C4411527   2.619   3.712   6.220 -0.3371 -0.5223 -0.5136
    1BTD    C4511528   2.571   3.571   6.236 -0.5192  1.1833 -0.6527
    1BTD    C4611529   2.495   3.510   6.121 -0.4044 -0.1737  0.1178
    1BTD    C4711530   2.646   3.787   6.090 -0.4778 -0.6227 -0.3025
    1BTD    C4811531   2.714   3.714   5.968 -0.8821 -0.4227 -2.3332
    1BTD    C4911532   2.687   3.764   5.829  0.1192  0.4206  0.8673
    1BTD    C5011533   2.545   3.764   5.766 -0.8417 -0.4079  0.4257
    1BTD    C7511534   2.547   3.818   6.650  1.4579  0.2561  0.3344
    1BTD    C7611535   2.498   3.950   6.602 -0.3583 -0.1657 -1.7314
    1BTD    C7711536   2.601   4.066   6.563  1.5469  0.6872 -0.3729
    1BTD    C7811537   2.725   4.104   6.635  0.4709 -0.2615 -0.5037
    1BTD    C7911538   2.369   4.018   6.674 -0.4443 -0.2008  0.5562
    1BTD    C8011539   2.340   4.035   6.821 -0.5401  0.7224 -0.6759
    1BTD    C8111540   2.203   4.093   6.849  0.3769 -0.2052 -2.3243
    1BTD    C8211541   2.078   4.060   6.952 -0.5900 -0.7565  0.3837
    2TTP     S111542   2.069   3.829   6.110 -0.0042 -0.0739  0.3570
    2TTP     S511543   2.413   4.083   6.060 -0.0952 -0.0476 -0.1438
    2TTP     C111544   2.282   4.140   5.948 -0.2151 -0.1428 -0.0532
    2TTP     C211545   2.168   4.065   5.957 -0.1940 -0.1564  0.1068
    2TTP     C311546   2.180   3.960   6.053 -0.0824 -0.0924  0.1636
    2TTP     C411547   2.200   3.772   6.223  0.1157  0.0211  0.2662
    2TTP    C1711548   2.314   3.847   6.214  0.0946  0.0348  0.1062
    2TTP    C1811549   2.302   3.952   6.118 -0.0169 -0.0292  0.0496
    2TTP    C3211550   2.036   4.103   5.886  0.8315  0.2830 -1.1653
    2TTP    C3311551   1.957   4.000   5.800  0.1131  1.3353 -0.3349
    2TTP    C3411552   2.040   3.917   5.700  0.9370  0.1575 -0.1688
    2TTP    C3511553   1.969   3.784   5.655  1.0961 -0.1709  2.2143
    2TTP    C3611554   2.058   3.723   5.542  0.8326  0.9711 -0.2927
    2TTP    C3711555   1.964   3.639   5.463  0.7847  0.4656 -0.1352
    2TTP    C3811556   1.939   3.497   5.507 -0.4036  0.7738 -0.8027
    2TTP    C3911557   2.073   3.428   5.516  0.6006 -0.3102 -0.1942
    2TTP    C4011558   2.084   3.278   5.506  0.1927  0.0255 -0.5872
    2TTP    C4111559   2.022   3.187   5.610 -0.6223  1.3118 -0.0674
    2TTP    C4211560   2.051   3.044   5.545  0.5693 -0.0892  0.2112
    3TTP     S111561   2.302   3.464   6.890  0.0975 -0.0164  0.1308
    3TTP     S511562   2.680   3.667   6.929 -0.0194  0.3596 -0.6566
    3TTP     C111563   2.656   3.561   7.074  0.2174  0.6214 -0.4245
    3TTP     C211564   2.538   3.492   7.071  0.2674  0.5208 -0.1676
    3TTP     C311565   2.462   3.521   6.953  0.1206  0.2332 -0.1450
    3TTP     C411566   2.326   3.570   6.744 -0.1393 -0.2784 -0.1013
    3TTP    C1711567   2.444   3.639   6.747 -0.1892 -0.1777 -0.3581
    3TTP    C1811568   2.520   3.611   6.865 -0.0424  0.1100 -0.3809
    3TTP    C3211569   2.484   3.412   7.204 -0.6661  0.4238 -1.5871
    3TTP    C3311570   2.399   3.510   7.293 -0.9140  1.3258 -0.1607
    3TTP    C3411571   2.385   3.450   7.430 -1.0586  0.9269  0.7731
    3TTP    C3511572   2.462   3.464   7.555 -0.2099 -0.0041 -0.9589
    3TTP    C3611573   2.494   3.606   7.590 -0.7721 -0.1172  0.8619
    3TTP    C3711574   2.607   3.677   7.539 -1.4946 -0.3562  0.6532
    3TTP    C3811575   2.606   3.826   7.585 -0.9482 -0.1690  0.6620
    3TTP    C3911576   2.716   3.916   7.517  1.0212  1.8373 -1.4589
    3TTP    C4011577   2.707   3.924   7.371  0.4719 -0.1916  0.7629
    3TTP    C4111578   2.627   4.059   7.346 -0.3105 -0.7310 -0.0316
    3TTP    C4211579   2.565   4.085   7.214  1.1563  0.4681  0.7564
    4FIC     F111580   2.735   4.828   5.872 -0.3624  0.0122  0.0582
    4FIC     F211581   2.613   4.872   5.633  0.1526 -0.5238 -0.3071
    4FIC     O111582   2.485   4.376   6.033 -0.3185  0.0654  0.2762
    4FIC     N511583   2.260   4.612   5.403  0.9242 -1.2566 -0.6768
    4FIC     N611584   2.089   4.250   5.577  0.8546 -1.1069 -0.4326
    4FIC    C1911585   2.280   4.257   5.862  0.1891 -0.4278  0.0049
    4FIC    C2011586   2.348   4.369   5.830  0.1579 -0.4202 -0.0358
    4FIC    C2111587   2.452   4.424   5.924 -0.1094 -0.1588  0.1113
    4FIC    C2211588   2.505   4.545   5.860 -0.0730 -0.2223  0.0209
    4FIC    C2311589   2.604   4.631   5.908 -0.2647 -0.0449  0.1012
    4FIC    C2411590   2.638   4.740   5.830 -0.1832 -0.1518 -0.0125
    4FIC    C2511591   2.576   4.762   5.707  0.0823 -0.4280 -0.2005
    4FIC    C2611592   2.477   4.677   5.657  0.2746 -0.6062 -0.2818
    4FIC    C2711593   2.441   4.566   5.736  0.1957 -0.5019 -0.1689
    4FIC    C2811594   2.342   4.459   5.713  0.3482 -0.6343 -0.2111
    4FIC    C2911595   2.259   4.445   5.603  0.6148 -0.9040 -0.3804
    4FIC    C3011596   2.260   4.537   5.494  0.7840 -1.0968 -0.5429
    4FIC    C3111597   2.166   4.338   5.590  0.7452 -1.0140 -0.4083
    5FIC     F111598   3.351   3.924   7.290 -0.0061 -0.0431  0.2948
    5FIC     F211599   3.404   3.708   7.447 -0.2733  0.1690  0.6810
    5FIC     O111600   2.858   3.796   7.106  0.3833 -0.3786 -0.5257
    5FIC     N511601   3.130   3.307   7.542 -0.3796  0.2347  0.6516
    5FIC     N611602   2.734   3.251   7.366 -0.0215 -0.0702 -0.0674
    5FIC    C1911603   2.734   3.545   7.191  0.2665 -0.2952 -0.4481
    5FIC    C2011604   2.856   3.585   7.231  0.1789 -0.2191 -0.2569
    5FIC    C2111605   2.913   3.716   7.183  0.2472 -0.2688 -0.3119
    5FIC    C2211606   3.046   3.729   7.245  0.1215 -0.1621 -0.0631
    5FIC    C2311607   3.136   3.833   7.231  0.1292 -0.1623 -0.0169
    5FIC    C2411608   3.256   3.824   7.300 -0.0055 -0.0495  0.2352
    5FIC    C2511609   3.284   3.712   7.381 -0.1430  0.0596  0.4340
    5FIC    C2611610   3.194   3.608   7.396 -0.1514  0.0605  0.3893
    5FIC    C2711611   3.072   3.616   7.327 -0.0163 -0.0528  0.1352
    5FIC    C2811612   2.956   3.523   7.321  0.0135 -0.0834  0.0241
    5FIC    C2911613   2.944   3.403   7.386 -0.0920 -0.0017  0.1563
    5FIC    C3011614   3.047   3.350   7.471 -0.2498  0.1280  0.4281
    5FIC    C3111615   2.829   3.320   7.375 -0.0526 -0.0399  0.0324
    1BTD     S211616   3.567   6.681   5.361  0.0286 -0.4349 -0.1628
    1BTD     N111617   3.479   6.703   5.206 -0.0288 -1.5053 -0.2973
    1BTD     N211618   3.419   6.665   5.460  0.0556  0.8272  0.1198
    1BTD     N311619   2.955   6.671   5.384  0.0066  1.4666  0.4530
    1BTD     N411620   3.030   6.718   5.070 -0.0973 -1.4075 -0.0608
    1BTD     C511621   3.243   6.711   5.139 -0.0633 -1.4198 -0.1676
    1BTD     C611622   3.350   6.697   5.235 -0.0252 -0.8981 -0.1330
    1BTD     C711623   3.316   6.676   5.377  0.0221  0.4076  0.1004
    1BTD     C811624   3.178   6.668   5.417  0.0287  1.1264  0.2875
    1BTD    C1511625   3.077   6.682   5.319 -0.0096  0.5773  0.2454
    1BTD    C1611626   3.109   6.703   5.182 -0.0551 -0.6811  0.0207
    1BTD    C4311627   2.883   6.748   5.062  0.2452 -0.2585  0.1554
    1BTD    C4411628   2.827   6.876   4.986 -1.9292 -0.1825  0.0432
    1BTD    C4511629   2.678   6.907   5.005  0.6325  0.6030 -0.4025
    1BTD    C4611630   2.599   6.986   5.114 -0.2902  1.2752  0.3596
    1BTD    C4711631   2.927   6.997   4.988 -0.1223  0.3526 -0.2492
    1BTD    C4811632   2.902   7.119   4.907 -0.8958 -1.6145  0.5026
    1BTD    C4911633   2.919   7.096   4.752 -0.8269 -0.2916  0.9748
    1BTD    C5011634   2.942   7.231   4.670 -0.5200 -0.0538  0.3255
    1BTD    C7511635   2.833   6.591   5.333 -0.7896  0.0972  0.4593
    1BTD    C7611636   2.689   6.606   5.383 -0.2465  0.9583  1.1447
    1BTD    C7711637   2.659   6.751   5.364 -1.0982 -0.2316 -0.1732
    1BTD    C7811638   2.516   6.798   5.414  0.0776  0.1897  0.2144
    1BTD    C7911639   2.600   6.516   5.300 -0.6237 -0.8871  0.3470
    1BTD    C8011640   2.576   6.366   5.312 -0.2447  1.1060 -0.9374
    1BTD    C8111641   2.549   6.295   5.439 -0.7517 -0.8094 -0.7190
    1BTD    C8211642   2.494   6.380   5.564 -0.9314  0.0157  1.6521
    2TTP     S111643   3.347   6.756   4.851  0.0865 -0.1615  0.0088
    2TTP     S511644   2.943   6.725   4.708  0.2544 -1.3002 -0.2377
    2TTP     C111645   3.053   6.751   4.566  0.2185 -0.4555 -0.1230
    2TTP     C211646   3.184   6.762   4.601  0.1645 -0.0540 -0.0401
    2TTP     C311647   3.203   6.751   4.743  0.1496 -0.3991 -0.0641
    2TTP     C411648   3.237   6.731   4.994  0.1225 -1.0062 -0.1061
    2TTP    C1711649   3.106   6.720   4.958  0.1764 -1.4077 -0.1889
    2TTP    C1811650   3.087   6.731   4.817  0.1914 -1.0626 -0.1646
    2TTP    C3211651   3.282   6.839   4.519  0.5531 -0.9691  1.5900
    2TTP    C3311652   3.325   6.980   4.577 -0.8713 -1.3633  0.7416
    2TTP    C3411653   3.466   7.039   4.525  0.6586  0.2014  0.9074
    2TTP    C3511654   3.514   7.181   4.560 -0.3082  0.4482  0.7191
    2TTP    C3611655   3.582   7.187   4.694  0.9443  0.7449  0.2488
    2TTP    C3711656   3.707   7.106   4.706  0.0480  1.2023  0.2337
    2TTP    C3811657   3.800   7.146   4.832  0.3222  0.2139  0.8954
    2TTP    C3911658   3.858   7.286   4.811 -0.1403 -0.8368 -1.3460
    2TTP    C4011659   3.793   7.414   4.847 -0.6867  0.1658  0.8693
    2TTP    C4111660   3.690   7.398   4.957  0.3439  0.3541  0.2269
    2TTP    C4211661   3.582   7.499   4.956 -0.1610 -0.4486 -0.1740
    3TTP     S111662   3.151   6.692   5.712  0.1031  0.0721 -0.1662
    3TTP     S511663   2.722   6.697   5.681  0.0771 -0.7390  0.0292
    3TTP     C111664   2.768   6.721   5.855  0.1106 -0.6620  0.0099
    3TTP     C211665   2.903   6.721   5.875  0.1206 -0.4070 -0.0516
    3TTP     C311666   2.976   6.702   5.754  0.1022 -0.2632 -0.0857
    3TTP     C411667   3.106   6.668   5.538  0.0696 -0.0049 -0.1469
    3TTP    C1711668   2.971   6.668   5.518  0.0596 -0.2598 -0.0854
    3TTP    C1811669   2.898   6.687   5.640  0.0781 -0.4036 -0.0513
    3TTP    C3211670   2.981   6.744   6.011 -0.4226 -0.4806  1.1621
    3TTP    C3311671   2.968   6.638   6.114 -0.1103 -1.3280 -1.0841
    3TTP    C3411672   3.036   6.642   6.268 -0.0585  0.5372  1.8076
    3TTP    C3511673   3.085   6.785   6.310 -1.4750 -0.4870  0.4476
    3TTP    C3611674   3.241   6.805   6.263  1.5155 -0.1426 -0.3246
    3TTP    C3711675   3.318   6.931   6.293 -0.6364  0.5655 -0.1632
    3TTP    C3811676   3.462   6.949   6.226 -1.2008 -0.2592  0.4647
    3TTP    C3911677   3.494   6.894   6.084 -0.0551  0.8118 -0.3107
    3TTP    C4011678   3.416   6.972   5.964  0.0551  1.5665 -0.6950
    3TTP    C4111679   3.277   7.058   5.976 -0.2490  0.5887 -0.2419
    3TTP    C4211680   3.156   7.001   5.890  0.5688 -0.2814 -0.2818
    4FIC     F111681   2.387   7.028   4.169  0.3917  0.3618 -0.3756
    4FIC     F211682   2.464   6.878   3.956  0.1509  0.0242 -0.2259
    4FIC     O111683   2.795   6.934   4.513  0.3147  0.1684 -0.3371
    4FIC     N511684   2.865   6.594   3.894 -0.2502 -0.5991  0.0166
    4FIC     N611685   3.167   6.550   4.206 -0.2617 -0.6822  0.0166
    4FIC    C1911686   3.013   6.757   4.431  0.0574 -0.2227 -0.1806
    4FIC    C2011687   2.907   6.786   4.353  0.0861 -0.1609 -0.1960
    4FIC    C2111688   2.799   6.878   4.402  0.2208  0.0423 -0.2781
    4FIC    C2211689   2.700   6.889   4.293  0.2184  0.0614 -0.2742
    4FIC    C2311690   2.583   6.963   4.292  0.3206  0.2236 -0.3357
    4FIC    C2411691   2.505   6.957   4.177  0.2950  0.2069 -0.3177
    4FIC    C2511692   2.545   6.880   4.067  0.1709  0.0328 -0.2405
    4FIC    C2611693   2.662   6.805   4.068  0.0685 -0.1297 -0.1791
    4FIC    C2711694   2.742   6.810   4.183  0.0924 -0.1156 -0.1961
    4FIC    C2811695   2.871   6.744   4.216  0.0063 -0.2592 -0.1450
    4FIC    C2911696   2.942   6.659   4.134 -0.1230 -0.4472 -0.0654
    4FIC    C3011697   2.899   6.624   4.002 -0.1925 -0.5301 -0.0206
    4FIC    C3111698   3.066   6.600   4.174 -0.1985 -0.5753 -0.0207
    5FIC     F111699   1.977   6.586   5.938  0.0041 -0.1975  0.3786
    5FIC     F211700   1.962   6.799   6.107 -0.0225  0.4374 -0.4081
    5FIC     O111701   2.507   6.579   5.829  0.0390 -0.6757  0.5772
    5FIC     N511702   2.319   7.099   6.273 -0.0359  1.0096 -1.3978
    5FIC     N611703   2.736   7.050   6.154 -0.0033  0.5078 -1.0841
    5FIC    C1911704   2.681   6.779   5.952  0.0260 -0.2389 -0.1041
    5FIC    C2011705   2.548   6.773   5.973  0.0183 -0.1433 -0.1231
    5FIC    C2111706   2.465   6.667   5.906  0.0257 -0.3823  0.2398
    5FIC    C2211707   2.326   6.688   5.950  0.0142 -0.1993  0.1155
    5FIC    C2311708   2.214   6.615   5.915  0.0159 -0.3171  0.3492
    5FIC    C2411709   2.092   6.654   5.969  0.0033 -0.0974  0.1651
    5FIC    C2511710   2.085   6.764   6.056 -0.0105  0.2296 -0.2403
    5FIC    C2611711   2.197   6.838   6.092 -0.0122  0.3489 -0.4752
    5FIC    C2711712   2.321   6.799   6.038  0.0004  0.1301 -0.2941
    5FIC    C2811713   2.457   6.855   6.056  0.0024  0.1774 -0.4569
    5FIC    C2911714   2.491   6.963   6.134 -0.0085  0.4638 -0.8432
    5FIC    C3011715   2.396   7.037   6.210 -0.0235  0.7628 -1.1469
    5FIC    C3111716   2.626   7.010   6.144 -0.0055  0.4865 -0.9736
    1BTD     S211717   5.993   7.726   6.600  0.1728 -0.0892 -0.0412
    1BTD     N111718   5.979   7.572   6.692 -0.0054 -0.1107 -0.1051
    1BTD     N211719   6.035   7.645   6.444  0.0572 -0.0737 -0.0802
    1BTD     N311720   6.092   7.204   6.294 -0.5003 -0.0818 -0.2750
    1BTD     N411721   6.023   7.114   6.600 -0.5772 -0.1276 -0.3058
    1BTD     C511722   6.003   7.334   6.640 -0.3028 -0.1191 -0.2097
    1BTD     C611723   6.004   7.474   6.607 -0.1351 -0.1057 -0.1500
    1BTD     C711724   6.035   7.515   6.468 -0.1003 -0.0851 -0.1359
    1BTD     C811725   6.064   7.414   6.370 -0.2348 -0.0783 -0.1823
    1BTD    C1511726   6.061   7.278   6.407 -0.3972 -0.0919 -0.2401
    1BTD    C1611727   6.031   7.239   6.541 -0.4309 -0.1119 -0.2535
    1BTD    C4311728   5.957   7.007   6.539  0.8783  1.0434  0.6552
    1BTD    C4411729   5.954   6.858   6.580 -0.4659 -0.4273  0.5647
    1BTD    C4511730   6.084   6.804   6.530 -0.0428  0.6245  0.0282
    1BTD    C4611731   6.128   6.654   6.547  0.7908  0.1027 -0.7607
    1BTD    C4711732   5.849   6.779   6.492  0.7041  1.1283 -0.6170
    1BTD    C4811733   5.701   6.786   6.537 -0.0362 -0.2005 -0.9222
    1BTD    C4911734   5.650   6.793   6.685 -0.4812  0.8643  0.0577
    1BTD    C5011735   5.511   6.755   6.700  0.7016 -0.6181  1.4175
    1BTD    C7511736   6.130   7.061   6.271  0.4073 -1.0644 -0.2825
    1BTD    C7611737   6.281   7.042   6.297  0.8905  0.3002  0.1172
    1BTD    C7711738   6.297   6.900   6.231  0.3582  0.0701 -0.6801
    1BTD    C7811739   6.319   6.887   6.081  0.1307 -0.7303  1.0227
    1BTD    C7911740   6.341   7.064   6.435 -0.2627  0.7917  0.6838
    1BTD    C8011741   6.401   7.190   6.457  0.8510 -1.2904  0.6691
    1BTD    C8111742   6.452   7.213   6.602 -0.1011  0.3256  0.4625
    1BTD    C8211743   6.580   7.161   6.653 -1.1956 -0.6441  1.1192
    2TTP     S111744   5.939   7.316   6.936 -0.8578 -0.3328 -0.3695
    2TTP     S511745   6.048   6.901   6.913  0.7352  0.0246  0.4185
    2TTP     C111746   6.006   6.941   7.086  0.1219  0.0864  0.2620
    2TTP     C211747   5.970   7.071   7.103 -0.4060 -0.0205  0.0095
    2TTP     C311748   5.974   7.145   6.980 -0.3456 -0.1547 -0.0696
    2TTP     C411749   5.981   7.277   6.763 -0.2446 -0.3945 -0.2130
    2TTP    C1711750   6.017   7.146   6.746  0.2836 -0.2877  0.0394
    2TTP    C1811751   6.013   7.073   6.868  0.2229 -0.1532  0.1186
    2TTP    C3211752   5.929   7.132   7.236 -0.5706 -1.5093  1.1254
    2TTP    C3311753   5.788   7.168   7.243  0.3030 -0.3316  0.4821
    2TTP    C3411754   5.680   7.078   7.187 -0.3074 -0.3314  0.0775
    2TTP    C3511755   5.595   7.163   7.081 -0.5026 -0.8709 -1.0458
    2TTP    C3611756   5.495   7.080   7.021 -0.0896 -0.6642 -0.7293
    2TTP    C3711757   5.482   7.134   6.888 -0.0100  0.5709  1.0799
    2TTP    C3811758   5.330   7.142   6.845 -0.1612  0.3619  1.1694
    2TTP    C3911759   5.246   7.183   6.732  0.9743 -1.0329 -1.1350
    2TTP    C4011760   5.299   7.158   6.590  0.1316 -0.2323  0.1692
    2TTP    C4111761   5.197   7.199   6.481 -1.4535 -0.6332  0.9113
    2TTP    C4211762   5.241   7.222   6.332 -0.1403 -1.0994 -0.3704
    3TTP     S111763   6.120   7.540   6.101 -0.3921 -0.2871 -0.0189
    3TTP     S511764   6.140   7.144   5.935  0.7461 -0.3384  0.2276
    3TTP     C111765   6.154   7.264   5.800  0.8949 -0.3824  0.2033
    3TTP     C211766   6.149   7.394   5.843  0.5521 -0.3690  0.1258
    3TTP     C311767   6.133   7.402   5.985  0.1596 -0.3237  0.0827
    3TTP     C411768   6.106   7.419   6.237 -0.5409 -0.2432  0.0052
    3TTP    C1711769   6.112   7.290   6.194 -0.1982 -0.2566  0.0828
    3TTP    C1811770   6.127   7.281   6.052  0.1943 -0.3018  0.1260
    3TTP    C3211771   6.141   7.531   5.786  0.0706 -1.0176 -0.3730
    3TTP    C3311772   5.994   7.588   5.784 -0.2505 -0.1738  0.4205
    3TTP    C3411773   6.000   7.732   5.832  0.8237 -0.7393  0.0390
    3TTP    C3511774   6.024   7.861   5.750 -0.2173 -0.4635 -0.6040
    3TTP    C3611775   5.938   7.847   5.620 -0.8562 -0.6816  0.3696
    3TTP    C3711776   5.955   7.963   5.512 -0.5896 -0.0608  1.2385
    3TTP    C3811777   6.100   8.008   5.496  0.2420 -0.3474 -0.3547
    3TTP    C3911778   6.146   8.148   5.531  1.1123 -0.4093  0.1187
    3TTP    C4011779   6.279   8.190   5.504 -1.2994 -0.7096 -0.5258
    3TTP    C4111780   6.299   8.315   5.420  0.2363  0.8585 -0.3652
    3TTP    C4211781   6.447   8.356   5.379  0.8378  0.7836  1.0225
    4FIC     F111782   6.387   6.229   7.178  0.2257  0.3616 -0.0918
    4FIC     F211783   6.207   6.167   7.373 -0.1904 -0.0399 -0.5955
    4FIC     O111784   6.230   6.731   7.049  0.1183  0.3984  0.1817
    4FIC     N511785   5.837   6.436   7.562 -0.8651 -0.5906 -1.1251
    4FIC     N611786   5.750   6.841   7.421 -0.8653 -0.4809 -0.8099
    4FIC    C1911787   6.002   6.850   7.189 -0.3174  0.0281 -0.2027
    4FIC    C2011788   6.049   6.726   7.214 -0.2741  0.0345 -0.2518
    4FIC    C2111789   6.166   6.672   7.138 -0.0459  0.2307 -0.0441
    4FIC    C2211790   6.190   6.536   7.190 -0.0566  0.1838 -0.1618
    4FIC    C2311791   6.289   6.446   7.149  0.1142  0.3175 -0.0446
    4FIC    C2411792   6.292   6.323   7.213  0.0645  0.2379 -0.1953
    4FIC    C2511793   6.200   6.291   7.313 -0.1501  0.0311 -0.4549
    4FIC    C2611794   6.101   6.380   7.354 -0.3213 -0.1030 -0.5728
    4FIC    C2711795   6.096   6.506   7.291 -0.2739 -0.0254 -0.4236
    4FIC    C2811796   6.005   6.621   7.310 -0.4162 -0.1254 -0.4892
    4FIC    C2911797   5.901   6.630   7.399 -0.6375 -0.3276 -0.7248
    4FIC    C3011798   5.866   6.523   7.488 -0.7619 -0.4714 -0.9440
    4FIC    C3111799   5.819   6.746   7.411 -0.7615 -0.4107 -0.7702
    5FIC     F111800   6.438   6.608   5.373  0.5596  0.2904 -0.1694
    5FIC     F211801   6.445   6.767   5.153 -0.6596  0.0538 -0.3943
    5FIC     O111802   6.255   6.958   5.744  0.8079  0.2006  0.0383
    5FIC     N511803   6.325   7.244   5.099 -2.2355 -0.3510 -0.5695
    5FIC     N611804   6.181   7.485   5.434 -1.7958 -0.3730 -0.3618
    5FIC    C1911805   6.197   7.234   5.665 -0.2688 -0.0573 -0.1027
    5FIC    C2011806   6.242   7.139   5.580 -0.2835 -0.0256 -0.1463
    5FIC    C2111807   6.270   7.000   5.629  0.2893  0.1092 -0.0682
    5FIC    C2211808   6.318   6.924   5.512  0.1118  0.1106 -0.1429
    5FIC    C2311809   6.356   6.790   5.507  0.4872  0.2141 -0.1097
    5FIC    C2411810   6.399   6.740   5.385  0.2152  0.1922 -0.1963
    5FIC    C2511811   6.402   6.822   5.271 -0.4131  0.0700 -0.3119
    5FIC    C2611812   6.364   6.956   5.275 -0.7904 -0.0337 -0.3457
    5FIC    C2711813   6.321   7.008   5.398 -0.5232 -0.0134 -0.2594
    5FIC    C2811814   6.275   7.144   5.436 -0.7912 -0.1019 -0.2660
    5FIC    C2911815   6.264   7.253   5.352 -1.3945 -0.2300 -0.3643
    5FIC    C3011816   6.298   7.248   5.213 -1.8548 -0.2960 -0.4770
    5FIC    C3111817   6.218   7.380   5.397 -1.6118 -0.3080 -0.3624
    1BTD     S211818   3.205   0.029   4.421  0.7491 -0.1388 -0.1298
    1BTD     N111819   3.098   0.144   4.509  0.1466 -0.5083 -0.3654
    1BTD     N211820   3.223  -0.084   4.560  1.1490  0.1187  0.0287
    1BTD     N311821   3.068  -0.104   5.003  0.8759 -0.0231 -0.0733
    1BTD     N411822   2.914   0.176   4.939 -0.3595 -0.7961 -0.5590
    1BTD     C511823   3.004   0.157   4.734 -0.1028 -0.6492 -0.4604
    1BTD     C611824   3.082   0.095   4.631  0.2681 -0.4249 -0.3163
    1BTD     C711825   3.152  -0.032   4.660  0.8293 -0.0739 -0.0956
    1BTD     C811826   3.140  -0.091   4.790  0.9915  0.0355 -0.0303
    1BTD    C1511827   3.062  -0.027   4.888  0.6146 -0.1931 -0.1771
    1BTD    C1611828   2.995   0.096   4.861  0.0738 -0.5313 -0.3896
    1BTD    C4311829   2.948   0.229   5.073 -0.5989 -0.1855 -0.7465
    1BTD    C4411830   2.831   0.259   5.178 -0.6840  1.0833 -0.7488
    1BTD    C4511831   2.899   0.279   5.314  0.8768 -0.4492 -0.2446
    1BTD    C4611832   2.930   0.430   5.364 -1.4446 -0.3821  1.2634
    1BTD    C4711833   2.735   0.145   5.193 -0.1011  1.9812  0.6584
    1BTD    C4811834   2.601   0.124   5.252 -0.1431 -0.5426  0.1450
    1BTD    C4911835   2.547   0.257   5.275  0.8925 -0.3650 -0.8965
    1BTD    C5011836   2.419   0.243   5.361 -0.2324 -0.6871 -0.7853
    1BTD    C7511837   3.000  -0.091   5.134  0.2228  1.2312  0.0718
    1BTD    C7611838   3.062  -0.074   5.277  0.5488 -0.8273 -1.3743
    1BTD    C7711839   3.194  -0.005   5.288 -0.8740 -0.2402 -0.4685
    1BTD    C7811840   3.225   0.114   5.386 -0.0021 -0.6542  0.2484
    1BTD    C7911841   2.950  -0.060   5.385  1.6868 -0.7531  0.2813
    1BTD    C8011842   2.830  -0.169   5.389 -0.8735  1.0464  0.0315
    1BTD    C8111843   2.866  -0.315   5.405  1.4844 -0.8247  0.0784
    1BTD    C8211844   2.889  -0.388   5.280  0.7489 -0.6783  0.7118
    2TTP     S111845   2.876   0.408   4.621 -0.0442 -0.2477  0.1253
    2TTP     S511846   2.697   0.480   5.006  0.7635  0.0753  0.4451
    2TTP     C111847   2.648   0.614   4.893  0.9694  0.2730  0.5899
    2TTP     C211848   2.700   0.600   4.768  0.7321  0.1849  0.4998
    2TTP     C311849   2.781   0.482   4.756  0.3791 -0.0419  0.3129
    2TTP     C411850   2.924   0.273   4.734 -0.2500 -0.4454 -0.0194
    2TTP    C1711851   2.872   0.288   4.859 -0.0128 -0.3573  0.0708
    2TTP    C1811852   2.791   0.405   4.871  0.3402 -0.1305  0.2574
    2TTP    C3211853   2.660   0.667   4.627 -0.6720 -0.7306 -0.4387
    2TTP    C3311854   2.756   0.772   4.558 -0.1058 -0.3692 -0.1605
    2TTP    C3411855   2.669   0.807   4.440  0.3395  0.5062 -0.4415
    2TTP    C3511856   2.721   0.909   4.346  0.1123  0.0069  0.5556
    2TTP    C3611857   2.626   0.983   4.252  0.2200 -0.2347 -2.2374
    2TTP    C3711858   2.697   1.097   4.174  0.8849  0.7420 -1.1745
    2TTP    C3811859   2.809   1.052   4.085  0.6022  0.5362 -0.6379
    2TTP    C3911860   2.862   1.148   3.991 -0.3635  0.5999  0.1936
    2TTP    C4011861   2.950   1.073   3.885 -0.2898  0.8357 -0.6048
    2TTP    C4111862   3.041   0.952   3.950  0.7708  1.5030  0.4818
    2TTP    C4211863   3.140   0.931   3.844  0.4134 -0.3649 -0.0029
    3TTP     S111864   3.331  -0.329   4.817  0.0639  0.5194 -0.1591
    3TTP     S511865   3.232  -0.363   5.234  1.3003 -0.6304  0.0546
    3TTP     C111866   3.362  -0.484   5.195  1.5266 -0.1992 -0.5592
    3TTP     C211867   3.401  -0.480   5.064  1.1581  0.1812 -0.6614
    3TTP     C311868   3.328  -0.382   4.990  0.6838  0.1459 -0.2586
    3TTP     C411869   3.201  -0.208   4.856 -0.1625  0.0885  0.4547
    3TTP    C1711870   3.162  -0.212   4.987  0.2060 -0.2918  0.5569
    3TTP    C1811871   3.235  -0.310   5.061  0.6804 -0.2565  0.1539
    3TTP    C3211872   3.518  -0.563   5.000 -0.1525 -0.8270 -0.1566
    3TTP    C3311873   3.631  -0.484   4.914 -0.3348  0.5001 -0.3012
    3TTP    C3411874   3.752  -0.576   4.905 -1.8775 -0.1133  1.3642
    3TTP    C3511875   3.877  -0.482   4.899 -0.8325 -0.8834  0.3876
    3TTP    C3611876   3.994  -0.549   4.961  0.2009 -0.7520 -0.5662
    3TTP    C3711877   4.076  -0.463   5.044  1.9891  0.6081 -0.8853
    3TTP    C3811878   4.021  -0.393   5.171  0.5292  0.9748 -0.2659
    3TTP    C3911879   3.883  -0.310   5.175 -0.3211  0.3134  0.0495
    3TTP    C4011880   3.833  -0.224   5.284  0.0439 -0.2849 -1.5838
    3TTP    C4111881   3.918  -0.095   5.318 -0.5404 -0.9514  0.0920
    3TTP    C4211882   3.872   0.013   5.427  2.0031  0.3004  0.3799
    4FIC     F111883   2.250   0.873   5.567 -0.1265  0.1010  0.3783
    4FIC     F211884   2.205   1.110   5.443 -0.5060 -0.0197  0.2823
    4FIC     O111885   2.518   0.604   5.181  0.0998  0.2913  0.4030
    4FIC     N511886   2.331   1.261   4.989 -0.8902 -0.0578  0.1618
    4FIC     N611887   2.550   1.004   4.712 -0.6368  0.1152  0.2005
    4FIC    C1911888   2.571   0.736   4.925 -0.1823  0.2435  0.3201
    4FIC    C2011889   2.505   0.795   5.027 -0.2244  0.2003  0.3177
    4FIC    C2111890   2.482   0.720   5.155 -0.0715  0.2288  0.3618
    4FIC    C2211891   2.408   0.812   5.244 -0.1654  0.1682  0.3465
    4FIC    C2311892   2.364   0.788   5.374 -0.0817  0.1686  0.3749
    4FIC    C2411893   2.296   0.890   5.438 -0.1998  0.1046  0.3524
    4FIC    C2511894   2.273   1.012   5.374 -0.3953  0.0424  0.3029
    4FIC    C2611895   2.316   1.037   5.245 -0.4798  0.0417  0.2743
    4FIC    C2711896   2.386   0.935   5.178 -0.3625  0.1060  0.2966
    4FIC    C2811897   2.444   0.929   5.042 -0.4065  0.1232  0.2768
    4FIC    C2911898   2.442   1.029   4.947 -0.5825  0.0767  0.2297
    4FIC    C3011899   2.381   1.157   4.970 -0.7511  0.0029  0.1925
    4FIC    C3111900   2.502   1.015   4.818 -0.6114  0.0981  0.2139
    5FIC     F111901   3.315  -0.576   6.022  0.8185  1.0669  0.1370
    5FIC     F211902   3.478  -0.793   5.998 -0.5257  0.0145  0.2367
    5FIC     O111903   3.275  -0.420   5.505  1.2380  0.6566 -0.0215
    5FIC     N511904   3.684  -0.992   5.594 -2.1592 -1.7905  0.2675
    5FIC     N611905   3.620  -0.827   5.195 -1.5606 -1.8990  0.1236
    5FIC    C1911906   3.416  -0.571   5.298  0.1028 -0.4948  0.0176
    5FIC    C2011907   3.420  -0.602   5.429  0.0497 -0.3502  0.0536
    5FIC    C2111908   3.345  -0.519   5.530  0.6565  0.2506  0.0303
    5FIC    C2211909   3.370  -0.580   5.662  0.4230  0.2594  0.0807
    5FIC    C2311910   3.322  -0.538   5.785  0.8044  0.7226  0.0806
    5FIC    C2411911   3.360  -0.612   5.897  0.4719  0.6277  0.1338
    5FIC    C2511912   3.444  -0.723   5.884 -0.2207  0.0855  0.1852
    5FIC    C2611913   3.493  -0.765   5.761 -0.6043 -0.3784  0.1854
    5FIC    C2711914   3.455  -0.692   5.647 -0.2766 -0.2909  0.1322
    5FIC    C2811915   3.489  -0.710   5.504 -0.5335 -0.6874  0.1174
    5FIC    C2911916   3.569  -0.808   5.450 -1.1870 -1.2574  0.1560
    5FIC    C3011917   3.632  -0.909   5.530 -1.7192 -1.5483  0.2172
    5FIC    C3111918   3.597  -0.818   5.310 -1.3887 -1.6072  0.1380
    1BTD     S211919  10.498   6.587   8.699 -0.1198  0.4220 -0.1296
    1BTD     N111920  10.558   6.553   8.865  0.0916  0.7735 -0.1318
    1BTD     N211921  10.609   6.470   8.619 -0.2904  0.1806 -0.0155
    1BTD     N311922  10.943   6.170   8.757 -0.2563  0.3233  0.2131
    1BTD     N411923  10.880   6.273   9.059  0.2139  1.0537  0.0701
    1BTD     C511924  10.727   6.405   8.963  0.1502  0.9111 -0.0248
    1BTD     C611925  10.653   6.461   8.853  0.0277  0.6968 -0.0515
    1BTD     C711926  10.681   6.414   8.715 -0.1864  0.3648  0.0136
    1BTD     C811927  10.783   6.315   8.694 -0.2670  0.2639  0.1025
    1BTD    C1511928  10.853   6.263   8.805 -0.1413  0.4818  0.1257
    1BTD    C1611929  10.826   6.308   8.938  0.0644  0.8018  0.0626
    1BTD    C4311930  10.934   6.140   9.096  0.4639 -0.6985  0.2870
    1BTD    C4411931  10.883   6.054   9.205  0.5779  0.5796  0.2774
    1BTD    C4511932  10.977   5.924   9.183 -0.9875  0.1517  0.5603
    1BTD    C4611933  10.992   5.813   9.276 -0.0460  0.2169 -1.0687
    1BTD    C4711934  10.728   6.014   9.232  0.2564 -0.3429  0.2033
    1BTD    C4811935  10.660   5.913   9.144  1.0371 -0.5088  0.9038
    1BTD    C4911936  10.697   5.932   8.993  0.3644 -0.1974 -0.5013
    1BTD    C5011937  10.595   5.838   8.922 -1.1117 -0.4163 -0.7276
    1BTD    C7511938  11.055   6.110   8.814 -0.9465  0.4753 -0.2998
    1BTD    C7611939  11.197   6.160   8.794  1.0502 -1.6094 -0.8015
    1BTD    C7711940  11.291   6.038   8.783 -0.6569 -0.6427  0.2167
    1BTD    C7811941  11.328   5.963   8.909 -0.5461  1.0408  0.3483
    1BTD    C7911942  11.227   6.281   8.900 -0.7807  0.1053  0.3708
    1BTD    C8011943  11.364   6.352   8.867  0.9991  0.1940 -0.4720
    1BTD    C8111944  11.405   6.465   8.972  1.1192  0.3589 -0.9628
    1BTD    C8211945  11.550   6.510   8.966  0.2856 -0.8011 -0.0170
    2TTP     S111946  10.693   6.599   9.188 -0.1889  0.1330  0.2686
    2TTP     S511947  10.998   6.373   9.388 -0.0210 -0.1551 -0.3080
    2TTP     C111948  10.969   6.526   9.482 -0.2450 -0.4823  0.1707
    2TTP     C211949  10.873   6.605   9.425 -0.3102 -0.4125  0.3769
    2TTP     C311950  10.819   6.547   9.306 -0.1853 -0.0981  0.1643
    2TTP     C411951  10.721   6.446   9.095  0.0350  0.4604 -0.2103
    2TTP    C1711952  10.817   6.367   9.151  0.1000  0.3904 -0.4166
    2TTP    C1811953  10.872   6.424   9.270 -0.0246  0.0762 -0.2038
    2TTP    C3211954  10.784   6.723   9.478 -0.3046  0.1644 -2.1147
    2TTP    C3311955  10.810   6.877   9.467 -0.7140  0.0367  1.1825
    2TTP    C3411956  10.932   6.932   9.523 -0.9009 -0.1077  0.6506
    2TTP    C3511957  10.925   7.083   9.590  0.2957  1.1204  0.7632
    2TTP    C3611958  10.962   7.111   9.724 -0.9550 -0.3336  0.3932
    2TTP    C3711959  11.096   7.043   9.736  0.0563 -1.1286 -0.7076
    2TTP    C3811960  11.171   7.066   9.877 -0.9962  0.4647  0.4458
    2TTP    C3911961  11.282   7.183   9.884  1.9935  0.0064  0.1016
    2TTP    C4011962  11.344   7.213  10.014 -0.4731 -0.6924 -0.4647
    2TTP    C4111963  11.470   7.298   9.991  0.7288 -0.3987  0.9053
    2TTP    C4211964  11.535   7.300  10.137  0.7960 -0.1033  1.6115
    3TTP     S111965  10.739   6.193   8.421 -0.0248 -0.1173  0.4937
    3TTP     S511966  10.980   5.858   8.542 -0.0820 -0.1650  0.4764
    3TTP     C111967  10.890   5.813   8.391 -0.3456 -0.2588  0.6588
    3TTP     C211968  10.810   5.914   8.344 -0.3436 -0.2497  0.6747
    3TTP     C311969  10.818   6.030   8.427 -0.1335 -0.1680  0.5436
    3TTP     C411970  10.829   6.238   8.573  0.2389 -0.0235  0.3114
    3TTP    C1711971  10.909   6.137   8.619  0.2367 -0.0326  0.2952
    3TTP    C1811972  10.902   6.020   8.537  0.0269 -0.1140  0.4265
    3TTP    C3211973  10.740   5.937   8.205  0.3516 -0.3214  0.8548
    3TTP    C3311974  10.810   5.995   8.087 -1.2747 -1.5809  0.4361
    3TTP    C3411975  10.945   5.922   8.056 -0.0088 -0.8294  0.0347
    3TTP    C3511976  10.951   5.863   7.917 -0.3029  0.0063 -0.8563
    3TTP    C3611977  11.048   5.741   7.892  0.0381  0.0024 -0.7533
    3TTP    C3711978  11.201   5.759   7.878 -0.3222  0.3287 -0.8233
    3TTP    C3811979  11.263   5.734   8.018 -0.0161 -0.0467 -0.0651
    3TTP    C3911980  11.393   5.805   8.040  0.3859 -0.6714  1.2605
    3TTP    C4011981  11.418   5.955   8.016 -0.0655  0.1611 -1.4959
    3TTP    C4111982  11.489   6.025   8.143  0.4406  0.4088  0.8168
    3TTP    C4211983  11.542   6.162   8.112  0.1046  0.5330 -1.2525
    4FIC     F111984  11.541   6.194   9.966 -0.0269  0.1377  0.8907
    4FIC     F211985  11.437   6.336  10.174 -0.5207  0.0906  0.6814
    4FIC     O111986  11.230   6.370   9.559  0.2975 -0.4876  0.3698
    4FIC     N511987  11.068   6.665  10.183 -0.9997 -0.4226  0.0088
    4FIC     N611988  10.846   6.774   9.823 -0.6466 -0.9018 -0.3562
    4FIC    C1911989  11.022   6.568   9.613 -0.0591 -0.7547 -0.0157
    4FIC    C2011990  11.104   6.518   9.707 -0.1216 -0.5956  0.1240
    4FIC    C2111991  11.209   6.417   9.672  0.0725 -0.4652  0.3185
    4FIC    C2211992  11.280   6.384   9.797 -0.0575 -0.3073  0.4342
    4FIC    C2311993  11.385   6.295   9.814  0.0451 -0.1514  0.6239
    4FIC    C2411994  11.436   6.281   9.942 -0.1154 -0.0199  0.7038
    4FIC    C2511995  11.383   6.354  10.049 -0.3697 -0.0442  0.5954
    4FIC    C2611996  11.278   6.443  10.033 -0.4733 -0.1994  0.4058
    4FIC    C2711997  11.225   6.459   9.904 -0.3140 -0.3341  0.3228
    4FIC    C2811998  11.114   6.544   9.853 -0.3629 -0.5122  0.1278
    4FIC    C2911999  11.037   6.630   9.927 -0.5898 -0.5859 -0.0207
    4FIC    C3012000  11.054   6.649  10.068 -0.8142 -0.4959 -0.0041
    4FIC    C3112001  10.933   6.709   9.869 -0.6196 -0.7591 -0.2043
    5FIC     F112002  11.481   5.262   8.252 -0.5233 -0.0827  0.7634
    5FIC     F212003  11.299   5.108   8.122 -0.0043  0.4768 -0.6740
    5FIC     O112004  11.180   5.693   8.379 -0.9239 -0.4362  1.0178
    5FIC     N512005  10.821   5.193   8.026  0.4561  1.0290 -2.5599
    5FIC     N612006  10.622   5.561   8.151  0.0386  0.6400 -2.0711
    5FIC    C1912007  10.898   5.699   8.300 -0.5705 -0.0273 -0.2654
    5FIC    C2012008  10.981   5.597   8.273 -0.4900  0.0398 -0.2730
    5FIC    C2112009  11.125   5.601   8.317 -0.6838 -0.1824  0.4089
    5FIC    C2212010  11.186   5.475   8.272 -0.5312 -0.0385  0.2093
    5FIC    C2312011  11.318   5.433   8.289 -0.6256 -0.1576  0.6609
    5FIC    C2412012  11.353   5.309   8.238 -0.4437  0.0210  0.3486
    5FIC    C2512013  11.258   5.230   8.171 -0.1764  0.3091 -0.3923
    5FIC    C2612014  11.127   5.271   8.153 -0.0811  0.4292 -0.8454
    5FIC    C2712015  11.090   5.396   8.205 -0.2623  0.2519 -0.5393
    5FIC    C2812016  10.960   5.468   8.203 -0.2263  0.3114 -0.8655
    5FIC    C2912017  10.842   5.423   8.146  0.0072  0.5692 -1.5798
    5FIC    C3012018  10.831   5.297   8.080  0.2527  0.8211 -2.1160
    5FIC    C3112019  10.722   5.499   8.149  0.0231  0.6067 -1.8461
    1BTD     S212020  10.106   3.368   8.556  0.1067  0.1441 -0.1228
    1BTD     N112021  10.179   3.253   8.673  0.5250  0.4520 -0.0761
    1BTD     N212022  10.093   3.248   8.423 -0.2422 -0.1706  0.1934
    1BTD     N312023  10.198   2.794   8.365 -0.1976 -0.2565  0.9227
    1BTD     N412024  10.303   2.800   8.673  0.7477  0.5108  0.5908
    1BTD     C512025  10.243   3.017   8.669  0.6297  0.4735  0.2761
    1BTD     C612026  10.189   3.137   8.611  0.3898  0.3116  0.1607
    1BTD     C712027  10.141   3.134   8.471 -0.0391 -0.0370  0.3116
    1BTD     C812028  10.149   3.011   8.396 -0.2074 -0.2062  0.5701
    1BTD    C1512029  10.202   2.896   8.458  0.0387 -0.0378  0.6752
    1BTD    C1612030  10.248   2.899   8.593  0.4523  0.2980  0.5300
    1BTD    C4312031  10.280   2.655   8.675  0.4635 -0.5666  0.4087
    1BTD    C4412032  10.148   2.582   8.717 -0.2334  0.1785 -0.0363
    1BTD    C4512033  10.014   2.644   8.700  0.8353  0.3605  0.7991
    1BTD    C4612034   9.975   2.759   8.801  0.8548  0.8398  0.6623
    1BTD    C4712035  10.139   2.437   8.705 -0.5289 -0.0768  0.8342
    1BTD    C4812036  10.137   2.368   8.846 -0.0340  0.3100  0.1163
    1BTD    C4912037  10.251   2.389   8.927  1.2491 -0.7840 -0.7272
    1BTD    C5012038  10.362   2.290   8.895  0.3170  0.2548  0.9539
    1BTD    C7512039  10.268   2.661   8.379  0.0221  0.1510  0.5394
    1BTD    C7612040  10.236   2.533   8.301 -0.0405  0.7839  0.0673
    1BTD    C7712041  10.102   2.472   8.333  0.7605  0.3851  0.7800
    1BTD    C7812042   9.966   2.543   8.290 -0.1084  0.9377  0.4961
    1BTD    C7912043  10.341   2.430   8.367  1.1736 -0.0916  0.1998
    1BTD    C8012044  10.484   2.454   8.337 -0.1946  0.3175 -0.4331
    1BTD    C8112045  10.560   2.377   8.455 -0.2420 -0.7459  0.8621
    1BTD    C8212046  10.560   2.229   8.480 -0.6089 -0.9980 -0.6525
    2TTP     S112047  10.331   3.065   8.965 -0.3760  0.1042  0.0745
    2TTP     S512048  10.496   2.668   8.954  1.6100  0.9362 -1.1787
    2TTP     C112049  10.542   2.745   9.112  1.8336  0.9213 -1.2362
    2TTP     C212050  10.494   2.872   9.125  1.2333  0.6635 -0.8526
    2TTP     C312051  10.419   2.913   9.010  0.5753  0.4684 -0.4995
    2TTP     C412052  10.285   2.987   8.807 -0.5996  0.1190  0.1316
    2TTP    C1712053  10.333   2.860   8.794  0.0008  0.3768 -0.2515
    2TTP    C1812054  10.408   2.819   8.909  0.6588  0.5719 -0.6046
    2TTP    C3212055  10.526   2.981   9.240 -0.7231  0.2673  0.5875
    2TTP    C3312056  10.434   3.000   9.362  0.7902  0.4151 -0.2329
    2TTP    C3412057  10.411   3.144   9.427 -1.3207  0.2717 -0.1310
    2TTP    C3512058  10.424   3.112   9.578 -0.8172 -1.2379 -0.7412
    2TTP    C3612059  10.419   3.242   9.651 -0.4509  1.4816  0.4083
    2TTP    C3712060  10.504   3.211   9.784 -1.0424 -0.6114  0.4158
    2TTP    C3812061  10.648   3.141   9.781  0.7169 -0.9863  0.6277
    2TTP    C3912062  10.760   3.176   9.697  0.2042  0.5051  0.7246
    2TTP    C4012063  10.863   3.074   9.699  0.2048  0.9160 -0.2663
    2TTP    C4112064  10.981   3.114   9.608 -0.0596 -0.6853 -1.6094
    2TTP    C4212065  11.107   3.055   9.677 -0.1019 -0.1045  0.6357
    3TTP     S112066  10.028   3.041   8.111 -0.2873 -0.3098 -0.1322
    3TTP     S512067  10.186   2.653   8.014  0.6607  0.0443 -0.0319
    3TTP     C112068  10.116   2.726   7.863  0.8618  0.0085 -0.1428
    3TTP     C212069  10.063   2.850   7.884  0.5810 -0.1030 -0.1806
    3TTP     C312070  10.076   2.892   8.020  0.1967 -0.1642 -0.1230
    3TTP     C412071  10.098   2.968   8.262 -0.4885 -0.2742 -0.0212
    3TTP    C1712072  10.151   2.844   8.241 -0.2074 -0.1626  0.0164
    3TTP    C1812073  10.138   2.802   8.105  0.1769 -0.1014 -0.0410
    3TTP    C3212074   9.976   2.927   7.787  0.0420  0.3636 -0.5094
    3TTP    C3312075   9.831   2.883   7.759  1.0898 -0.2989  0.8975
    3TTP    C3412076   9.742   2.934   7.651  0.4139 -1.2413  0.1409
    3TTP    C3512077   9.599   2.893   7.685  0.5614  0.5674 -1.4185
    3TTP    C3612078   9.513   2.951   7.576  0.4239 -0.6015  0.7760
    3TTP    C3712079   9.496   3.104   7.550  1.4370 -0.8273 -0.0427
    3TTP    C3812080   9.532   3.174   7.422 -0.6005  1.8400  0.5263
    3TTP    C3912081   9.443   3.133   7.302  0.1446  0.5706  0.1987
    3TTP    C4012082   9.489   3.121   7.157 -0.9750 -0.0626 -0.1323
    3TTP    C4112083   9.603   3.040   7.115  0.5895  0.3059  0.9225
    3TTP    C4212084   9.597   2.886   7.140  0.8616 -0.4202 -1.0541
    4FIC     F112085  10.545   2.014   9.484 -0.6223  0.2390  0.2198
    4FIC     F212086  10.758   2.096   9.632 -0.2015 -0.2503 -0.1061
    4FIC     O112087  10.444   2.460   9.194 -0.0601  0.4843  0.3979
    4FIC     N512088  10.992   2.532   9.638  0.8047 -0.7790 -0.4475
    4FIC     N612089  10.870   2.864   9.382  1.1585 -0.4887 -0.2422
    4FIC    C1912090  10.611   2.697   9.232  0.5416  0.1040  0.1500
    4FIC    C2012091  10.628   2.581   9.299  0.3839  0.0613  0.1180
    4FIC    C2112092  10.538   2.464   9.274  0.0756  0.2665  0.2520
    4FIC    C2212093  10.584   2.356   9.363 -0.0312  0.1575  0.1755
    4FIC    C2312094  10.531   2.227   9.375 -0.3052  0.2757  0.2511
    4FIC    C2412095  10.592   2.142   9.466 -0.3560  0.1339  0.1534
    4FIC    C2512096  10.701   2.185   9.543 -0.1391 -0.1182 -0.0148
    4FIC    C2612097  10.755   2.312   9.531  0.1345 -0.2373 -0.0906
    4FIC    C2712098  10.695   2.400   9.439  0.1905 -0.0968  0.0064
    4FIC    C2812099  10.726   2.541   9.403  0.4542 -0.1659 -0.0358
    4FIC    C2912100  10.827   2.618   9.456  0.7138 -0.3964 -0.1879
    4FIC    C3012101  10.917   2.570   9.556  0.7627 -0.6059 -0.3302
    4FIC    C3112102  10.850   2.753   9.415  0.9573 -0.4458 -0.2172
    5FIC     F112103  10.361   2.002   7.551  0.1745  0.1492  0.7546
    5FIC     F212104  10.395   2.123   7.310 -0.6070 -0.3931  0.3633
    5FIC     O112105  10.178   2.416   7.848  0.6592  0.7016  0.2898
    5FIC     N512106  10.314   2.592   7.175 -1.3850 -0.7790 -0.5302
    5FIC     N612107  10.164   2.891   7.456 -0.8485 -0.2381 -0.8147
    5FIC    C1912108  10.145   2.679   7.724  0.0849  0.3797 -0.2492
    5FIC    C2012109  10.190   2.570   7.658 -0.0067  0.2619 -0.1169
    5FIC    C2112110  10.204   2.438   7.729  0.3052  0.4415  0.1597
    5FIC    C2212111  10.255   2.342   7.630  0.1066  0.2478  0.2441
    5FIC    C2312112  10.283   2.207   7.649  0.2749  0.3163  0.4859
    5FIC    C2412113  10.331   2.136   7.539  0.0275  0.0964  0.5206
    5FIC    C2512114  10.348   2.199   7.415 -0.3746 -0.1828  0.3186
    5FIC    C2612115  10.320   2.333   7.395 -0.5443 -0.2528  0.0771
    5FIC    C2712116  10.272   2.407   7.505 -0.2987 -0.0330  0.0383
    5FIC    C2812117  10.233   2.549   7.518 -0.3846 -0.0353 -0.1916
    5FIC    C2912118  10.236   2.644   7.418 -0.7453 -0.2685 -0.4284
    5FIC    C3012119  10.279   2.615   7.285 -1.0955 -0.5484 -0.4836
    5FIC    C3112120  10.196   2.779   7.439 -0.8001 -0.2504 -0.6396
    1BTD     S212121   4.438   3.448   9.155  0.1396 -0.4933 -0.1869
    1BTD     N112122   4.364   3.524   9.009  0.6870 -0.9189 -0.6950
    1BTD     N212123   4.570   3.570   9.169 -0.5164  0.1448  0.5913
    1BTD     N312124   4.704   3.954   8.936 -0.8640  0.6768  1.2600
    1BTD     N412125   4.452   3.897   8.739  0.6185 -0.6340 -0.3252
    1BTD     C512126   4.413   3.719   8.870  0.6334 -0.7544 -0.4828
    1BTD     C612127   4.438   3.630   8.980  0.3692 -0.5810 -0.2799
    1BTD     C712128   4.553   3.656   9.070 -0.3043  0.0145  0.4404
    1BTD     C812129   4.637   3.770   9.045 -0.6801  0.4068  0.9212
    1BTD    C1512130   4.609   3.855   8.936 -0.4014  0.2180  0.6997
    1BTD    C1612131   4.498   3.830   8.850  0.2476 -0.3558  0.0058
    1BTD    C4312132   4.470   4.041   8.726  1.8246 -1.5515  0.0566
    1BTD    C4412133   4.416   4.151   8.626 -0.4474  1.3425 -0.2300
    1BTD    C4512134   4.376   4.282   8.700 -2.0358  0.1008 -1.0290
    1BTD    C4612135   4.326   4.398   8.616  0.1928 -0.8818  0.2333
    1BTD    C4712136   4.494   4.161   8.495  0.5129  0.6325  0.4215
    1BTD    C4812137   4.643   4.184   8.500 -0.4521 -0.8625 -0.5063
    1BTD    C4912138   4.715   4.215   8.369 -2.2550  0.4912 -0.7769
    1BTD    C5012139   4.689   4.104   8.258 -1.6565 -0.4709 -1.3500
    1BTD    C7512140   4.782   4.015   8.821 -1.1119 -1.6897  0.0332
    1BTD    C7612141   4.838   3.948   8.692  0.4263 -1.0750  0.7147
    1BTD    C7712142   4.968   3.894   8.714 -1.3253  0.4215  0.0147
    1BTD    C7812143   5.086   3.997   8.715  0.2389 -0.1885 -0.5269
    1BTD    C7912144   4.747   3.852   8.603  0.6392  0.4550 -0.2338
    1BTD    C8012145   4.781   3.773   8.470  0.4881  0.1340 -1.7039
    1BTD    C8112146   4.643   3.715   8.451 -0.6841 -0.1449 -0.5868
    1BTD    C8212147   4.656   3.659   8.307  0.6958 -0.7988 -0.3990
    2TTP     S112148   4.189   3.622   8.679 -0.3557  0.3802  0.1196
    2TTP     S512149   4.238   3.979   8.445 -0.0006 -0.0044 -0.3948
    2TTP     C112150   4.105   3.880   8.372 -0.0840  0.0119 -0.2651
    2TTP     C212151   4.082   3.764   8.440 -0.1985  0.1316 -0.0985
    2TTP     C312152   4.169   3.749   8.552 -0.2246  0.2149 -0.0677
    2TTP     C412153   4.323   3.722   8.752 -0.2723  0.3639 -0.0098
    2TTP    C1712154   4.346   3.838   8.684 -0.1579  0.2443 -0.1766
    2TTP    C1812155   4.259   3.852   8.572 -0.1317  0.1611 -0.2081
    2TTP    C3212156   3.968   3.670   8.403  0.6467  0.9008 -0.5455
    2TTP    C3312157   4.015   3.567   8.315 -0.7212  0.1454 -1.0223
    2TTP    C3412158   3.935   3.517   8.218  0.0786  0.4967 -1.6368
    2TTP    C3512159   3.974   3.411   8.118  0.4636  1.1843  0.2001
    2TTP    C3612160   4.100   3.328   8.101 -1.4522 -0.4254 -0.3633
    2TTP    C3712161   4.109   3.226   7.981  0.7700 -0.0016 -0.4677
    2TTP    C3812162   4.156   3.272   7.852 -0.9215 -0.8279 -0.6303
    2TTP    C3912163   4.297   3.300   7.865  0.1895  0.0926 -0.2454
    2TTP    C4012164   4.332   3.396   7.754 -0.4638  0.7677 -0.0095
    2TTP    C4112165   4.481   3.438   7.768  0.2527 -0.4116  0.2389
    2TTP    C4212166   4.500   3.586   7.747 -0.9566  0.1127  0.2425
    3TTP     S112167   4.860   3.780   9.245  0.1055 -0.2659  0.1051
    3TTP     S512168   5.016   4.136   9.061  0.1752  0.0415  0.7508
    3TTP     C112169   5.113   4.100   9.210  0.3352 -0.3980  0.5454
    3TTP     C212170   5.071   3.989   9.276  0.3231 -0.5187  0.3340
    3TTP     C312171   4.960   3.927   9.211  0.1870 -0.2686  0.3264
    3TTP     C412172   4.762   3.816   9.096 -0.0547  0.1734  0.3104
    3TTP    C1712173   4.804   3.928   9.030 -0.0423  0.2942  0.5220
    3TTP    C1812174   4.916   3.989   9.095  0.0936  0.0442  0.5295
    3TTP    C3212175   5.088   3.941   9.418  0.4414 -1.1013  0.0637
    3TTP    C3312176   5.178   3.822   9.414 -1.5482  0.0021  0.2306
    3TTP    C3412177   5.207   3.772   9.568  0.2000  0.3168  0.6639
    3TTP    C3512178   5.336   3.831   9.628  0.2580  0.0052 -1.0892
    3TTP    C3612179   5.364   3.756   9.755  0.4205  1.1565 -1.0207
    3TTP    C3712180   5.483   3.771   9.837  0.2341 -1.2578  0.2079
    3TTP    C3812181   5.498   3.912   9.890 -1.1026  0.6635  0.1772
    3TTP    C3912182   5.639   3.893   9.977 -0.0886 -0.8186  0.4043
    3TTP    C4012183   5.709   4.021  10.012 -0.0699 -0.2419  0.0145
    3TTP    C4112184   5.769   4.025  10.154  0.6999 -0.2036  2.1559
    3TTP    C4212185   5.834   3.888  10.204 -0.7047 -1.1159  0.4721
    4FIC     F112186   4.272   4.369   7.731 -0.0533 -0.7464 -0.2213
    4FIC     F212187   4.006   4.375   7.675 -0.1802 -0.1656  0.4247
    4FIC     O112188   4.279   4.035   8.157  0.2286 -0.6191 -0.1252
    4FIC     N512189   3.628   4.147   7.898 -0.1615  0.7598  1.4219
    4FIC     N612190   3.687   3.884   8.242  0.0846  0.7424  1.3666
    4FIC    C1912191   4.027   3.922   8.255  0.2078 -0.0190  0.5257
    4FIC    C2012192   4.036   4.006   8.150  0.1417 -0.0738  0.4768
    4FIC    C2112193   4.169   4.060   8.105  0.1576 -0.3884  0.1342
    4FIC    C2212194   4.142   4.147   7.990  0.0727 -0.3678  0.1693
    4FIC    C2312195   4.235   4.219   7.915  0.0547 -0.6012 -0.0802
    4FIC    C2412196   4.186   4.295   7.809 -0.0309 -0.5265  0.0129
    4FIC    C2512197   4.049   4.298   7.781 -0.0962 -0.2273  0.3460
    4FIC    C2612198   3.956   4.227   7.855 -0.0787  0.0068  0.5962
    4FIC    C2712199   4.003   4.149   7.962  0.0076 -0.0644  0.5068
    4FIC    C2812200   3.932   4.063   8.059  0.0476  0.1283  0.7086
    4FIC    C2912201   3.797   4.039   8.065  0.0051  0.4350  1.0464
    4FIC    C3012202   3.704   4.098   7.973 -0.0864  0.6127  1.2516
    4FIC    C3112203   3.737   3.954   8.162  0.0491  0.6024  1.2205
    5FIC     F112204   5.667   4.561   8.820 -0.3492  0.6176  0.1595
    5FIC     F212205   5.760   4.641   9.063 -0.2060 -0.0368  0.3235
    5FIC     O112206   5.274   4.219   8.967 -0.4708  0.4586 -0.5293
    5FIC     N512207   5.612   4.512   9.517 -0.0865 -1.0917  0.0699
    5FIC     N612208   5.286   4.229   9.583 -0.2104 -1.0841 -0.5014
    5FIC    C1912209   5.222   4.174   9.251 -0.3771 -0.2235 -0.6169
    5FIC    C2012210   5.318   4.257   9.205 -0.3520 -0.1580 -0.4499
    5FIC    C2112211   5.338   4.275   9.057 -0.4036  0.1998 -0.4153
    5FIC    C2212212   5.449   4.371   9.041 -0.3589  0.1802 -0.2213
    5FIC    C2312213   5.504   4.419   8.923 -0.3824  0.4469 -0.1261
    5FIC    C2412214   5.608   4.509   8.933 -0.3296  0.3664  0.0572
    5FIC    C2512215   5.656   4.550   9.059 -0.2560  0.0288  0.1414
    5FIC    C2612216   5.601   4.503   9.177 -0.2321 -0.2384  0.0474
    5FIC    C2712217   5.496   4.411   9.169 -0.2846 -0.1618 -0.1383
    5FIC    C2812218   5.417   4.343   9.274 -0.2775 -0.3830 -0.2754
    5FIC    C2912219   5.433   4.356   9.410 -0.2139 -0.7303 -0.2458
    5FIC    C3012220   5.531   4.442   9.469 -0.1440 -0.9278 -0.0722
    5FIC    C3112221   5.352   4.286   9.505 -0.2123 -0.9229 -0.3865
    1BTD     S212222   5.280   5.407   3.285 -0.0045  0.6204 -0.3628
    1BTD     N112223   5.397   5.307   3.192  0.0415  0.6206 -0.3046
    1BTD     N212224   5.135   5.336   3.205  0.0243  0.4505 -0.2655
    1BTD     N312225   5.052   5.012   2.875  0.1663  0.1044  0.0375
    1BTD     N412226   5.376   4.977   2.859  0.1873  0.3138 -0.0107
    1BTD     C512227   5.382   5.135   3.019  0.1173  0.4580 -0.1506
    1BTD     C612228   5.326   5.230   3.111  0.0743  0.5002 -0.2201
    1BTD     C712229   5.179   5.247   3.118  0.0647  0.4051 -0.1982
    1BTD     C812230   5.096   5.166   3.033  0.0988  0.2724 -0.1079
    1BTD    C1512231   5.155   5.074   2.944  0.1405  0.2354 -0.0421
    1BTD    C1612232   5.296   5.059   2.937  0.1496  0.3272 -0.0631
    1BTD    C4312233   5.359   4.939   2.716 -0.5093 -1.1144  0.3248
    1BTD    C4412234   5.408   5.035   2.597 -0.1360  0.9958 -0.1972
    1BTD    C4512235   5.328   5.167   2.606  0.9549  0.0890 -1.5488
    1BTD    C4612236   5.175   5.177   2.568  0.2923 -0.3877  0.4729
    1BTD    C4712237   5.397   4.986   2.457 -0.5675 -0.2185  0.4403
    1BTD    C4812238   5.461   4.839   2.442  0.0376  0.6792 -1.3644
    1BTD    C4912239   5.357   4.772   2.365  0.3298 -0.4156 -0.7791
    1BTD    C5012240   5.371   4.628   2.368  0.1051 -0.7905  0.1137
    1BTD    C7512241   5.056   4.877   2.825  0.4384  0.0822 -1.2059
    1BTD    C7612242   4.941   4.816   2.740 -0.3715  0.1079 -1.1319
    1BTD    C7712243   5.001   4.693   2.668  0.7216 -0.5022 -0.0672
    1BTD    C7812244   5.027   4.567   2.745  0.2504 -0.9762 -0.7138
    1BTD    C7912245   4.800   4.813   2.806  0.3150 -1.2712 -0.4827
    1BTD    C8012246   4.690   4.762   2.710 -1.0520  0.0656 -0.5710
    1BTD    C8112247   4.555   4.776   2.762 -0.2947 -0.1865  0.3394
    1BTD    C8212248   4.473   4.695   2.680  0.8684 -0.3726  0.6205
    2TTP     S112249   5.682   5.159   3.020 -0.2006 -0.0062 -0.5383
    2TTP     S512250   5.707   4.819   2.759  0.5708 -0.1231 -0.3170
    2TTP     C112251   5.876   4.869   2.804  0.4401 -0.0669  0.1111
    2TTP     C212252   5.878   4.977   2.888  0.1941 -0.0275  0.0679
    2TTP     C312253   5.747   5.024   2.919  0.1000 -0.0404 -0.3048
    2TTP     C412254   5.514   5.109   2.974 -0.0697 -0.0625 -0.9664
    2TTP    C1712255   5.511   5.001   2.891  0.1761 -0.1019 -0.9234
    2TTP    C1812256   5.643   4.954   2.860  0.2701 -0.0892 -0.5507
    2TTP    C3212257   6.009   5.039   2.942  0.9404 -0.8103 -0.5713
    2TTP    C3312258   6.047   5.021   3.083  0.3633 -0.6028 -0.6624
    2TTP    C3412259   6.157   5.136   3.114  0.9125 -0.4311 -1.0349
    2TTP    C3512260   6.299   5.099   3.152 -0.0533  0.7000 -0.8977
    2TTP    C3612261   6.318   4.964   3.226 -0.1518  0.2141 -1.6229
    2TTP    C3712262   6.469   4.890   3.253 -0.6545 -1.1617 -0.3610
    2TTP    C3812263   6.540   4.877   3.117  0.4474 -1.2866  0.0395
    2TTP    C3912264   6.702   4.903   3.109  0.4687  0.0324 -2.0475
    2TTP    C4012265   6.747   4.950   2.973  0.6193  0.4225  0.2705
    2TTP    C4112266   6.707   5.097   2.953 -0.5394  0.4121  0.5390
    2TTP    C4212267   6.786   5.132   2.820  0.3163  0.5139 -0.5461
    3TTP     S112268   4.829   5.296   3.030  0.3111  0.8195  0.0162
    3TTP     S512269   4.746   5.096   2.658 -0.1346 -0.1972  0.6531
    3TTP     C112270   4.619   5.224   2.685  0.0612  0.0697  0.3201
    3TTP     C212271   4.637   5.293   2.801  0.2103  0.3994  0.1038
    3TTP     C312272   4.752   5.247   2.874  0.1754  0.4531  0.1933
    3TTP     C412273   4.955   5.168   3.004  0.1152  0.5525  0.3493
    3TTP    C1712274   4.937   5.099   2.887 -0.0340  0.2230  0.5654
    3TTP    C1812275   4.823   5.144   2.815  0.0011  0.1692  0.4761
    3TTP    C3212276   4.563   5.412   2.849  0.5963 -1.2317 -1.0144
    3TTP    C3312277   4.501   5.406   2.990  0.6574  0.3016  0.3644
    3TTP    C3412278   4.413   5.281   2.978  1.6001  0.9898 -0.7693
    3TTP    C3512279   4.333   5.226   3.113 -0.4146 -0.1005 -0.9721
    3TTP    C3612280   4.264   5.325   3.216  1.2579 -0.6122 -0.6699
    3TTP    C3712281   4.148   5.426   3.171 -0.4660 -0.2750 -1.6546
    3TTP    C3812282   4.001   5.383   3.155 -0.4916  0.8530  0.7984
    3TTP    C3912283   3.984   5.330   3.020  1.1694 -0.4442 -0.8297
    3TTP    C4012284   3.854   5.240   3.005  2.0526 -0.3646  1.5125
    3TTP    C4112285   3.833   5.185   2.863  0.7198  1.1985  0.9025
    3TTP    C4212286   3.939   5.084   2.823  0.0950 -0.6820  0.4544
    4FIC     F112287   6.006   4.283   2.247  0.5203 -0.0806  0.1261
    4FIC     F212288   6.208   4.435   2.148  0.1696  0.2245 -0.1273
    4FIC     O112289   5.853   4.581   2.672  0.4627 -0.2036  0.1917
    4FIC     N512290   6.391   4.866   2.308 -0.3755  0.5754 -0.4447
    4FIC     N612291   6.230   5.069   2.660 -0.3498  0.4177 -0.3423
    4FIC    C1912292   5.992   4.832   2.728  0.1072  0.0442 -0.0270
    4FIC    C2012293   6.022   4.751   2.625  0.1355  0.0633 -0.0336
    4FIC    C2112294   5.946   4.624   2.603  0.3221 -0.0697  0.0830
    4FIC    C2212295   6.005   4.560   2.483  0.3046 -0.0095  0.0426
    4FIC    C2312296   5.967   4.440   2.424  0.4411 -0.0900  0.1174
    4FIC    C2412297   6.038   4.400   2.311  0.3918 -0.0081  0.0577
    4FIC    C2512298   6.142   4.479   2.260  0.2113  0.1488 -0.0729
    4FIC    C2612299   6.180   4.599   2.319  0.0740  0.2298 -0.1481
    4FIC    C2712300   6.110   4.641   2.433  0.1215  0.1490 -0.0894
    4FIC    C2812301   6.125   4.761   2.518  0.0104  0.2000 -0.1413
    4FIC    C2912302   6.216   4.863   2.501 -0.1733  0.3462 -0.2655
    4FIC    C3012303   6.312   4.864   2.395 -0.2838  0.4716 -0.3635
    4FIC    C3112304   6.223   4.975   2.589 -0.2693  0.3847 -0.3070
    5FIC     F112305   4.255   4.718   2.126 -0.3812  0.2459 -0.3816
    5FIC     F212306   4.032   4.873   2.143 -0.4703  0.0569  0.2211
    5FIC     O112307   4.585   4.975   2.470  0.0110 -0.0046 -0.5693
    5FIC     N512308   3.947   5.279   2.413 -0.3185 -0.3935  0.9539
    5FIC     N612309   4.250   5.449   2.678  0.0060 -0.5510  0.6856
    5FIC    C1912310   4.489   5.215   2.608  0.0653 -0.2741 -0.0603
    5FIC    C2012311   4.415   5.144   2.521 -0.0298 -0.2038 -0.0365
    5FIC    C2112312   4.471   5.022   2.454 -0.0519 -0.0656 -0.3086
    5FIC    C2212313   4.365   4.969   2.366 -0.1620 -0.0181 -0.2040
    5FIC    C2312314   4.370   4.857   2.284 -0.2178  0.1043 -0.3752
    5FIC    C2412315   4.257   4.827   2.210 -0.3215  0.1268 -0.2262
    5FIC    C2512316   4.142   4.907   2.219 -0.3670  0.0293  0.0845
    5FIC    C2612317   4.136   5.019   2.301 -0.3117 -0.0931  0.2565
    5FIC    C2712318   4.250   5.051   2.377 -0.2067 -0.1177  0.1097
    5FIC    C2812319   4.276   5.162   2.472 -0.1276 -0.2356  0.2249
    5FIC    C2912320   4.188   5.261   2.508 -0.1419 -0.3521  0.5181
    5FIC    C3012321   4.056   5.271   2.456 -0.2389 -0.3744  0.7566
    5FIC    C3112322   4.223   5.364   2.601 -0.0604 -0.4609  0.6086
    1BTD     S212323   4.551   3.612   0.817 -0.0735 -0.4177 -0.1993
    1BTD     N112324   4.699   3.543   0.742  0.0864  0.0765 -0.3455
    1BTD     N212325   4.463   3.629   0.661 -0.2341 -0.5809 -0.1278
    1BTD     N312326   4.551   3.541   0.209 -0.2733 -0.0217 -0.2462
    1BTD     N412327   4.843   3.434   0.308  0.1217  0.7883 -0.5145
    1BTD     C512328   4.771   3.488   0.515  0.1001  0.4383 -0.4305
    1BTD     C612329   4.677   3.537   0.612  0.0154  0.0933 -0.3341
    1BTD     C712330   4.544   3.585   0.566 -0.1640 -0.2747 -0.2123
    1BTD     C812331   4.513   3.582   0.426 -0.2499 -0.2792 -0.1928
    1BTD    C1512332   4.608   3.533   0.335 -0.1618  0.0656 -0.2899
    1BTD    C1612333   4.735   3.486   0.378  0.0110  0.4202 -0.4073
    1BTD    C4312334   4.890   3.437   0.175 -1.0957  0.0591 -1.1853
    1BTD    C4412335   4.987   3.540   0.111 -0.9133  0.1340  0.7173
    1BTD    C4512336   4.930   3.677   0.071  0.7253  0.8354 -0.6017
    1BTD    C4612337   4.857   3.764   0.173 -0.2164 -0.8065  0.9022
    1BTD    C4712338   5.049   3.455  -0.003 -0.4262  1.2307 -0.4956
    1BTD    C4812339   5.159   3.522  -0.090 -0.3288 -0.1493  0.8883
    1BTD    C4912340   5.282   3.584  -0.025 -2.1033  0.6683 -0.6705
    1BTD    C5012341   5.393   3.572  -0.129 -1.4355  0.2809 -0.4104
    1BTD    C7512342   4.596   3.507   0.076 -0.9772  0.8448  0.3870
    1BTD    C7612343   4.614   3.358   0.020  0.2000  0.4964  0.7488
    1BTD    C7712344   4.717   3.335  -0.103  1.0461 -0.6125 -0.9455
    1BTD    C7812345   4.739   3.456  -0.205  0.5552 -0.6294 -1.1400
    1BTD    C7912346   4.611   3.225   0.120  1.6872 -0.5141 -0.2033
    1BTD    C8012347   4.568   3.079   0.077 -0.8574  0.7985  1.1303
    1BTD    C8112348   4.689   2.992   0.032  0.7464  0.9422 -0.0529
    1BTD    C8212349   4.757   2.917   0.155 -0.5151 -0.8772 -0.1155
    2TTP     S112350   4.999   3.372   0.658 -0.1310 -0.1020 -0.0266
    2TTP     S512351   5.147   3.218   0.285  0.5859 -0.5329  0.4288
    2TTP     C112352   5.243   3.144   0.420  0.2810 -0.4325  0.7041
    2TTP     C212353   5.204   3.187   0.543  0.0417 -0.2934  0.5797
    2TTP     C312354   5.095   3.280   0.535  0.0905 -0.2613  0.2625
    2TTP     C412355   4.903   3.446   0.523  0.1739 -0.2024 -0.3019
    2TTP    C1712356   4.942   3.403   0.400  0.4131 -0.3415 -0.1775
    2TTP    C1812357   5.051   3.310   0.407  0.3644 -0.3736  0.1397
    2TTP    C3212358   5.236   3.155   0.695  0.6216  1.5715  0.0103
    2TTP    C3312359   5.233   2.995   0.753 -0.3751 -0.5061  0.1821
    2TTP    C3412360   5.156   2.957   0.877  0.9145  0.5399  0.3439
    2TTP    C3512361   5.100   2.822   0.892 -0.4298  0.8507  1.2770
    2TTP    C3612362   5.086   2.753   1.030 -0.5702 -1.2830 -0.1563
    2TTP    C3712363   5.213   2.712   1.116 -0.1962 -0.4474 -0.2047
    2TTP    C3812364   5.262   2.808   1.222  0.3344  0.8543 -0.7927
    2TTP    C3912365   5.161   2.853   1.328  0.7291  0.3771 -0.8109
    2TTP    C4012366   5.123   2.760   1.447  1.4732 -0.1812 -1.6109
    2TTP    C4112367   5.038   2.801   1.579 -0.9033  0.1392  0.2248
    2TTP    C4212368   5.089   2.862   1.706  0.1956  0.2362 -0.2430
    3TTP     S112369   4.225   3.691   0.362  0.3749  0.4009  0.2964
    3TTP     S512370   4.285   3.606  -0.055 -0.6436 -0.2311  0.2718
    3TTP     C112371   4.113   3.662  -0.031 -0.4472  0.2740  0.5355
    3TTP     C212372   4.085   3.691   0.099 -0.1212  0.4989  0.5589
    3TTP     C312373   4.197   3.671   0.185 -0.0147  0.2806  0.3691
    3TTP     C412374   4.397   3.635   0.339  0.1786 -0.1042  0.0326
    3TTP    C1712375   4.425   3.606   0.208 -0.1474 -0.3291  0.0095
    3TTP    C1812376   4.313   3.626   0.123 -0.2540 -0.1107  0.1993
    3TTP    C3212377   3.952   3.715   0.164 -0.1761 -0.0722 -0.5421
    3TTP    C3312378   3.914   3.862   0.212  1.4760  1.2172  0.5750
    3TTP    C3412379   3.784   3.861   0.294  0.5895 -1.1526 -0.0586
    3TTP    C3512380   3.759   3.987   0.355 -0.6848 -0.8389  1.4189
    3TTP    C3612381   3.636   3.972   0.442  0.2570  0.5819 -0.3802
    3TTP    C3712382   3.555   4.112   0.466 -0.4906 -0.8114 -0.1025
    3TTP    C3812383   3.647   4.238   0.510  0.1322 -0.2583  0.5929
    3TTP    C3912384   3.603   4.391   0.521 -1.3728  0.6261 -0.0298
    3TTP    C4012385   3.463   4.433   0.557 -0.6385 -0.4886  0.2991
    3TTP    C4112386   3.410   4.343   0.680  0.4271 -0.2663  0.1429
    3TTP    C4212387   3.472   4.389   0.804  0.5096 -0.3092 -0.2388
    4FIC     F112388   5.877   3.242  -0.082 -0.7180  0.1547 -0.2775
    4FIC     F212389   5.957   2.990  -0.018 -0.0418  0.4694  0.1392
    4FIC     O112390   5.440   3.294   0.234 -0.5604 -0.3080  0.0179
    4FIC     N512391   5.761   2.664   0.298  1.0422  0.5922  0.9494
    4FIC     N612392   5.404   2.755   0.532  1.0290  0.1673  1.0961
    4FIC    C1912393   5.362   3.071   0.407  0.1415 -0.1716  0.5211
    4FIC    C2012394   5.468   3.068   0.325  0.0753 -0.0675  0.4305
    4FIC    C2112395   5.502   3.186   0.239 -0.2925 -0.1475  0.1698
    4FIC    C2212396   5.623   3.150   0.163 -0.2710  0.0018  0.1318
    4FIC    C2312397   5.692   3.227   0.070 -0.5447 -0.0064 -0.0812
    4FIC    C2412398   5.804   3.171   0.011 -0.4600  0.1531 -0.0733
    4FIC    C2512399   5.845   3.041   0.044 -0.1115  0.3151  0.1417
    4FIC    C2612400   5.777   2.963   0.136  0.1630  0.3242  0.3549
    4FIC    C2712401   5.663   3.018   0.197  0.0823  0.1642  0.3504
    4FIC    C2812402   5.570   2.963   0.298  0.3090  0.1279  0.5426
    4FIC    C2912403   5.576   2.838   0.356  0.6669  0.2522  0.7790
    4FIC    C3012404   5.678   2.743   0.324  0.8719  0.4386  0.8719
    4FIC    C3112405   5.481   2.793   0.452  0.8640  0.2047  0.9521
    5FIC     F112406   4.264   3.965  -0.758  0.0221  0.2112  0.0772
    5FIC     F212407   4.000   3.941  -0.820  0.0110  0.3696  0.0601
    5FIC     O112408   4.265   3.784  -0.247 -0.0567 -0.1368 -0.0465
    5FIC     N512409   3.622   3.776  -0.547 -0.0611  0.3492 -0.0525
    5FIC     N612410   3.676   3.639  -0.136 -0.1205  0.0453 -0.1452
    5FIC    C1912411   4.014   3.696  -0.126 -0.0953 -0.1090 -0.1063
    5FIC    C2012412   4.024   3.742  -0.252 -0.0751 -0.0277 -0.0746
    5FIC    C2112413   4.157   3.786  -0.307 -0.0560 -0.0483 -0.0453
    5FIC    C2212414   4.132   3.831  -0.446 -0.0368  0.0567 -0.0148
    5FIC    C2312415   4.225   3.880  -0.537 -0.0153  0.0783  0.0186
    5FIC    C2412416   4.178   3.916  -0.662  0.0005  0.1843  0.0432
    5FIC    C2512417   4.042   3.903  -0.694 -0.0053  0.2657  0.0346
    5FIC    C2612418   3.949   3.854  -0.604 -0.0266  0.2449  0.0012
    5FIC    C2712419   3.994   3.817  -0.476 -0.0427  0.1380 -0.0238
    5FIC    C2812420   3.923   3.762  -0.359 -0.0665  0.0893 -0.0615
    5FIC    C2912421   3.788   3.735  -0.350 -0.0784  0.1426 -0.0796
    5FIC    C3012422   3.697   3.758  -0.459 -0.0688  0.2561 -0.0646
    5FIC    C3112423   3.727   3.682  -0.232 -0.1014  0.0888 -0.1156
    1BTD     S212424   3.109  10.198   5.589  0.0225 -0.1184 -0.0514
    1BTD     N112425   3.189  10.167   5.747  0.0010  0.1717  0.0185
    1BTD     N212426   3.210  10.082   5.498 -0.0219 -0.3495  0.1930
    1BTD     N312427   3.562   9.787   5.597 -0.1513 -0.2966  0.8171
    1BTD     N412428   3.535   9.892   5.904 -0.1231  0.3455  0.6021
    1BTD     C512429   3.370  10.022   5.825 -0.0641  0.2546  0.3258
    1BTD     C612430   3.282  10.076   5.724 -0.0362  0.0856  0.2104
    1BTD     C712431   3.294  10.028   5.585 -0.0491 -0.2062  0.3080
    1BTD     C812432   3.394   9.929   5.553 -0.0891 -0.3140  0.5161
    1BTD    C1512433   3.477   9.879   5.655 -0.1153 -0.1413  0.6232
    1BTD    C1612434   3.466   9.925   5.789 -0.1030  0.1400  0.5290
    1BTD    C4312435   3.683   9.862   5.925 -0.3436  1.5751 -0.5197
    1BTD    C4412436   3.772   9.973   5.902 -0.1095  0.8006 -0.0652
    1BTD    C4512437   3.908   9.931   5.833  0.4089 -0.4529 -0.0621
    1BTD    C4612438   3.985  10.054   5.784 -0.6164  0.2683 -0.1540
    1BTD    C4712439   3.811  10.013   6.052 -0.4225  0.5708  0.5489
    1BTD    C4812440   3.871  10.151   6.083 -1.4696 -0.9778 -0.5920
    1BTD    C4912441   3.758  10.258   6.071 -0.9176 -0.1160  0.3166
    1BTD    C5012442   3.810  10.405   6.078  0.1974 -0.1975 -0.3262
    1BTD    C7512443   3.648   9.682   5.657 -0.8937  0.6855 -0.8875
    1BTD    C7612444   3.577   9.547   5.710 -0.7555 -0.8080 -1.3367
    1BTD    C7712445   3.480   9.554   5.834  0.1248 -0.3669 -0.2166
    1BTD    C7812446   3.534   9.548   5.976  0.4486  0.2401 -0.1197
    1BTD    C7912447   3.680   9.442   5.715 -0.3990  0.3348 -0.7641
    1BTD    C8012448   3.649   9.313   5.643  0.1194 -0.5754  0.5550
    1BTD    C8112449   3.731   9.326   5.513 -0.1585  1.4950 -0.8035
    1BTD    C8212450   3.684   9.234   5.396 -0.1395  0.0772 -0.5650
    2TTP     S112451   3.281  10.113   6.106 -0.3859 -0.1194 -0.0521
    2TTP     S512452   3.568   9.839   6.274  0.5887  0.4098 -0.8337
    2TTP     C112453   3.476   9.918   6.410  0.8398  0.2649 -0.5786
    2TTP     C212454   3.382  10.007   6.366  0.5537  0.0930 -0.3222
    2TTP     C312455   3.379  10.016   6.224  0.1258  0.0694 -0.3179
    2TTP     C412456   3.373  10.034   5.970 -0.6371  0.0255 -0.3073
    2TTP    C1712457   3.467   9.945   6.014 -0.3509  0.1972 -0.5637
    2TTP    C1812458   3.470   9.936   6.157  0.0771  0.2210 -0.5679
    2TTP    C3212459   3.292  10.101   6.457  0.3262  0.5922  0.1484
    2TTP    C3312460   3.242  10.220   6.390  0.1212 -0.1877 -1.5709
    2TTP    C3412461   3.194  10.330   6.483  0.7367  1.2220  1.1745
    2TTP    C3512462   3.289  10.390   6.583  0.9476 -1.3111  0.0129
    2TTP    C3612463   3.425  10.434   6.520  0.8202  0.7912 -0.2509
    2TTP    C3712464   3.514  10.489   6.629 -0.4297 -1.7747  0.9682
    2TTP    C3812465   3.644  10.489   6.561 -0.1841 -0.4112 -1.9294
    2TTP    C3912466   3.742  10.377   6.592 -0.5794 -1.1875 -0.6472
    2TTP    C4012467   3.715  10.231   6.582 -0.3770 -0.2687  0.9080
    2TTP    C4112468   3.815  10.129   6.587  0.1323  0.2535  0.1624
    2TTP    C4212469   3.888  10.131   6.714 -0.2481 -0.0236 -0.5137
    3TTP     S112470   3.416   9.873   5.256  0.4606  0.5623  0.4683
    3TTP     S512471   3.757   9.618   5.320 -0.0367 -0.2480 -0.0656
    3TTP     C112472   3.724   9.627   5.142 -0.0410  0.1662 -0.0457
    3TTP     C212473   3.617   9.707   5.111  0.1123  0.4411  0.1202
    3TTP     C312474   3.557   9.763   5.228  0.2387  0.3340  0.2377
    3TTP     C412475   3.449   9.864   5.435  0.4649  0.1481  0.4483
    3TTP    C1712476   3.556   9.785   5.465  0.3116 -0.1264  0.2825
    3TTP    C1812477   3.616   9.728   5.348  0.1851 -0.0198  0.1650
    3TTP    C3212478   3.594   9.780   4.974  0.1618  0.5984  0.0870
    3TTP    C3312479   3.638   9.918   4.971 -0.0525 -0.2983  0.2531
    3TTP    C3412480   3.797   9.970   4.974 -0.9496 -0.8382  0.0871
    3TTP    C3512481   3.886   9.930   5.097  0.3403  0.6239  0.1984
    3TTP    C3612482   3.884  10.008   5.223  0.0720  0.6486 -0.1476
    3TTP    C3712483   4.028  10.019   5.289  0.8694  0.2079  1.0458
    3TTP    C3812484   4.087   9.883   5.310  1.1685  0.0545 -0.4084
    3TTP    C3912485   4.226   9.839   5.302  0.8017 -0.2126 -0.4260
    3TTP    C4012486   4.288   9.871   5.157 -0.4059  0.3934  0.5378
    3TTP    C4112487   4.416   9.801   5.145 -0.3647  0.1530  0.8080
    3TTP    C4212488   4.514   9.847   5.041 -0.3017  0.6050 -1.8995
    4FIC     F112489   3.746   9.286   6.865  0.6205  0.0753  0.1087
    4FIC     F212490   3.719   9.440   7.088 -0.1605 -0.0458  0.1041
    4FIC     O112491   3.584   9.632   6.481  0.6316 -0.1626 -0.1118
    4FIC     N512492   3.565   9.908   7.135 -1.2756 -0.3903 -0.0597
    4FIC     N612493   3.444  10.147   6.790 -1.1094 -0.5522 -0.2311
    4FIC    C1912494   3.501   9.902   6.558 -0.1106 -0.3633 -0.1945
    4FIC    C2012495   3.543   9.809   6.646 -0.0829 -0.2987 -0.1389
    4FIC    C2112496   3.584   9.672   6.599  0.3092 -0.1967 -0.0989
    4FIC    C2212497   3.623   9.597   6.719  0.2339 -0.1462 -0.0421
    4FIC    C2312498   3.669   9.465   6.726  0.5073 -0.0501  0.0086
    4FIC    C2412499   3.700   9.415   6.851  0.3663 -0.0186  0.0571
    4FIC    C2512500   3.686   9.495   6.966 -0.0363 -0.0809  0.0545
    4FIC    C2612501   3.641   9.626   6.960 -0.3107 -0.1769  0.0042
    4FIC    C2712502   3.609   9.678   6.834 -0.1734 -0.2103 -0.0454
    4FIC    C2812503   3.558   9.812   6.793 -0.3842 -0.3068 -0.1050
    4FIC    C2912504   3.532   9.918   6.877 -0.7824 -0.3877 -0.1249
    4FIC    C3012505   3.550   9.912   7.018 -1.0521 -0.3886 -0.0890
    4FIC    C3112506   3.484  10.044   6.829 -0.9600 -0.4776 -0.1833
    5FIC     F112507   4.408   9.166   5.125 -0.5287 -0.7968 -0.0800
    5FIC     F212508   4.349   9.102   4.867  0.7308  1.4534 -0.9806
    5FIC     O112509   3.996   9.496   5.247 -1.2330 -2.0173  0.8982
    5FIC     N512510   3.971   9.246   4.583  2.0394  3.8192 -1.5781
    5FIC     N612511   3.661   9.517   4.730  1.2352  2.4123 -0.6319
    5FIC    C1912512   3.794   9.552   5.043 -0.2800 -0.3005  0.3855
    5FIC    C2012513   3.900   9.472   5.023 -0.1520 -0.0818  0.1744
    5FIC    C2112514   4.000   9.448   5.132 -0.6674 -1.0090  0.4622
    5FIC    C2212515   4.101   9.356   5.077 -0.3678 -0.4835  0.1247
    5FIC    C2312516   4.214   9.305   5.141 -0.6560 -1.0071  0.2251
    5FIC    C2412517   4.295   9.220   5.068 -0.2748 -0.3345 -0.1540
    5FIC    C2512518   4.265   9.187   4.935  0.3740  0.8249 -0.6174
    5FIC    C2612519   4.152   9.238   4.871  0.6646  1.3525 -0.7203
    5FIC    C2712520   4.069   9.324   4.943  0.2865  0.6857 -0.3413
    5FIC    C2812521   3.943   9.394   4.904  0.4448  0.9789 -0.3291
    5FIC    C2912522   3.881   9.388   4.782  1.0325  2.0316 -0.7114
    5FIC    C3012523   3.930   9.310   4.673  1.5841  3.0107 -1.1866
    5FIC    C3112524   3.760   9.459   4.754  1.1406  2.2349 -0.6655
    1BTD     S212525   5.124  10.545   0.263  0.3173 -0.0896  0.0311
    1BTD     N112526   5.202  10.383   0.264  0.4021 -0.0484  0.0101
    1BTD     N212527   5.169  10.582   0.093 -0.0166 -0.1965 -0.0826
    1BTD     N312528   5.403  10.364  -0.252 -0.5441 -0.3402 -0.3519
    1BTD     N412529   5.443  10.120  -0.041 -0.0281 -0.1583 -0.2377
    1BTD     C512530   5.328  10.249   0.102  0.1711 -0.1080 -0.1206
    1BTD     C612531   5.255  10.366   0.144  0.1881 -0.1132 -0.0760
    1BTD     C712532   5.237  10.477   0.048 -0.0463 -0.1960 -0.1279
    1BTD     C812533   5.292  10.465  -0.085 -0.2857 -0.2694 -0.2217
    1BTD    C1512534   5.362  10.349  -0.121 -0.2932 -0.2610 -0.2625
    1BTD    C1612535   5.379  10.242  -0.028 -0.0676 -0.1816 -0.2127
    1BTD    C4312536   5.395  10.014  -0.148  0.9423 -0.3333 -1.7736
    1BTD    C4412537   5.269  10.012  -0.222  0.5861  0.3233 -0.4561
    1BTD    C4512538   5.278   9.893  -0.329  0.7023 -1.2433 -0.8352
    1BTD    C4612539   5.259   9.926  -0.480  0.4791 -0.7904 -0.2610
    1BTD    C4712540   5.131  10.045  -0.166  0.8084  0.9830 -1.6784
    1BTD    C4812541   5.041   9.951  -0.084  0.1789 -0.3153 -0.3320
    1BTD    C4912542   5.100   9.859   0.025  0.4834 -0.7960 -0.4090
    1BTD    C5012543   5.012   9.858   0.159 -0.0538  0.0646  1.3130
    1BTD    C7512544   5.461  10.259  -0.333 -1.1499 -1.1742  1.5470
    1BTD    C7612545   5.594  10.278  -0.408 -0.0025 -0.0529 -0.1578
    1BTD    C7712546   5.604  10.135  -0.479  0.3339 -2.0910  0.5281
    1BTD    C7812547   5.708  10.083  -0.565  0.1703 -0.7249 -0.2611
    1BTD    C7912548   5.694  10.318  -0.310  0.2201  0.9738 -0.0130
    1BTD    C8012549   5.717  10.230  -0.187  0.5816  0.0883  0.4506
    1BTD    C8112550   5.802  10.257  -0.082 -0.6974  0.0163  0.7212
    1BTD    C8212551   5.788  10.129   0.002  0.5230 -0.4308 -0.1863
    2TTP     S112552   5.354  10.066   0.338 -0.0237  0.1799 -0.1015
    2TTP     S512553   5.626   9.819   0.113  0.5882  0.3424  0.4531
    2TTP     C112554   5.603   9.745   0.278 -0.1699  0.0085  0.2059
    2TTP     C212555   5.517   9.817   0.357 -0.4036 -0.0615  0.0200
    2TTP     C312556   5.467   9.933   0.290  0.0077  0.1462  0.0662
    2TTP     C412557   5.377  10.140   0.173  0.7346  0.5138  0.1457
    2TTP    C1712558   5.463  10.068   0.094  0.9682  0.5836  0.3315
    2TTP    C1812559   5.513   9.952   0.161  0.5568  0.3760  0.2854
    2TTP    C3212560   5.445   9.749   0.490 -0.4849  1.9315 -0.0586
    2TTP    C3312561   5.330   9.641   0.477  0.0159 -0.1894 -0.2143
    2TTP    C3412562   5.211   9.645   0.591 -2.2075  0.3020  0.2516
    2TTP    C3512563   5.108   9.531   0.586 -0.4537  1.0053 -0.5516
    2TTP    C3612564   5.022   9.529   0.463 -0.6033 -1.0259 -0.3125
    2TTP    C3712565   4.915   9.440   0.513  0.5716  0.3580 -0.0840
    2TTP    C3812566   4.780   9.470   0.460  0.4944  0.9003 -1.3056
    2TTP    C3912567   4.676   9.351   0.513 -1.6153 -1.5218  0.2205
    2TTP    C4012568   4.530   9.372   0.541  0.5504  1.4020 -0.6313
    2TTP    C4112569   4.498   9.430   0.673 -2.1608 -0.1074  0.6621
    2TTP    C4212570   4.376   9.497   0.710  0.0938  1.2143  0.4527
    3TTP     S112571   5.180  10.682  -0.243 -0.5366 -0.1360  0.5516
    3TTP     S512572   5.288  10.457  -0.593 -0.4601  0.7870 -0.0250
    3TTP     C112573   5.165  10.582  -0.640 -0.7575  0.6456  0.3612
    3TTP     C212574   5.125  10.659  -0.535 -0.7988  0.3524  0.5617
    3TTP     C312575   5.189  10.622  -0.413 -0.5969  0.2286  0.4179
    3TTP     C412576   5.303  10.556  -0.195 -0.2393  0.0055  0.1657
    3TTP    C1712577   5.344  10.479  -0.301 -0.1980  0.2987 -0.0352
    3TTP    C1812578   5.279  10.517  -0.423 -0.3999  0.4225  0.1085
    3TTP    C3212579   5.032  10.785  -0.513 -0.6108 -1.1657  0.7421
    3TTP    C3312580   5.020  10.900  -0.623 -0.3851  0.1419  0.4684
    3TTP    C3412581   5.025  11.031  -0.544 -0.7107 -0.6734  0.1647
    3TTP    C3512582   5.002  11.156  -0.625 -1.1426  0.0281  0.7435
    3TTP    C3612583   4.874  11.170  -0.699 -0.7874  1.6571 -0.1138
    3TTP    C3712584   4.855  11.298  -0.787 -0.3436 -0.4225 -0.2124
    3TTP    C3812585   4.976  11.388  -0.843 -0.5177 -0.2549 -0.8897
    3TTP    C3912586   5.075  11.324  -0.939 -0.4626 -0.0249 -0.6658
    3TTP    C4012587   5.025  11.234  -1.058  0.9506  0.4150 -0.4259
    3TTP    C4112588   5.091  11.203  -1.198 -0.2436 -0.6581 -1.1184
    3TTP    C4212589   5.250  11.241  -1.214  0.7791  0.8052  0.6876
    4FIC     F112590   6.224   9.261   0.043 -0.1490 -0.1447 -0.0994
    4FIC     F212591   6.293   9.232   0.305 -0.4555 -0.4885 -0.0545
    4FIC     O112592   5.782   9.570   0.087  0.1607  0.3228 -0.2538
    4FIC     N512593   6.077   9.412   0.712 -0.6750 -0.6485 -0.1001
    4FIC     N612594   5.717   9.659   0.694 -0.3713 -0.2139 -0.2299
    4FIC    C1912595   5.690   9.653   0.352 -0.0220  0.1608 -0.2659
    4FIC    C2012596   5.799   9.576   0.331 -0.0881  0.0567 -0.2287
    4FIC    C2112597   5.839   9.538   0.192  0.0138  0.1502 -0.2251
    4FIC    C2212598   5.961   9.455   0.205 -0.0951 -0.0031 -0.1808
    4FIC    C2312599   6.035   9.396   0.102 -0.0557  0.0145 -0.1623
    4FIC    C2412600   6.146   9.322   0.139 -0.1796 -0.1517 -0.1197
    4FIC    C2512601   6.181   9.307   0.274 -0.3370 -0.3282 -0.0967
    4FIC    C2612602   6.108   9.366   0.377 -0.3772 -0.3462 -0.1150
    4FIC    C2712603   5.995   9.441   0.341 -0.2538 -0.1802 -0.1580
    4FIC    C2812604   5.897   9.515   0.425 -0.2555 -0.1507 -0.1866
    4FIC    C2912605   5.897   9.525   0.562 -0.3874 -0.2887 -0.1759
    4FIC    C3012606   5.996   9.463   0.644 -0.5451 -0.4861 -0.1343
    4FIC    C3112607   5.798   9.599   0.634 -0.3778 -0.2468 -0.2057
    5FIC     F112608   5.115  10.081  -1.286 -0.6170 -0.2203  0.6294
    5FIC     F212609   5.111  10.299  -1.449 -0.0603 -0.5574  0.1581
    5FIC     O112610   5.125  10.318  -0.799 -0.3691  0.8049  0.1295
    5FIC     N512611   5.112  10.781  -1.337  0.9170 -0.3109 -0.8759
    5FIC     N612612   5.121  10.922  -0.924  0.9984  0.5584 -1.1716
    5FIC    C1912613   5.125  10.611  -0.783  0.2507  0.8474 -0.4985
    5FIC    C2012614   5.122  10.542  -0.899  0.1667  0.6027 -0.3543
    5FIC    C2112615   5.123  10.392  -0.899 -0.1565  0.5980 -0.0310
    5FIC    C2212616   5.120  10.351  -1.040 -0.1692  0.3004  0.0548
    5FIC    C2312617   5.119  10.221  -1.091 -0.4210  0.1912  0.3328
    5FIC    C2412618   5.116  10.206  -1.229 -0.3777 -0.0982  0.3608
    5FIC    C2512619   5.114  10.319  -1.313 -0.0904 -0.2715  0.1180
    5FIC    C2612620   5.114  10.448  -1.263  0.1615 -0.1638 -0.1600
    5FIC    C2712621   5.117  10.465  -1.124  0.1222  0.1285 -0.1931
    5FIC    C2812622   5.119  10.587  -1.040  0.3401  0.3076 -0.4542
    5FIC    C2912623   5.118  10.717  -1.085  0.6442  0.2167 -0.7346
    5FIC    C3012624   5.114  10.752  -1.224  0.7930 -0.0730 -0.8113
    5FIC    C3112625   5.119  10.829  -0.996  0.8373  0.4051 -0.9737
    1BTD     S212626   1.016   4.696   6.882  0.1838 -0.0625  0.4047
    1BTD     N112627   0.838   4.678   6.900  0.1799 -0.1160  0.3140
    1BTD     N212628   1.055   4.592   7.024  0.1419 -0.0036  0.4599
    1BTD     N312629   0.813   4.349   7.345  0.0495  0.0205  0.4089
    1BTD     N412630   0.546   4.455   7.192  0.0964 -0.1180  0.2291
    1BTD     C512631   0.688   4.560   7.055  0.1357 -0.1154  0.2719
    1BTD     C612632   0.818   4.600   7.005  0.1491 -0.0886  0.3289
    1BTD     C712633   0.939   4.552   7.075  0.1279 -0.0255  0.4106
    1BTD     C812634   0.926   4.466   7.190  0.0942  0.0074  0.4312
    1BTD    C1512635   0.797   4.430   7.234  0.0821 -0.0208  0.3733
    1BTD    C1612636   0.680   4.476   7.168  0.1026 -0.0817  0.2946
    1BTD    C4312637   0.464   4.387   7.298  1.2999 -0.7505 -0.2104
    1BTD    C4412638   0.300   4.414   7.339 -0.8507  0.0535 -0.0318
    1BTD    C4512639   0.233   4.309   7.417  0.3607  1.2282 -0.1045
    1BTD    C4612640   0.075   4.314   7.404 -0.5106 -0.2964  0.6454
    1BTD    C4712641   0.304   4.549   7.428  0.0055  1.2036  0.3418
    1BTD    C4812642   0.339   4.695   7.374 -1.4991 -0.4690  0.1828
    1BTD    C4912643   0.321   4.810   7.451 -0.3324  0.7493 -0.8743
    1BTD    C5012644   0.416   4.928   7.427 -0.4316  0.2415  0.3004
    1BTD    C7512645   0.714   4.350   7.463  0.6174  0.6531  0.2174
    1BTD    C7612646   0.711   4.227   7.559  1.0322 -0.2633 -1.0703
    1BTD    C7712647   0.710   4.077   7.517  0.0372  1.2729  0.1405
    1BTD    C7812648   0.566   4.034   7.524 -0.4164 -0.0607 -0.0609
    1BTD    C7912649   0.625   4.272   7.707  0.0509  0.1767 -0.9407
    1BTD    C8012650   0.482   4.318   7.691 -0.1669  0.5230  1.5053
    1BTD    C8112651   0.400   4.375   7.802  0.0233 -0.6178  0.5877
    1BTD    C8212652   0.388   4.314   7.936 -0.9394  0.4945 -1.5673
    2TTP     S112653   0.504   4.629   6.829  0.1766  0.3475 -0.2992
    2TTP     S512654   0.215   4.394   7.044  0.5572 -0.0411 -0.2096
    2TTP     C112655   0.144   4.440   6.883  0.4311 -0.1026 -0.1720
    2TTP     C212656   0.229   4.515   6.807  0.3062  0.0137 -0.1974
    2TTP     C312657   0.353   4.539   6.874  0.3055  0.1557 -0.2475
    2TTP     C412658   0.574   4.584   6.991  0.3026  0.4090 -0.3368
    2TTP    C1712659   0.489   4.508   7.067  0.4276  0.2927 -0.3113
    2TTP    C1812660   0.365   4.484   7.000  0.4283  0.1507 -0.2613
    2TTP    C3212661   0.189   4.610   6.680  0.1017 -0.2239  0.2326
    2TTP    C3312662   0.157   4.525   6.553 -1.0692  0.1516 -0.0139
    2TTP    C3412663   0.293   4.454   6.512  0.6278 -0.6645 -0.0953
    2TTP    C3512664   0.375   4.555   6.435  0.2831 -0.2602  0.1952
    2TTP    C3612665   0.502   4.612   6.500 -0.6835 -1.4595  1.8287
    2TTP    C3712666   0.636   4.563   6.437  0.4160  1.1410  0.7480
    2TTP    C3812667   0.713   4.443   6.496 -0.8129 -0.8151  0.8861
    2TTP    C3912668   0.699   4.387   6.630 -1.4234  0.4184 -1.2331
    2TTP    C4012669   0.807   4.289   6.667  0.1751  0.1778 -0.1492
    2TTP    C4112670   0.768   4.173   6.756 -0.7282 -0.1824 -0.3626
    2TTP    C4212671   0.879   4.079   6.755 -0.7155  0.9335 -0.5186
    3TTP     S112672   1.200   4.356   7.248  0.0184  0.1902 -0.1684
    3TTP     S512673   1.010   4.049   7.482  0.4611 -0.1079 -0.1965
    3TTP     C112674   1.187   4.011   7.470  0.4558 -0.0421 -0.5003
    3TTP     C212675   1.256   4.104   7.397  0.3187  0.0539 -0.5094
    3TTP     C312676   1.172   4.208   7.348  0.2130  0.0789 -0.2768
    3TTP     C412677   1.022   4.394   7.260  0.0237  0.1245  0.1355
    3TTP    C1712678   0.953   4.301   7.333  0.1607  0.0286  0.1448
    3TTP    C1812679   1.038   4.197   7.382  0.2664  0.0036 -0.0879
    3TTP    C3212680   1.414   4.120   7.383  0.3890 -0.2768 -0.7557
    3TTP    C3312681   1.470   4.081   7.249 -1.2007  0.9600 -0.6090
    3TTP    C3412682   1.616   4.125   7.230  0.9533  0.2283 -1.4286
    3TTP    C3512683   1.683   4.074   7.104  0.3235  0.5210  0.9791
    3TTP    C3612684   1.696   4.133   6.961  0.2608  0.9718  0.1937
    3TTP    C3712685   1.585   4.223   6.901 -1.7942  0.3600  1.8196
    3TTP    C3812686   1.453   4.179   6.856 -0.3360  0.3219 -0.4469
    3TTP    C3912687   1.376   4.280   6.772  0.5219 -0.4345 -0.6572
    3TTP    C4012688   1.399   4.424   6.760  1.0188 -1.2604  1.5615
    3TTP    C4112689   1.476   4.475   6.630 -0.0471  0.7518  0.5964
    3TTP    C4212690   1.436   4.420   6.489 -0.0834  0.2464  0.5656
    4FIC     F112691  -0.352   3.801   6.997 -0.0710  0.5462  0.7728
    4FIC     F212692  -0.549   3.936   6.866  0.2038  0.1483 -0.0637
    4FIC     O112693   0.059   4.151   6.953 -0.1150  0.6280  1.0096
    4FIC     N512694  -0.539   4.379   6.646  0.5677 -0.3654 -1.0979
    4FIC     N612695  -0.179   4.625   6.638  0.4778 -0.2214 -0.7441
    4FIC    C1912696   0.016   4.404   6.812  0.1320  0.2769  0.2944
    4FIC    C2012697  -0.079   4.311   6.829  0.1323  0.2718  0.2675
    4FIC    C2112698  -0.050   4.183   6.902  0.0012  0.4586  0.6495
    4FIC    C2212699  -0.175   4.105   6.901  0.0379  0.4005  0.5103
    4FIC    C2312700  -0.197   3.979   6.957 -0.0491  0.5229  0.7532
    4FIC    C2412701  -0.323   3.925   6.944  0.0092  0.4340  0.5517
    4FIC    C2512702  -0.425   3.994   6.876  0.1511  0.2290  0.1205
    4FIC    C2612703  -0.404   4.120   6.820  0.2389  0.1061 -0.1236
    4FIC    C2712704  -0.276   4.176   6.833  0.1812  0.1934  0.0747
    4FIC    C2812705  -0.221   4.306   6.785  0.2449  0.1061 -0.0914
    4FIC    C2912706  -0.289   4.402   6.715  0.3817 -0.0907 -0.5001
    4FIC    C3012707  -0.426   4.389   6.678  0.4835 -0.2409 -0.8274
    4FIC    C3112708  -0.228   4.525   6.673  0.4337 -0.1615 -0.6320
    5FIC     F112709   0.928   3.298   7.789  0.5880 -0.5937  0.0970
    5FIC     F212710   1.186   3.241   7.856  0.6145  0.1276  0.6243
    5FIC     O112711   0.986   3.786   7.563 -0.2155 -0.7641 -0.4842
    5FIC     N512712   1.597   3.509   7.791  0.0799  1.0434  0.9681
    5FIC     N612713   1.590   3.902   7.601 -0.5532  0.7648  0.4075
    5FIC    C1912714   1.252   3.906   7.546 -0.4755 -0.1353 -0.1872
    5FIC    C2012715   1.228   3.785   7.601 -0.2744 -0.1208 -0.0615
    5FIC    C2112716   1.088   3.730   7.605 -0.1509 -0.4557 -0.2284
    5FIC    C2212717   1.097   3.598   7.670  0.0602 -0.3446 -0.0285
    5FIC    C2312718   0.993   3.510   7.697  0.2296 -0.5615 -0.0854
    5FIC    C2412719   1.026   3.390   7.759  0.4142 -0.3953  0.1385
    5FIC    C2512720   1.159   3.361   7.794  0.4274 -0.0237  0.4099
    5FIC    C2612721   1.263   3.449   7.768  0.2590  0.1944  0.4681
    5FIC    C2712722   1.232   3.571   7.704  0.0709  0.0311  0.2443
    5FIC    C2812723   1.317   3.685   7.663 -0.1343  0.1833  0.2348
    5FIC    C2912724   1.453   3.695   7.679 -0.1845  0.5385  0.4581
    5FIC    C3012725   1.532   3.592   7.741 -0.0389  0.8149  0.7378
    5FIC    C3112726   1.528   3.808   7.636 -0.3871  0.6611  0.4289
    1BTD     S212727   4.508   5.292   8.243 -0.3737  0.2900  0.3828
    1BTD     N112728   4.423   5.200   8.372  0.6418 -0.8813  0.2618
    1BTD     N212729   4.408   5.225   8.110 -1.4752  1.5607  0.5276
    1BTD     N312730   4.051   4.923   8.070 -1.8859  2.0354  0.6053
    1BTD     N412731   4.069   4.893   8.394  0.7228 -0.9736  0.2775
    1BTD     C512732   4.238   5.040   8.380  0.6528 -0.8932  0.2737
    1BTD     C612733   4.329   5.128   8.312  0.1340 -0.2952  0.3319
    1BTD     C712734   4.321   5.142   8.165 -1.0511  1.0717  0.4809
    1BTD     C812735   4.222   5.067   8.093 -1.6581  1.7722  0.5646
    1BTD    C1512736   4.134   4.982   8.163 -1.1158  1.1471  0.5029
    1BTD    C1612737   4.142   4.969   8.305  0.0259 -0.1698  0.3592
    1BTD    C4312738   4.000   4.758   8.363  0.3049 -0.5517  0.0290
    1BTD    C4412739   3.880   4.700   8.439 -0.9233  0.3932  0.0239
    1BTD    C4512740   3.868   4.531   8.420 -0.0041  0.0325 -0.6630
    1BTD    C4612741   3.790   4.469   8.324  0.2190  0.5600  0.1968
    1BTD    C4712742   3.772   4.793   8.401  0.0531  0.0486 -1.4223
    1BTD    C4812743   3.667   4.785   8.493 -0.2793  0.5109 -1.1924
    1BTD    C4912744   3.546   4.850   8.432 -0.0350 -0.6011  1.5467
    1BTD    C5012745   3.440   4.915   8.497 -0.9967 -0.5329 -0.7624
    1BTD    C7512746   3.918   4.866   8.072 -0.5011  0.1975 -1.0906
    1BTD    C7612747   3.811   4.947   8.013  0.9117  0.1423  0.8735
    1BTD    C7712748   3.813   5.102   8.062 -0.0753  0.9261 -0.0511
    1BTD    C7812749   3.764   5.117   8.198 -0.0546 -1.3398 -0.6603
    1BTD    C7912750   3.676   4.869   7.985 -0.7765 -1.1706 -0.5286
    1BTD    C8012751   3.571   4.927   7.889 -0.6439  1.2300 -0.3251
    1BTD    C8112752   3.604   4.877   7.751 -1.5970 -0.1389  0.1151
    1BTD    C8212753   3.509   4.941   7.658  0.5650  0.1235  0.5058
    2TTP     S112754   4.324   5.006   8.656  0.3364  0.0476  0.0043
    2TTP     S512755   4.049   4.680   8.712 -0.0281  0.1686 -1.0293
    2TTP     C112756   4.166   4.681   8.851 -0.4306 -0.0011 -0.6833
    2TTP     C212757   4.258   4.782   8.842 -0.3417 -0.0484 -0.3438
    2TTP     C312758   4.239   4.862   8.725  0.0474  0.0476 -0.3445
    2TTP     C412759   4.206   5.004   8.517  0.7389  0.2172 -0.3414
    2TTP    C1712760   4.115   4.903   8.526  0.6498  0.2646 -0.6811
    2TTP    C1812761   4.134   4.824   8.643  0.2607  0.1686 -0.6804
    2TTP    C3212762   4.375   4.805   8.931  1.1523  0.5190  0.1543
    2TTP    C3312763   4.504   4.760   8.891 -0.9699  0.8468 -1.2859
    2TTP    C3412764   4.624   4.770   9.003  0.3336  0.4572  0.0069
    2TTP    C3512765   4.728   4.678   8.946 -0.4628 -1.6130 -1.3521
    2TTP    C3612766   4.803   4.649   9.072 -1.1236 -0.3063  0.6060
    2TTP    C3712767   4.895   4.537   9.030 -0.0771  1.0963 -0.2347
    2TTP    C3812768   4.939   4.457   9.148 -0.8573  0.2475 -0.0830
    2TTP    C3912769   5.039   4.533   9.237 -0.5222  0.4653 -0.7086
    2TTP    C4012770   4.981   4.540   9.376  0.3862  1.6634 -0.8785
    2TTP    C4112771   5.014   4.675   9.442  0.0174  0.8753  0.0266
    2TTP    C4212772   4.954   4.721   9.571  1.2561 -0.1196 -0.6407
    3TTP     S112773   4.288   5.082   7.798 -0.4893 -0.1004  0.0087
    3TTP     S512774   3.989   4.782   7.730 -0.1803 -0.4028 -0.0207
    3TTP     C112775   4.077   4.812   7.573 -0.2789 -0.2232 -0.0420
    3TTP     C212776   4.175   4.907   7.585 -0.3802 -0.1192 -0.0342
    3TTP     C312777   4.183   4.959   7.718 -0.3834 -0.1776 -0.0110
    3TTP     C412778   4.200   5.052   7.954 -0.3908 -0.2800  0.0302
    3TTP    C1712779   4.102   4.957   7.942 -0.2894 -0.3839  0.0221
    3TTP    C1812780   4.094   4.905   7.809 -0.2861 -0.3254 -0.0010
    3TTP    C3212781   4.270   4.967   7.473 -0.0621  0.2528  0.1337
    3TTP    C3312782   4.192   5.043   7.371 -0.1777  0.0395 -0.0618
    3TTP    C3412783   4.271   5.114   7.268 -1.2487 -0.7826  0.1884
    3TTP    C3512784   4.187   5.110   7.145 -0.7416 -0.7942  0.2963
    3TTP    C3612785   4.265   5.143   7.025  0.8999 -0.3627  0.4093
    3TTP    C3712786   4.356   5.038   6.942 -0.3654 -0.4068 -0.3204
    3TTP    C3812787   4.271   4.933   6.870  0.1629 -0.1741  0.9253
    3TTP    C3912788   4.162   4.963   6.773  1.5285  0.3322  0.9045
    3TTP    C4012789   4.060   4.845   6.733 -0.0233 -1.3183 -1.6673
    3TTP    C4112790   3.948   4.880   6.637  0.6921  0.1945 -0.8823
    3TTP    C4212791   3.883   4.762   6.552  0.4540  0.1909 -0.3326
    4FIC     F112792   3.787   3.985   9.073  0.3475 -0.3000  0.0060
    4FIC     F212793   3.934   3.985   9.303  0.3676 -0.4124 -0.0067
    4FIC     O112794   3.973   4.434   8.834  0.3101 -0.1705  0.2196
    4FIC     N512795   4.277   4.304   9.462  0.3703 -0.4815  0.1273
    4FIC     N612796   4.392   4.654   9.228  0.3371 -0.3575  0.2964
    4FIC    C1912797   4.179   4.593   8.968  0.3163 -0.2319  0.2831
    4FIC    C2012798   4.126   4.480   9.019  0.3247 -0.2600  0.2298
    4FIC    C2112799   4.021   4.403   8.944  0.3210 -0.2253  0.1998
    4FIC    C2212800   3.986   4.287   9.028  0.3327 -0.2694  0.1433
    4FIC    C2312801   3.893   4.187   9.000  0.3337 -0.2586  0.1004
    4FIC    C2412802   3.878   4.087   9.094  0.3457 -0.3075  0.0503
    4FIC    C2512803   3.953   4.087   9.212  0.3561 -0.3654  0.0439
    4FIC    C2612804   4.046   4.186   9.241  0.3551 -0.3766  0.0868
    4FIC    C2712805   4.063   4.288   9.146  0.3430 -0.3275  0.1378
    4FIC    C2812806   4.153   4.407   9.146  0.3387 -0.3240  0.1907
    4FIC    C2912807   4.242   4.442   9.244  0.3462 -0.3711  0.2010
    4FIC    C3012808   4.261   4.366   9.363  0.3595 -0.4317  0.1605
    4FIC    C3112809   4.324   4.559   9.235  0.3411 -0.3633  0.2534
    5FIC     F112810   3.554   4.207   7.392 -0.2314  0.4600  0.0526
    5FIC     F212811   3.674   4.182   7.149 -0.2812  0.1853  0.0564
    5FIC     O112812   3.841   4.615   7.605  0.3225  0.1856 -0.1625
    5FIC     N512813   4.050   4.435   6.951  0.0416 -0.4053 -0.0912
    5FIC     N612814   4.250   4.759   7.166  0.4845 -0.5643 -0.2601
    5FIC    C1912815   4.057   4.735   7.448  0.4715 -0.1743 -0.2352
    5FIC    C2012816   3.980   4.634   7.404  0.3342 -0.0948 -0.1812
    5FIC    C2112817   3.871   4.577   7.490  0.2649  0.0908 -0.1465
    5FIC    C2212818   3.808   4.469   7.413  0.1165  0.1366 -0.0902
    5FIC    C2312819   3.702   4.387   7.451  0.0108  0.2946 -0.0439
    5FIC    C2412820   3.659   4.291   7.361 -0.1221  0.3074  0.0051
    5FIC    C2512821   3.721   4.278   7.236 -0.1474  0.1657  0.0068
    5FIC    C2612822   3.826   4.359   7.196 -0.0425  0.0075 -0.0393
    5FIC    C2712823   3.871   4.457   7.287  0.0925 -0.0077 -0.0893
    5FIC    C2812824   3.979   4.558   7.276  0.2254 -0.1554 -0.1450
    5FIC    C2912825   4.063   4.577   7.169  0.2439 -0.3176 -0.1600
    5FIC    C3012826   4.056   4.499   7.050  0.1326 -0.3653 -0.1221
    5FIC    C3112827   4.165   4.677   7.168  0.3761 -0.4524 -0.2151
    1BTD     S212828   6.718   2.189   0.515  0.1790 -0.0045  0.3005
    1BTD     N112829   6.742   2.274   0.358 -0.1093  0.3775  0.4598
    1BTD     N212830   6.893   2.158   0.542  0.2279 -0.0919 -0.1065
    1BTD     N312831   7.293   2.248   0.313 -0.1929  0.4199 -0.6481
    1BTD     N412832   7.107   2.391   0.087 -0.6083  0.9983  0.0498
    1BTD     C512833   6.935   2.333   0.219 -0.3647  0.6946  0.2373
    1BTD     C612834   6.873   2.275   0.335 -0.1519  0.4181  0.2142
    1BTD     C712835   6.957   2.210   0.438  0.0368  0.1554 -0.1028
    1BTD     C812836   7.100   2.207   0.420  0.0030  0.1823 -0.3808
    1BTD    C1512837   7.156   2.265   0.305 -0.2081  0.4575 -0.3468
    1BTD    C1612838   7.075   2.328   0.206 -0.3900  0.7105 -0.0413
    1BTD    C4312839   7.232   2.439   0.014  0.8613 -1.0578 -1.2003
    1BTD    C4412840   7.277   2.384  -0.127  0.4130  0.6003 -0.0161
    1BTD    C4512841   7.414   2.428  -0.181  0.4143 -0.0676 -0.3152
    1BTD    C4612842   7.430   2.580  -0.159 -1.1953  0.8303  0.1128
    1BTD    C4712843   7.210   2.241  -0.152  1.2543 -0.3862  0.1385
    1BTD    C4812844   7.274   2.147  -0.233 -0.7574  0.4576  0.3825
    1BTD    C4912845   7.201   1.999  -0.235 -0.3825 -0.4325 -0.5362
    1BTD    C5012846   7.257   1.880  -0.313 -0.9732  0.3814  0.8393
    1BTD    C7512847   7.386   2.226   0.204  0.7250 -1.2171  0.5050
    1BTD    C7612848   7.543   2.256   0.229 -0.1215  1.0551  2.0601
    1BTD    C7712849   7.643   2.212   0.115 -0.4908 -1.8399  0.2824
    1BTD    C7812850   7.801   2.230   0.153 -0.9430  0.2905 -0.5946
    1BTD    C7912851   7.578   2.400   0.268  1.3053 -2.2482 -0.7312
    1BTD    C8012852   7.516   2.510   0.184  0.9549 -0.8052  0.4325
    1BTD    C8112853   7.533   2.649   0.243  0.4823 -0.9481 -0.0667
    1BTD    C8212854   7.646   2.742   0.205  0.8215  1.7497  0.1269
    2TTP     S112855   6.722   2.447   0.035 -0.2128 -0.2843 -0.4703
    2TTP     S512856   7.031   2.578  -0.233  0.0303  0.2421  0.0629
    2TTP     C112857   6.870   2.624  -0.303  0.0688 -0.0449 -0.2223
    2TTP     C212858   6.765   2.587  -0.225 -0.0041 -0.2244 -0.4034
    2TTP     C312859   6.808   2.520  -0.106 -0.0929 -0.1417 -0.3240
    2TTP     C412860   6.883   2.400   0.105 -0.2513  0.0026 -0.1854
    2TTP    C1712861   6.988   2.437   0.027 -0.1784  0.1821 -0.0040
    2TTP    C1812862   6.945   2.505  -0.092 -0.0896  0.0994 -0.0834
    2TTP    C3212863   6.615   2.625  -0.254  1.4271 -0.3835  0.1451
    2TTP    C3312864   6.527   2.701  -0.133 -0.4628 -0.1600  0.6063
    2TTP    C3412865   6.414   2.598  -0.134 -0.3394 -0.4349 -1.0113
    2TTP    C3512866   6.273   2.611  -0.078  1.2796  0.0444 -0.6189
    2TTP    C3612867   6.222   2.470  -0.119 -0.5955 -0.6370  0.4138
    2TTP    C3712868   6.087   2.404  -0.094 -0.4287 -0.3174 -0.6138
    2TTP    C3812869   5.972   2.479  -0.166  0.2076  0.1045  0.0829
    2TTP    C3912870   5.992   2.461  -0.313 -0.1920  0.0981  1.4833
    2TTP    C4012871   5.890   2.500  -0.401  0.2240 -0.0821 -0.3438
    2TTP    C4112872   5.950   2.470  -0.539 -0.3816  0.6079 -0.2769
    2TTP    C4212873   5.829   2.447  -0.616  0.2278 -0.0559 -1.4508
    3TTP     S112874   7.207   2.119   0.684  0.0225 -0.7311 -0.7831
    3TTP     S512875   7.605   2.195   0.541  0.1830  0.7573  0.4019
    3TTP     C112876   7.615   2.150   0.717 -0.1427  0.4063  0.3330
    3TTP     C212877   7.492   2.124   0.772 -0.2114 -0.0741 -0.0370
    3TTP     C312878   7.387   2.138   0.677 -0.0092 -0.1822 -0.2795
    3TTP     C412879   7.198   2.163   0.508  0.3484 -0.3802 -0.7143
    3TTP    C1712880   7.320   2.189   0.454  0.4170  0.1002 -0.3443
    3TTP    C1812881   7.426   2.175   0.549  0.2149  0.2084 -0.1018
    3TTP    C3212882   7.443   2.097   0.911  0.3159  0.1033  0.5020
    3TTP    C3312883   7.466   2.230   0.985  0.7956  0.9540  0.0421
    3TTP    C3412884   7.337   2.282   1.062 -0.1066  0.1673  0.3768
    3TTP    C3512885   7.383   2.390   1.170 -1.5181 -0.6281  0.1550
    3TTP    C3612886   7.280   2.454   1.260  0.9068 -0.3076 -0.5566
    3TTP    C3712887   7.152   2.504   1.201 -0.4913  0.0982 -0.2661
    3TTP    C3812888   7.157   2.650   1.208  0.4316 -0.7592 -0.6888
    3TTP    C3912889   7.234   2.709   1.086 -0.0338  0.5175  0.0881
    3TTP    C4012890   7.270   2.857   1.091  0.3469  0.2267 -0.3951
    3TTP    C4112891   7.423   2.873   1.084  0.2231  0.7289 -0.3340
    3TTP    C4212892   7.496   3.004   1.042  0.0175  1.0185 -0.4834
    4FIC     F112893   7.330   2.681  -0.987 -0.2748 -0.5774 -0.2217
    4FIC     F212894   7.116   2.794  -1.113 -0.0961 -0.0419 -0.0482
    4FIC     O112895   7.124   2.594  -0.494 -0.2905 -0.6505 -0.2413
    4FIC     N512896   6.663   2.895  -0.942  0.1494  0.6760  0.1874
    4FIC     N612897   6.545   2.804  -0.531  0.1010  0.5110  0.1373
    4FIC    C1912898   6.847   2.672  -0.439 -0.1256 -0.1647 -0.0824
    4FIC    C2012899   6.907   2.689  -0.558 -0.1285 -0.1673 -0.0844
    4FIC    C2112900   7.050   2.647  -0.579 -0.2160 -0.4251 -0.1686
    4FIC    C2212901   7.084   2.680  -0.718 -0.1953 -0.3565 -0.1476
    4FIC    C2312902   7.205   2.659  -0.784 -0.2548 -0.5294 -0.2041
    4FIC    C2412903   7.213   2.699  -0.916 -0.2197 -0.4180 -0.1690
    4FIC    C2512904   7.103   2.757  -0.981 -0.1274 -0.1420 -0.0796
    4FIC    C2612905   6.982   2.778  -0.916 -0.0678  0.0317 -0.0226
    4FIC    C2712906   6.972   2.738  -0.782 -0.1023 -0.0774 -0.0567
    4FIC    C2812907   6.859   2.746  -0.686 -0.0576  0.0498 -0.0148
    4FIC    C2912908   6.733   2.797  -0.711  0.0325  0.3177  0.0725
    4FIC    C3012909   6.695   2.851  -0.838  0.0964  0.5138  0.1354
    4FIC    C3112910   6.631   2.801  -0.612  0.0696  0.4225  0.1075
    5FIC     F112911   8.250   2.657   0.809  0.2162 -0.1403  0.1328
    5FIC     F212912   8.339   2.503   1.015  0.1385 -0.0852  0.2074
    5FIC     O112913   7.806   2.383   0.662  0.2818 -0.1900  0.0266
    5FIC     N512914   8.151   2.088   1.208  0.0734 -0.0415  0.2390
    5FIC     N612915   7.786   1.905   1.052  0.1403 -0.0915  0.1411
    5FIC    C1912916   7.733   2.139   0.807  0.2308 -0.1552  0.0602
    5FIC    C2012917   7.842   2.214   0.836  0.2174 -0.1448  0.0840
    5FIC    C2112918   7.872   2.338   0.757  0.2456 -0.1640  0.0644
    5FIC    C2212919   7.996   2.395   0.814  0.2211 -0.1460  0.0989
    5FIC    C2312920   8.063   2.510   0.774  0.2341 -0.1544  0.0962
    5FIC    C2412921   8.178   2.544   0.843  0.2058 -0.1336  0.1332
    5FIC    C2512922   8.224   2.465   0.950  0.1654 -0.1051  0.1716
    5FIC    C2612923   8.157   2.350   0.990  0.1523 -0.0967  0.1745
    5FIC    C2712924   8.040   2.314   0.921  0.1807 -0.1175  0.1374
    5FIC    C2812925   7.948   2.200   0.939  0.1769 -0.1156  0.1298
    5FIC    C2912926   7.958   2.100   1.033  0.1425 -0.0914  0.1595
    5FIC    C3012927   8.064   2.094   1.129  0.1047 -0.0641  0.2031
    5FIC    C3112928   7.863   1.993   1.043  0.1415 -0.0916  0.1492
    1BTD     S212929   0.772   5.721   0.393 -0.2261  0.2232  0.0601
    1BTD     N112930   0.875   5.867   0.413  0.0826  0.0366 -0.1494
    1BTD     N212931   0.844   5.632   0.532 -0.4126  0.2692  0.1868
    1BTD     N312932   1.178   5.716   0.852 -0.2353  0.0261  0.0667
    1BTD     N412933   1.216   6.005   0.705  0.3749 -0.2607 -0.3476
    1BTD     C512934   1.053   5.935   0.567  0.2278 -0.1152 -0.2479
    1BTD     C612935   0.954   5.843   0.517  0.0333  0.0191 -0.1158
    1BTD     C712936   0.937   5.712   0.583 -0.2439  0.1495  0.0723
    1BTD     C812937   1.019   5.680   0.697 -0.3127  0.1388  0.1191
    1BTD    C1512938   1.114   5.773   0.743 -0.1157  0.0051 -0.0146
    1BTD    C1612939   1.131   5.899   0.679  0.1515 -0.1204 -0.1960
    1BTD    C4312940   1.357   5.987   0.737 -1.0850  0.2928 -0.2925
    1BTD    C4412941   1.471   6.084   0.705  1.5695  0.7602  0.5736
    1BTD    C4512942   1.509   6.116   0.558  1.7822 -0.1892 -0.2763
    1BTD    C4612943   1.488   6.027   0.453  0.7125 -0.6464  0.9151
    1BTD    C4712944   1.578   6.110   0.808 -0.9286  0.0321 -0.8623
    1BTD    C4812945   1.535   6.160   0.951  0.4093 -1.2332  1.5515
    1BTD    C4912946   1.559   6.313   0.974 -0.3460  1.4355  1.4216
    1BTD    C5012947   1.498   6.348   1.098 -1.0896 -0.7025  0.1740
    1BTD    C7512948   1.222   5.796   0.965  1.0938 -0.2431 -0.1784
    1BTD    C7612949   1.338   5.770   1.057 -0.6831  0.3093 -0.3667
    1BTD    C7712950   1.457   5.732   0.977 -0.7396  0.0923  0.3825
    1BTD    C7812951   1.593   5.680   1.036 -0.3456 -0.5816  0.8547
    1BTD    C7912952   1.353   5.851   1.186  0.0462 -0.4220  0.0913
    1BTD    C8012953   1.367   5.733   1.303 -0.0565 -0.2881  1.2410
    1BTD    C8112954   1.453   5.746   1.418 -0.0836 -0.3685 -0.1142
    1BTD    C8212955   1.565   5.653   1.362  0.3611  0.2511 -0.1452
    2TTP     S112956   0.979   6.212   0.454 -0.1374  0.2985 -0.0947
    2TTP     S512957   1.248   6.383   0.742 -0.2624  0.0974  0.1428
    2TTP     C112958   1.158   6.518   0.659 -0.1655  0.1595  0.1381
    2TTP     C212959   1.070   6.473   0.565 -0.1212  0.2252  0.0645
    2TTP     C312960   1.070   6.331   0.556 -0.1622  0.2289  0.0092
    2TTP     C412961   1.069   6.077   0.537 -0.2343  0.2363 -0.0900
    2TTP    C1712962   1.157   6.122   0.631 -0.2786  0.1707 -0.0164
    2TTP    C1812963   1.157   6.265   0.641 -0.2377  0.1670  0.0390
    2TTP    C3212964   0.964   6.555   0.497  0.4322  1.5260  1.7484
    2TTP    C3312965   0.824   6.512   0.555  0.3949  0.1676 -0.8395
    2TTP    C3412966   0.696   6.579   0.507  0.4822  0.7516 -0.1917
    2TTP    C3512967   0.676   6.728   0.506  0.0951 -0.9813 -1.3750
    2TTP    C3612968   0.560   6.777   0.432 -0.5198  0.1288  0.4920
    2TTP    C3712969   0.548   6.925   0.385  0.2045 -0.2373  0.0774
    2TTP    C3812970   0.665   6.975   0.307 -1.1002 -0.7413  0.3960
    2TTP    C3912971   0.670   7.124   0.273 -0.0024 -0.5683 -1.6824
    2TTP    C4012972   0.656   7.148   0.124  0.5615 -0.2854  0.3706
    2TTP    C4112973   0.720   7.263   0.050 -0.6043 -0.2593  1.2746
    2TTP    C4212974   0.878   7.277   0.073  0.2147 -0.8765  0.4731
    3TTP     S112975   1.019   5.375   0.744 -0.1415  0.3204 -0.3447
    3TTP     S512976   1.290   5.430   1.073 -0.6304 -0.8448  0.2672
    3TTP     C112977   1.268   5.252   1.047 -1.0944 -0.7516  0.0171
    3TTP     C212978   1.183   5.224   0.943 -0.9707 -0.3862 -0.1866
    3TTP     C312979   1.132   5.343   0.882 -0.5052 -0.1667 -0.1525
    3TTP     C412980   1.042   5.553   0.771  0.3225  0.2271 -0.0946
    3TTP    C1712981   1.127   5.581   0.874  0.1988 -0.1381  0.1091
    3TTP    C1812982   1.177   5.462   0.936 -0.2668 -0.3575  0.0750
    3TTP    C3212983   1.138   5.076   0.898 -0.9516 -2.4039  0.0163
    3TTP    C3312984   0.998   5.046   0.853  1.0458  2.0559  0.2717
    3TTP    C3412985   1.006   5.046   0.693  0.1819  0.1154  0.2815
    3TTP    C3512986   0.884   4.997   0.622 -0.8402  0.0707 -0.6778
    3TTP    C3612987   0.846   4.855   0.609  0.4769  0.9908 -0.5811
    3TTP    C3712988   0.944   4.782   0.509  0.0089 -0.9582 -0.5790
    3TTP    C3812989   0.924   4.634   0.473  0.4639 -0.5618 -1.1768
    3TTP    C3912990   0.921   4.525   0.596 -1.1709  1.0682 -0.3739
    3TTP    C4012991   0.826   4.527   0.713  0.0115  1.0796 -0.7511
    3TTP    C4112992   0.864   4.472   0.857 -0.8400 -0.9264  0.1625
    3TTP    C4212993   0.774   4.486   0.970 -0.7626 -0.4276 -0.2608
    4FIC     F112994   1.485   6.983   1.248  0.3081  0.0473  0.0107
    4FIC     F212995   1.488   7.191   1.073 -0.7155  0.4115  0.4089
    4FIC     O112996   1.264   6.594   0.943  0.9597 -0.0730 -0.3116
    4FIC     N512997   1.335   7.213   0.603 -1.7226  0.8490  0.7519
    4FIC     N612998   1.161   6.868   0.400 -1.0071  0.6815  0.4198
    4FIC    C1912999   1.188   6.655   0.667  0.2133  0.2322 -0.0455
    4FIC    C2013000   1.243   6.745   0.751  0.0894  0.2481  0.0200
    4FIC    C2113001   1.280   6.706   0.891  0.4947  0.0850 -0.1260
    4FIC    C2213002   1.337   6.826   0.954  0.2307  0.1500 -0.0054
    4FIC    C2313003   1.385   6.839   1.084  0.4472  0.0482 -0.0744
    4FIC    C2413004   1.435   6.963   1.121  0.1196  0.1397  0.0684
    4FIC    C2513005   1.437   7.070   1.031 -0.4076  0.3272  0.2735
    4FIC    C2613006   1.389   7.058   0.901 -0.6262  0.4296  0.3434
    4FIC    C2713007   1.338   6.933   0.861 -0.3007  0.3394  0.2010
    4FIC    C2813008   1.280   6.887   0.733 -0.4085  0.4071  0.2248
    4FIC    C2913009   1.264   6.963   0.619 -0.8798  0.5835  0.4028
    4FIC    C3013010   1.303   7.100   0.610 -1.3415  0.7287  0.5941
    4FIC    C3113011   1.208   6.910   0.499 -0.9471  0.6365  0.4111
    5FIC     F113012   1.967   5.185   1.470  0.2611 -0.0225 -0.0016
    5FIC     F213013   1.865   4.963   1.591  0.4351 -0.0904  0.0221
    5FIC     O113014   1.568   5.308   1.126 -0.0747 -0.0492  0.3766
    5FIC     N513015   1.433   4.732   1.518  0.4458 -0.2072  0.3257
    5FIC     N613016   1.142   4.873   1.225  0.1484 -0.2143  0.6165
    5FIC    C1913017   1.328   5.139   1.118 -0.0278 -0.1236  0.5336
    5FIC    C2013018   1.433   5.117   1.200  0.0499 -0.1143  0.4375
    5FIC    C2113019   1.553   5.208   1.198  0.0193 -0.0755  0.3611
    5FIC    C2213020   1.647   5.156   1.299  0.1226 -0.0747  0.2651
    5FIC    C2313021   1.772   5.207   1.333  0.1359 -0.0448  0.1726
    5FIC    C2413022   1.843   5.140   1.432  0.2420 -0.0509  0.0921
    5FIC    C2513023   1.790   5.026   1.493  0.3315 -0.0858  0.1045
    5FIC    C2613024   1.665   4.974   1.460  0.3189 -0.1159  0.1966
    5FIC    C2713025   1.592   5.041   1.360  0.2121 -0.1103  0.2789
    5FIC    C2813026   1.458   5.012   1.302  0.1709 -0.1359  0.3854
    5FIC    C2913027   1.374   4.909   1.336  0.2331 -0.1729  0.4275
    5FIC    C3013028   1.407   4.812   1.436  0.3499 -0.1917  0.3714
    5FIC    C3113029   1.247   4.890   1.275  0.1861 -0.1955  0.5312
    1BTD     S213030   1.992   5.442   6.758 -0.1441 -0.6342  0.6322
    1BTD     N113031   1.855   5.522   6.843  0.0238 -0.0764  0.3897
    1BTD     N213032   2.112   5.478   6.887 -0.0841 -0.5556  0.5550
    1BTD     N313033   2.109   5.695   7.304  0.3414  0.6113 -0.0401
    1BTD     N413034   1.792   5.748   7.249  0.4742  1.2021 -0.2439
    1BTD     C513035   1.826   5.639   7.056  0.2574  0.5839  0.0613
    1BTD     C613036   1.903   5.568   6.957  0.1114  0.1290  0.2700
    1BTD     C713037   2.047   5.544   6.982  0.0511 -0.1392  0.3624
    1BTD     C813038   2.106   5.592   7.104  0.1397  0.0607  0.2419
    1BTD    C1513039   2.027   5.661   7.198  0.2820  0.5072  0.0384
    1BTD    C1613040   1.888   5.684   7.174  0.3402  0.7658 -0.0509
    1BTD    C4313041   1.795   5.737   7.398  0.6830  0.0224 -0.4210
    1BTD    C4413042   1.715   5.824   7.505  0.9041 -0.0663  0.6506
    1BTD    C4513043   1.566   5.753   7.541  0.1343 -0.3257  2.2013
    1BTD    C4613044   1.547   5.679   7.659 -0.6414  0.4241 -0.0895
    1BTD    C4713045   1.812   5.931   7.570  0.7988 -0.1071 -1.9059
    1BTD    C4813046   1.726   6.021   7.647  0.2717 -1.1774  0.3046
    1BTD    C4913047   1.658   6.127   7.557  0.0112 -1.1465  0.0723
    1BTD    C5013048   1.744   6.247   7.528 -0.2433 -0.7592 -0.7238
    1BTD    C7513049   2.105   5.803   7.399  1.3424  0.2530 -0.5090
    1BTD    C7613050   2.155   5.938   7.373  0.1420 -1.0451  0.2472
    1BTD    C7713051   2.200   6.013   7.499  0.5647 -0.0775  0.3828
    1BTD    C7813052   2.322   6.096   7.524  0.2381 -0.3441  0.6222
    1BTD    C7913053   2.065   6.031   7.288  1.3541 -1.9754 -0.8176
    1BTD    C8013054   2.026   5.995   7.148  0.3234  2.0318 -0.5118
    1BTD    C8113055   1.884   6.044   7.117 -0.9666 -0.0625  0.5613
    1BTD    C8213056   1.835   5.980   6.988 -1.1323  0.3102 -0.8738
    2TTP     S113057   1.562   5.704   6.939 -0.6323 -0.0786 -0.4446
    2TTP     S513058   1.458   5.938   7.285 -0.2834 -0.1045 -0.3214
    2TTP     C113059   1.331   5.963   7.157 -0.0736  0.4146 -0.4334
    2TTP     C213060   1.356   5.893   7.043 -0.1689  0.4532 -0.4780
    2TTP     C313061   1.476   5.816   7.052 -0.4112  0.0743 -0.4255
    2TTP     C413062   1.689   5.679   7.067 -0.8421 -0.5977 -0.3326
    2TTP    C1713063   1.665   5.750   7.181 -0.7467 -0.6363 -0.2881
    2TTP    C1813064   1.545   5.826   7.172 -0.5045 -0.2573 -0.3406
    2TTP    C3213065   1.275   5.885   6.915 -0.4153 -0.1102 -1.6718
    2TTP    C3313066   1.135   5.842   6.917  0.3706  0.5358 -0.0464
    2TTP    C3413067   1.099   5.816   6.778  1.3341 -0.7403 -0.4717
    2TTP    C3513068   0.977   5.759   6.719  1.0212  0.3631  1.1192
    2TTP    C3613069   0.857   5.853   6.748 -0.1431  0.1904 -0.6574
    2TTP    C3713070   0.742   5.834   6.661  0.2192 -0.9076 -0.4112
    2TTP    C3813071   0.657   5.952   6.707 -0.0086 -1.0063 -0.3703
    2TTP    C3913072   0.636   6.073   6.598  0.6916  0.7500 -0.4218
    2TTP    C4013073   0.528   6.069   6.490  1.2268 -1.0193  1.3007
    2TTP    C4113074   0.569   6.144   6.362 -0.3620  0.2156 -1.6084
    2TTP    C4213075   0.659   6.062   6.277 -0.3866  0.9310  0.1726
    3TTP     S113076   2.397   5.480   7.143 -0.1398  0.0891 -0.1314
    3TTP     S513077   2.388   5.644   7.540  1.0989 -0.0635 -0.0314
    3TTP     C113078   2.543   5.553   7.519  0.9623 -0.1931 -0.4979
    3TTP     C213079   2.555   5.497   7.395  0.5718 -0.1534 -0.5563
    3TTP     C313080   2.442   5.524   7.312  0.3663 -0.0194 -0.2347
    3TTP     C413081   2.242   5.572   7.164 -0.0033  0.2186  0.3353
    3TTP    C1713082   2.230   5.628   7.288  0.3873  0.1791  0.3935
    3TTP    C1813083   2.343   5.601   7.371  0.5928  0.0452  0.0720
    3TTP    C3213084   2.669   5.409   7.358 -1.2212  0.4304 -0.5408
    3TTP    C3313085   2.641   5.280   7.289  0.1383 -0.2224  1.7335
    3TTP    C3413086   2.752   5.226   7.197 -0.2329  0.5178  0.8770
    3TTP    C3513087   2.898   5.232   7.226 -0.4919  0.1740  0.2723
    3TTP    C3613088   2.978   5.360   7.180  0.3010  0.9764  0.0342
    3TTP    C3713089   2.990   5.421   7.037  0.3324  0.1652 -0.3220
    3TTP    C3813090   3.063   5.354   6.921  1.3752  0.5723  1.7411
    3TTP    C3913091   2.950   5.295   6.820 -0.1311  0.2428 -0.1710
    3TTP    C4013092   2.812   5.354   6.780  2.2929  0.5668 -1.1844
    3TTP    C4113093   2.801   5.486   6.730 -0.3168 -0.1463 -0.0275
    3TTP    C4213094   2.861   5.469   6.582  0.6118 -0.8538  0.8393
    4FIC     F113095   0.898   6.231   7.798 -0.2417  0.1637 -0.0399
    4FIC     F213096   0.713   6.330   7.625 -0.3898 -0.1198 -0.0440
    4FIC     O113097   1.255   6.014   7.454  0.0353  0.5985 -0.0281
    4FIC     N513098   0.700   6.317   7.131 -0.4051 -0.2171 -0.0414
    4FIC     N613099   1.017   6.128   6.896 -0.1588  0.1798 -0.0315
    4FIC    C1913100   1.205   6.032   7.166 -0.0077  0.4822 -0.0281
    4FIC    C2013101   1.122   6.082   7.259 -0.0716  0.3840 -0.0309
    4FIC    C2113102   1.155   6.069   7.405 -0.0442  0.4528 -0.0306
    4FIC    C2213103   1.045   6.135   7.479 -0.1298  0.3136 -0.0341
    4FIC    C2313104   1.031   6.148   7.617 -0.1392  0.3170 -0.0353
    4FIC    C2413105   0.918   6.214   7.663 -0.2274  0.1693 -0.0386
    4FIC    C2513106   0.823   6.265   7.574 -0.3036  0.0235 -0.0407
    4FIC    C2613107   0.836   6.252   7.436 -0.2947  0.0192 -0.0395
    4FIC    C2713108   0.950   6.185   7.387 -0.2059  0.1674 -0.0360
    4FIC    C2813109   0.993   6.155   7.249 -0.1732  0.2049 -0.0342
    4FIC    C2913110   0.927   6.188   7.133 -0.2268  0.0947 -0.0353
    4FIC    C3013111   0.803   6.259   7.132 -0.3247 -0.0764 -0.0386
    4FIC    C3113112   0.977   6.155   7.004 -0.1891  0.1422 -0.0331
    5FIC     F113113   2.887   6.027   8.109  0.3965  0.0482 -0.0503
    5FIC     F213114   3.091   5.847   8.124  0.3458 -0.0012  0.0536
    5FIC     O113115   2.582   5.804   7.721  0.3818 -0.0414  0.0125
    5FIC     N513116   3.167   5.430   7.868  0.2624 -0.1355  0.2481
    5FIC     N613117   2.888   5.292   7.562  0.2609 -0.1956  0.2761
    5FIC    C1913118   2.669   5.553   7.597  0.3280 -0.1202  0.1342
    5FIC    C2013119   2.738   5.616   7.694  0.3337 -0.0957  0.1143
    5FIC    C2113120   2.687   5.745   7.753  0.3619 -0.0557  0.0511
    5FIC    C2213121   2.785   5.786   7.855  0.3609 -0.0370  0.0443
    5FIC    C2313122   2.780   5.899   7.936  0.3822  0.0002 -0.0063
    5FIC    C2413123   2.885   5.917   8.026  0.3765  0.0116 -0.0017
    5FIC    C2513124   2.990   5.824   8.033  0.3503 -0.0139  0.0516
    5FIC    C2613125   2.995   5.711   7.953  0.3291 -0.0511  0.1025
    5FIC    C2713126   2.890   5.691   7.861  0.3345 -0.0631  0.0988
    5FIC    C2813127   2.865   5.584   7.763  0.3166 -0.1001  0.1440
    5FIC    C2913128   2.945   5.474   7.739  0.2896 -0.1323  0.2022
    5FIC    C3013129   3.067   5.450   7.810  0.2748 -0.1340  0.2271
    5FIC    C3113130   2.913   5.375   7.642  0.2740 -0.1670  0.2425
    1BTD     S213131   2.145   0.449   3.543 -0.4186 -0.3477  0.2905
    1BTD     N113132   2.016   0.506   3.654 -0.0737  0.1496  0.4460
    1BTD     N213133   2.138   0.594   3.437 -0.4238 -0.6063 -0.0672
    1BTD     N313134   1.888   0.992   3.422  0.1885 -0.2353 -0.5152
    1BTD     N413135   1.738   0.883   3.690  0.6200  0.6961  0.1173
    1BTD     C513136   1.873   0.704   3.669  0.2833  0.4237  0.2668
    1BTD     C613137   1.976   0.624   3.609  0.0153  0.0998  0.2342
    1BTD     C713138   2.044   0.673   3.487 -0.1807 -0.3233 -0.0530
    1BTD     C813139   2.006   0.801   3.432 -0.0989 -0.4014 -0.2934
    1BTD    C1513140   1.904   0.876   3.495  0.1656 -0.0748 -0.2516
    1BTD    C1613141   1.839   0.828   3.612  0.3544  0.3329  0.0252
    1BTD    C4313142   1.666   1.002   3.672  0.5525 -1.3762  0.2991
    1BTD    C4413143   1.609   1.089   3.784  0.2629 -0.9165 -0.3140
    1BTD    C4513144   1.524   1.214   3.759  1.3030 -0.7795 -1.0570
    1BTD    C4613145   1.380   1.200   3.700 -0.6286  0.9682  1.2497
    1BTD    C4713146   1.719   1.114   3.898  1.3068  0.7681  0.6028
    1BTD    C4813147   1.841   1.211   3.877  0.3200 -0.5029 -0.6180
    1BTD    C4913148   1.858   1.311   3.771 -0.3269 -1.3791  0.0187
    1BTD    C5013149   1.996   1.336   3.725  0.3444 -0.2174  0.1509
    1BTD    C7513150   1.754   1.044   3.388 -0.3713  0.7932 -0.1792
    1BTD    C7613151   1.717   1.178   3.313  0.3765  0.5140  0.2097
    1BTD    C7713152   1.613   1.138   3.203 -0.7346  0.3964  0.5300
    1BTD    C7813153   1.613   1.206   3.062 -1.1208  0.5287 -0.3507
    1BTD    C7913154   1.662   1.285   3.410  0.5974  0.5476 -0.3203
    1BTD    C8013155   1.636   1.424   3.350 -0.2514  1.0014  0.1900
    1BTD    C8113156   1.592   1.516   3.463 -0.0610 -1.4755 -1.4796
    1BTD    C8213157   1.430   1.538   3.455 -0.6012  0.6240 -0.4159
    2TTP     S113158   1.777   0.568   3.927 -0.2556 -0.1362 -0.0443
    2TTP     S513159   1.466   0.864   3.952  0.3526  0.4842  0.2662
    2TTP     C113160   1.449   0.750   4.093  0.3639  0.6122  0.3708
    2TTP     C213161   1.544   0.652   4.093  0.1767  0.4282  0.2810
    2TTP     C313162   1.634   0.663   3.982  0.0176  0.1794  0.1265
    2TTP     C413163   1.793   0.682   3.785 -0.2669 -0.2642 -0.1490
    2TTP    C1713164   1.698   0.779   3.785 -0.0797 -0.0802 -0.0592
    2TTP    C1813165   1.609   0.768   3.896  0.0793  0.1686  0.0954
    2TTP    C3213166   1.576   0.533   4.182  0.4587 -0.3511  0.5027
    2TTP    C3313167   1.583   0.373   4.172 -0.0893 -0.8118  0.4349
    2TTP    C3413168   1.672   0.314   4.273  0.1033  0.7492 -0.8324
    2TTP    C3513169   1.815   0.390   4.303  0.6356  0.2989 -0.1359
    2TTP    C3613170   1.935   0.388   4.212 -0.2446  0.9931  0.9231
    2TTP    C3713171   2.014   0.238   4.217  1.0931  1.1167  0.2480
    2TTP    C3813172   2.052   0.171   4.085  0.5078  1.1231 -0.2771
    2TTP    C3913173   2.148   0.244   3.985 -0.0834  0.1862  0.0387
    2TTP    C4013174   2.196   0.140   3.887  0.3198  0.4467 -1.4269
    2TTP    C4113175   2.096   0.137   3.785  0.2649 -0.9698  0.1074
    2TTP    C4213176   2.118   0.043   3.668 -1.4812  0.2775  0.6739
    3TTP     S113177   2.217   0.897   3.232 -0.1955  0.0977 -0.6494
    3TTP     S513178   2.017   1.277   3.214 -0.2538  0.1263  0.4708
    3TTP     C113179   2.170   1.287   3.117 -0.1453  0.5049  0.6796
    3TTP     C213180   2.241   1.171   3.117 -0.1209  0.5184  0.3459
    3TTP     C313181   2.177   1.068   3.193 -0.1870  0.2302 -0.0866
    3TTP     C413182   2.064   0.886   3.329 -0.3039 -0.2809 -0.8581
    3TTP    C1713183   1.993   1.003   3.329 -0.3284 -0.2943 -0.5244
    3TTP    C1813184   2.057   1.105   3.253 -0.2623 -0.0062 -0.0920
    3TTP    C3213185   2.374   1.153   3.037 -0.3090 -0.0474  0.0343
    3TTP    C3313186   2.479   1.119   3.136  0.0929  0.1913  0.2408
    3TTP    C3413187   2.595   1.218   3.128 -0.0699  0.3229 -1.2228
    3TTP    C3513188   2.733   1.178   3.147  0.6513  0.2147 -0.7306
    3TTP    C3613189   2.810   1.120   3.026  1.3633  0.1313  0.1648
    3TTP    C3713190   2.771   1.003   2.942  0.0635  1.0107  0.5572
    3TTP    C3813191   2.828   1.033   2.811  0.3147  1.8125 -0.1922
    3TTP    C3913192   2.831   0.907   2.729 -1.0081  0.1369  0.5428
    3TTP    C4013193   2.965   0.876   2.652  0.3242 -0.6905 -0.0052
    3TTP    C4113194   3.053   1.006   2.639  0.0024  0.5928  0.3689
    3TTP    C4213195   3.164   0.938   2.569 -0.7411 -0.8963 -0.0398
    4FIC     F113196   0.828   1.251   4.267 -0.8572 -0.8477 -1.0279
    4FIC     F213197   0.774   1.100   4.487 -0.2079 -0.2313 -0.4337
    4FIC     O113198   1.258   0.991   4.066 -0.5337 -0.5459 -0.7288
    4FIC     N513199   1.004   0.696   4.659  0.9562  0.8699  0.6337
    4FIC     N613200   1.351   0.524   4.458  1.0780  0.9814  0.7477
    4FIC    C1913201   1.360   0.754   4.204  0.2015  0.1501 -0.0550
    4FIC    C2013202   1.254   0.825   4.246  0.0947  0.0501 -0.1534
    4FIC    C2113203   1.207   0.946   4.170 -0.2880 -0.3123 -0.5041
    4FIC    C2213204   1.091   0.999   4.242 -0.3118 -0.3335 -0.5267
    4FIC    C2313205   1.014   1.111   4.209 -0.6131 -0.6184 -0.8031
    4FIC    C2413206   0.908   1.142   4.293 -0.5703 -0.5765 -0.7646
    4FIC    C2513207   0.881   1.064   4.407 -0.2355 -0.2587 -0.4582
    4FIC    C2613208   0.957   0.953   4.440  0.0663  0.0266 -0.1816
    4FIC    C2713209   1.064   0.919   4.356  0.0281 -0.0108 -0.2156
    4FIC    C2813210   1.163   0.809   4.363  0.2913  0.2376  0.0260
    4FIC    C2913211   1.170   0.711   4.459  0.6488  0.5765  0.3533
    4FIC    C3013212   1.078   0.703   4.569  0.8165  0.7366  0.5062
    4FIC    C3113213   1.269   0.609   4.458  0.8829  0.7973  0.5684
    5FIC     F113214   1.890   2.056   3.051  0.0787  0.0529 -0.0135
    5FIC     F213215   2.105   2.118   2.896 -0.5053 -0.2820 -0.9768
    5FIC     O113216   1.984   1.532   3.151  0.4534  0.2678  0.7772
    5FIC     N513217   2.481   1.834   2.745 -1.0777 -0.6104 -1.7981
    5FIC     N613218   2.512   1.412   2.854 -0.6671 -0.3750 -0.9862
    5FIC    C1913219   2.223   1.405   3.039  0.0286  0.0241  0.1377
    5FIC    C2013220   2.191   1.534   3.020 -0.0428 -0.0169 -0.0235
    5FIC    C2113221   2.067   1.592   3.081  0.1880  0.1155  0.3278
    5FIC    C2213222   2.062   1.734   3.040  0.0365  0.0286  0.0332
    5FIC    C2313223   1.965   1.829   3.073  0.1594  0.0992  0.1975
    5FIC    C2413224   1.982   1.957   3.023 -0.0282 -0.0084 -0.1506
    5FIC    C2513225   2.093   1.989   2.943 -0.3290 -0.1809 -0.6467
    5FIC    C2613226   2.190   1.895   2.910 -0.4531 -0.2521 -0.8131
    5FIC    C2713227   2.175   1.765   2.960 -0.2666 -0.1452 -0.4663
    5FIC    C2813228   2.258   1.643   2.944 -0.3273 -0.1800 -0.5208
    5FIC    C2913229   2.376   1.633   2.873 -0.5959 -0.3341 -0.9502
    5FIC    C3013230   2.433   1.744   2.803 -0.8599 -0.4855 -1.4150
    5FIC    C3113231   2.450   1.512   2.863 -0.6335 -0.3557 -0.9675
    1BTD     S213232   6.581   4.630   4.598  0.2002  0.1493  0.2260
    1BTD     N113233   6.458   4.501   4.579  0.4311 -0.0508  0.0744
    1BTD     N213234   6.475   4.761   4.534  0.0196  0.0064  0.2313
    1BTD     N313235   6.037   4.794   4.369  0.0677 -0.6459 -0.0318
    1BTD     N413236   6.015   4.473   4.425  0.5747 -0.7164 -0.2251
    1BTD     C513237   6.227   4.491   4.498  0.4998 -0.3974 -0.0795
    1BTD     C613238   6.350   4.559   4.529  0.3647 -0.2058  0.0374
    1BTD     C713239   6.360   4.704   4.503  0.1346 -0.1738  0.1252
    1BTD     C813240   6.246   4.774   4.448  0.0509 -0.3351  0.0914
    1BTD    C1513241   6.128   4.703   4.420  0.1891 -0.5202 -0.0240
    1BTD    C1613242   6.119   4.563   4.444  0.4109 -0.5509 -0.1087
    1BTD    C4313243   5.875   4.485   4.372 -0.7645 -0.0591  0.3310
    1BTD    C4413244   5.841   4.389   4.251  0.4147  0.5879  0.5670
    1BTD    C4513245   5.682   4.360   4.255 -1.2460 -1.4641  1.7533
    1BTD    C4613246   5.580   4.460   4.187  0.5957  0.7355 -1.2772
    1BTD    C4713247   5.921   4.412   4.117 -1.2804 -0.1569 -0.4174
    1BTD    C4813248   5.907   4.303   4.016 -0.8940 -0.5350 -1.7131
    1BTD    C4913249   5.931   4.356   3.882  0.7963  0.0877 -0.2249
    1BTD    C5013250   5.905   4.240   3.778 -0.0938 -0.6480  0.6793
    1BTD    C7513251   5.948   4.760   4.249  0.4679 -0.0932 -0.4323
    1BTD    C7613252   5.813   4.839   4.190  0.4232  0.0055 -1.6451
    1BTD    C7713253   5.799   4.843   4.034  1.8811  0.1149 -0.2403
    1BTD    C7813254   5.900   4.915   3.961 -0.5045 -0.6135  0.2409
    1BTD    C7913255   5.690   4.808   4.272  0.3133  1.2597  0.0582
    1BTD    C8013256   5.570   4.895   4.280  0.6680  1.4605 -0.5204
    1BTD    C8113257   5.446   4.856   4.354 -0.2855  0.8672 -0.6192
    1BTD    C8213258   5.445   4.951   4.483  1.0640 -0.4213  1.6873
    2TTP     S113259   6.241   4.195   4.574 -0.1024 -0.5457  0.0783
    2TTP     S513260   5.814   4.179   4.524 -0.1880  0.5769  0.3915
    2TTP     C113261   5.870   4.022   4.597 -0.5506  0.4398  0.3776
    2TTP     C213262   6.005   4.018   4.617 -0.5455  0.0850  0.2803
    2TTP     C313263   6.070   4.138   4.575 -0.2551 -0.0914  0.2128
    2TTP     C413264   6.186   4.352   4.501  0.2600 -0.4088  0.0921
    2TTP    C1713265   6.050   4.356   4.481  0.2551 -0.0541  0.1894
    2TTP    C1813266   5.986   4.236   4.523 -0.0354  0.1223  0.2570
    2TTP    C3213267   6.090   3.929   4.709 -0.8976 -0.3221 -0.1631
    2TTP    C3313268   6.040   3.857   4.833  0.4782  0.7111  0.8416
    2TTP    C3413269   6.140   3.763   4.878  0.2671 -0.3225  1.3969
    2TTP    C3513270   6.121   3.737   5.026 -1.4804 -0.3041 -0.1922
    2TTP    C3613271   6.239   3.660   5.089 -0.3332  1.0093  0.7743
    2TTP    C3713272   6.256   3.686   5.244 -0.5564  0.6612 -0.3271
    2TTP    C3813273   6.413   3.637   5.265  0.0824  1.6085 -1.1665
    2TTP    C3913274   6.481   3.653   5.400 -0.8895 -0.7941  0.2691
    2TTP    C4013275   6.634   3.609   5.424  1.2492  0.4199 -0.4163
    2TTP    C4113276   6.689   3.630   5.569  0.5547 -0.1816  0.0186
    2TTP    C4213277   6.592   3.610   5.681 -0.7242 -0.2885 -1.3290
    3TTP     S113278   6.299   5.078   4.426 -0.3029 -0.0475  0.0552
    3TTP     S513279   5.895   5.140   4.292 -0.0331  0.4718 -0.5274
    3TTP     C113280   5.980   5.301   4.297  0.0107  0.4330  0.1049
    3TTP     C213281   6.109   5.291   4.339 -0.0699  0.2705  0.3221
    3TTP     C313282   6.146   5.157   4.368 -0.1693  0.1705 -0.0031
    3TTP     C413283   6.214   4.917   4.421 -0.3468 -0.0088 -0.5771
    3TTP    C1713284   6.084   4.927   4.379 -0.2661  0.1538 -0.7943
    3TTP    C1813285   6.047   5.062   4.350 -0.1667  0.2538 -0.4691
    3TTP    C3213286   6.196   5.404   4.377 -0.9902  0.6373 -1.0673
    3TTP    C3313287   6.308   5.423   4.275 -0.2836  0.1980 -1.0006
    3TTP    C3413288   6.424   5.529   4.310  1.2207  0.1918 -0.6028
    3TTP    C3513289   6.458   5.560   4.449 -0.5680  1.1131  0.4521
    3TTP    C3613290   6.604   5.591   4.441 -0.1229 -0.5783 -0.8982
    3TTP    C3713291   6.691   5.591   4.566  0.2059  0.0217 -0.1850
    3TTP    C3813292   6.637   5.599   4.714  0.8881 -0.8341 -0.4535
    3TTP    C3913293   6.733   5.605   4.838  1.5942  0.8093  0.8353
    3TTP    C4013294   6.878   5.562   4.812 -0.2672 -1.2082 -0.8286
    3TTP    C4113295   6.966   5.512   4.935 -0.6182 -1.3117  0.0722
    3TTP    C4213296   6.943   5.379   4.995 -0.3668 -0.6959 -0.2547
    4FIC     F113297   5.084   3.838   4.512 -0.3684  0.5344  0.9146
    4FIC     F213298   5.143   3.577   4.558 -0.2403  0.3014 -0.5001
    4FIC     O113299   5.575   4.063   4.550 -0.3759  0.4690  1.4212
    4FIC     N513300   5.579   3.360   4.650 -0.0619 -0.0803 -2.1728
    4FIC     N613301   5.950   3.589   4.670 -0.0935 -0.0844 -1.4918
    4FIC    C1913302   5.806   3.893   4.606 -0.2564  0.2232  0.2496
    4FIC    C2013303   5.680   3.846   4.595 -0.2593  0.2487  0.1774
    4FIC    C2113304   5.567   3.940   4.566 -0.3226  0.3774  0.8049
    4FIC    C2213305   5.444   3.858   4.560 -0.3089  0.3728  0.5422
    4FIC    C2313306   5.314   3.900   4.536 -0.3524  0.4696  0.9292
    4FIC    C2413307   5.215   3.803   4.536 -0.3279  0.4429  0.5647
    4FIC    C2513308   5.246   3.669   4.559 -0.2619  0.3228 -0.1643
    4FIC    C2613309   5.375   3.625   4.584 -0.2184  0.2257 -0.5537
    4FIC    C2713310   5.477   3.722   4.584 -0.2421  0.2510 -0.1937
    4FIC    C2813311   5.623   3.710   4.607 -0.2092  0.1699 -0.4469
    4FIC    C2913312   5.693   3.594   4.633 -0.1444  0.0457 -1.1296
    4FIC    C3013313   5.630   3.466   4.642 -0.0991 -0.0231 -1.7009
    4FIC    C3113314   5.834   3.592   4.653 -0.1168 -0.0253 -1.3249
    5FIC     F113315   5.217   5.581   4.426 -0.1409  0.0895 -0.5083
    5FIC     F213316   5.312   5.833   4.383  0.3166  0.1340  0.6588
    5FIC     O113317   5.669   5.290   4.357 -0.4494 -0.3108 -0.8445
    5FIC     N513318   5.768   5.987   4.271  0.7541 -0.0877  2.0970
    5FIC     N613319   6.102   5.709   4.226  0.4209 -0.4096  1.5991
    5FIC    C1913320   5.919   5.427   4.291 -0.1220 -0.4108  0.1510
    5FIC    C2013321   5.802   5.490   4.310 -0.0621 -0.3119  0.1900
    5FIC    C2113322   5.677   5.413   4.344 -0.2404 -0.2660 -0.3415
    5FIC    C2213323   5.569   5.512   4.358 -0.1179 -0.1578 -0.1460
    5FIC    C2313324   5.435   5.488   4.389 -0.2110 -0.0843 -0.4834
    5FIC    C2413325   5.351   5.598   4.396 -0.0605  0.0131 -0.2009
    5FIC    C2513326   5.400   5.727   4.374  0.1749  0.0359  0.4004
    5FIC    C2613327   5.533   5.752   4.343  0.2688 -0.0370  0.7396
    5FIC    C2713328   5.620   5.642   4.335  0.1193 -0.1363  0.4613
    5FIC    C2813329   5.765   5.634   4.305  0.1628 -0.2301  0.6919
    5FIC    C2913330   5.848   5.739   4.277  0.3722 -0.2391  1.2615
    5FIC    C3013331   5.804   5.875   4.274  0.5814 -0.1558  1.7190
    5FIC    C3113332   5.987   5.722   4.249  0.3978 -0.3330  1.4439
    1BTD     S213333   2.257   4.238   0.507  0.1117 -0.5210 -0.4191
    1BTD     N113334   2.266   4.166   0.671 -0.4539 -0.3738 -0.3216
    1BTD     N213335   2.221   4.082   0.425  0.4381 -0.6016 -0.4137
    1BTD     N313336   2.162   3.635   0.556  0.0818 -0.5007 -0.2266
    1BTD     N413337   2.217   3.739   0.859 -1.0174 -0.2201 -0.1130
    1BTD     C513338   2.240   3.942   0.766 -0.7349 -0.2968 -0.2140
    1BTD     C613339   2.242   4.036   0.658 -0.3744 -0.3916 -0.2915
    1BTD     C713340   2.217   3.989   0.520  0.1248 -0.5191 -0.3431
    1BTD     C813341   2.191   3.850   0.497  0.2388 -0.5456 -0.3146
    1BTD    C1513342   2.189   3.761   0.606 -0.1257 -0.4499 -0.2383
    1BTD    C1613343   2.214   3.806   0.739 -0.6068 -0.3271 -0.1887
    1BTD    C4313344   2.279   3.597   0.886  0.3393  0.4392 -0.0018
    1BTD    C4413345   2.225   3.523   1.015 -0.1939  0.1333  1.1063
    1BTD    C4513346   2.087   3.465   1.030 -0.9353  1.3392  0.1765
    1BTD    C4613347   1.979   3.532   0.943  0.4943 -0.3078 -0.4368
    1BTD    C4713348   2.327   3.455   1.098  0.0565  1.4792 -0.5375
    1BTD    C4813349   2.349   3.298   1.094  0.0830 -0.7584 -0.3741
    1BTD    C4913350   2.443   3.256   1.206 -0.5649  1.0850  0.9050
    1BTD    C5013351   2.594   3.258   1.155 -0.6077 -1.4201 -0.1896
    1BTD    C7513352   2.090   3.527   0.623 -0.5412  0.3413  0.3855
    1BTD    C7613353   2.094   3.372   0.592  1.3585 -0.7551  1.0129
    1BTD    C7713354   2.207   3.284   0.656  1.1780 -0.7237  0.8839
    1BTD    C7813355   2.346   3.344   0.621 -0.2333  1.0132  0.1041
    1BTD    C7913356   1.992   3.306   0.656 -0.0227  0.7208  0.5491
    1BTD    C8013357   1.841   3.336   0.645  0.9917 -0.2942  0.1786
    1BTD    C8113358   1.771   3.338   0.513  0.2152 -1.2146  1.0304
    1BTD    C8213359   1.632   3.392   0.504 -0.5848 -0.4660 -0.1892
    2TTP     S113360   2.259   4.099   1.016 -0.7580 -0.1476  0.0378
    2TTP     S513361   2.184   3.739   1.240 -0.4783 -0.1730  0.0923
    2TTP     C113362   2.169   3.882   1.352 -0.4854 -0.1751  0.0941
    2TTP     C213363   2.191   4.001   1.290 -0.5721 -0.1675  0.0774
    2TTP     C313364   2.221   3.985   1.151 -0.6362 -0.1595  0.0625
    2TTP     C413365   2.274   3.956   0.904 -0.7510 -0.1455  0.0359
    2TTP    C1713366   2.252   3.837   0.966 -0.6642 -0.1531  0.0526
    2TTP    C1813367   2.222   3.854   1.105 -0.6002 -0.1609  0.0675
    2TTP    C3213368   2.219   4.145   1.352  0.1421  1.7108  0.1608
    2TTP    C3313369   2.329   4.241   1.345 -0.5908 -0.2361  1.1789
    2TTP    C3413370   2.476   4.188   1.331 -0.3901  0.2756  0.2670
    2TTP    C3513371   2.556   4.259   1.435 -0.1609 -0.3317  0.7787
    2TTP    C3613372   2.704   4.219   1.453  0.1465 -0.1663 -1.0401
    2TTP    C3713373   2.794   4.207   1.341  0.0970  0.6713  0.5925
    2TTP    C3813374   2.950   4.260   1.373  1.2263  0.7864 -0.4727
    2TTP    C3913375   2.968   4.407   1.398 -0.1170  0.3777  0.1918
    2TTP    C4013376   3.114   4.467   1.387 -0.8379 -0.0755 -1.0681
    2TTP    C4113377   3.170   4.479   1.245  0.9063  0.8756 -0.8645
    2TTP    C4213378   3.240   4.607   1.213 -1.1480  0.4777  0.8134
    3TTP     S113379   2.233   3.797   0.207  0.3047 -0.1548  0.1421
    3TTP     S513380   2.175   3.377   0.279 -0.7129 -0.0045  0.2324
    3TTP     C113381   2.212   3.401   0.102 -0.2716 -0.1683  0.3002
    3TTP     C213382   2.232   3.532   0.070  0.0687 -0.2244  0.2761
    3TTP     C313383   2.219   3.618   0.183 -0.0069 -0.1400  0.2036
    3TTP     C413384   2.196   3.773   0.384 -0.1367  0.0091  0.0744
    3TTP    C1713385   2.176   3.642   0.416 -0.4768  0.0651  0.0982
    3TTP    C1813386   2.189   3.556   0.303 -0.4012 -0.0194  0.1709
    3TTP    C3213387   2.274   3.595  -0.062 -0.9599 -0.3910  0.5636
    3TTP    C3313388   2.201   3.656  -0.177 -0.4956 -0.4454  0.9920
    3TTP    C3413389   2.111   3.777  -0.152 -0.5998  0.7681  0.1155
    3TTP    C3513390   2.088   3.873  -0.258  0.7350  0.8151  0.8709
    3TTP    C3613391   1.963   3.956  -0.256  0.0804  0.1874  1.5593
    3TTP    C3713392   1.996   4.100  -0.270  1.0106  0.9075  0.1120
    3TTP    C3813393   2.100   4.161  -0.360  0.3962 -0.7708 -0.1436
    3TTP    C3913394   2.060   4.168  -0.502  0.8841  0.6180  0.7853
    3TTP    C4013395   2.155   4.265  -0.576 -0.9348 -0.2167  0.1701
    3TTP    C4113396   2.086   4.373  -0.651  2.4534 -0.2288 -0.0202
    3TTP    C4213397   2.176   4.470  -0.723 -0.2507 -0.9751 -0.1199
    4FIC     F113398   1.802   3.271   1.776  0.0953 -0.3607  0.2727
    4FIC     F213399   1.878   3.395   2.006 -0.1267 -0.3184  0.3238
    4FIC     O113400   1.987   3.621   1.406  0.6852 -0.5588  0.3778
    4FIC     N513401   2.119   3.822   2.074 -0.0254 -0.3986  0.4721
    4FIC     N613402   2.248   4.070   1.739  0.4801 -0.5621  0.5439
    4FIC    C1913403   2.125   3.864   1.495  0.6825 -0.5887  0.4639
    4FIC    C2013404   2.076   3.771   1.579  0.5428 -0.5405  0.4355
    4FIC    C2113405   2.006   3.649   1.526  0.5543 -0.5282  0.3918
    4FIC    C2213406   1.965   3.569   1.643  0.3806 -0.4728  0.3693
    4FIC    C2313407   1.897   3.448   1.644  0.3278 -0.4436  0.3279
    4FIC    C2413408   1.869   3.391   1.768  0.1563 -0.3919  0.3134
    4FIC    C2513409   1.908   3.455   1.886  0.0422 -0.3701  0.3397
    4FIC    C2613410   1.976   3.576   1.886  0.0940 -0.3990  0.3811
    4FIC    C2713411   2.005   3.635   1.762  0.2671 -0.4515  0.3963
    4FIC    C2813412   2.075   3.761   1.727  0.3623 -0.4923  0.4380
    4FIC    C2913413   2.128   3.852   1.816  0.2957 -0.4864  0.4724
    4FIC    C3013414   2.123   3.835   1.958  0.1193 -0.4383  0.4721
    4FIC    C3113415   2.194   3.972   1.773  0.3975 -0.5280  0.5116
    5FIC     F113416   1.881   2.657  -0.030 -0.3327  0.3774  0.1864
    5FIC     F213417   2.088   2.605  -0.199 -0.4287  0.2166  0.1175
    5FIC     O113418   1.996   3.164   0.121  0.1788  0.2448  0.2460
    5FIC     N513419   2.467   2.892  -0.334 -0.2019 -0.1091  0.0606
    5FIC     N613420   2.516   3.299  -0.182  0.2171 -0.1801  0.1209
    5FIC    C1913421   2.234   3.294   0.013  0.2689  0.0441  0.2010
    5FIC    C2013422   2.197   3.169  -0.018  0.1439  0.0837  0.1888
    5FIC    C2113423   2.073   3.109   0.041  0.1051  0.1875  0.2134
    5FIC    C2213424   2.063   2.972  -0.014 -0.0366  0.2069  0.1917
    5FIC    C2313425   1.964   2.878   0.012 -0.1165  0.2932  0.2029
    5FIC    C2413426   1.975   2.755  -0.051 -0.2481  0.2944  0.1770
    5FIC    C2513427   2.082   2.728  -0.138 -0.2972  0.2115  0.1414
    5FIC    C2613428   2.180   2.822  -0.165 -0.2181  0.1252  0.1307
    5FIC    C2713429   2.171   2.947  -0.101 -0.0846  0.1226  0.1557
    5FIC    C2813430   2.258   3.067  -0.108  0.0244  0.0436  0.1526
    5FIC    C2913431   2.373   3.081  -0.182  0.0160 -0.0491  0.1221
    5FIC    C3013432   2.425   2.977  -0.265 -0.1038 -0.0817  0.0885
    5FIC    C3113433   2.451   3.201  -0.182  0.1267 -0.1206  0.1214
    1BTD     S213434   4.396   6.289   2.104  0.0988  0.4092  0.2928
    1BTD     N113435   4.217   6.267   2.099  0.1441  0.0809  0.1071
    1BTD     N213436   4.404   6.288   2.284 -0.0887  0.4450  0.3025
    1BTD     N313437   4.100   6.247   2.639 -0.3890 -0.0752 -0.0128
    1BTD     N413438   3.870   6.221   2.411 -0.1021 -0.5238 -0.2535
    1BTD     C513439   4.038   6.243   2.264  0.0120 -0.2294 -0.0783
    1BTD     C613440   4.176   6.261   2.224  0.0235  0.0180  0.0642
    1BTD     C713441   4.280   6.273   2.328 -0.1069  0.2217  0.1735
    1BTD     C813442   4.243   6.266   2.467 -0.2420  0.1678  0.1350
    1BTD    C1513443   4.107   6.249   2.501 -0.2480 -0.0771 -0.0058
    1BTD    C1613444   4.006   6.238   2.401 -0.1226 -0.2735 -0.1111
    1BTD    C4313445   3.787   6.155   2.513 -0.3748  0.5935  0.1627
    1BTD    C4413446   3.702   6.024   2.494  0.1843 -0.5565 -0.4290
    1BTD    C4513447   3.608   5.984   2.610 -1.3404  0.4568 -0.0733
    1BTD    C4613448   3.508   6.077   2.647 -0.8791  0.0581 -1.5553
    1BTD    C4713449   3.776   5.915   2.420 -0.1043  0.6615  0.0430
    1BTD    C4813450   3.903   5.846   2.455 -1.9788  0.7226  0.1889
    1BTD    C4913451   3.950   5.736   2.361 -0.7004 -0.5826 -1.1711
    1BTD    C5013452   4.086   5.681   2.423  0.4447 -0.0153 -1.0478
    1BTD    C7513453   4.006   6.204   2.727  0.1964  0.1793 -0.2023
    1BTD    C7613454   4.044   6.149   2.872 -1.2637  0.2296 -0.0553
    1BTD    C7713455   3.914   6.190   2.961 -0.6684 -0.3062 -0.1255
    1BTD    C7813456   3.941   6.302   3.062  0.4266  1.0621 -0.9714
    1BTD    C7913457   4.064   6.006   2.886 -0.2618  0.4814 -0.1247
    1BTD    C8013458   3.969   5.907   2.833  0.1388  1.1561 -0.0195
    1BTD    C8113459   3.885   5.817   2.926  0.2210  1.3877 -0.9022
    1BTD    C8213460   3.926   5.659   2.918  0.2492 -0.2523  0.1024
    2TTP     S113461   3.872   6.224   2.022 -0.0260  0.0385 -0.0003
    2TTP     S513462   3.520   6.234   2.268  0.1699  0.1277  0.2767
    2TTP     C113463   3.469   6.219   2.095  0.0326  0.0161  0.3262
    2TTP     C213464   3.574   6.216   2.008 -0.0359 -0.0181  0.2435
    2TTP     C313465   3.700   6.224   2.076  0.0175  0.0428  0.1382
    2TTP     C413466   3.924   6.238   2.196  0.1113  0.1501 -0.0498
    2TTP    C1713467   3.818   6.242   2.282  0.1799  0.1842  0.0328
    2TTP    C1813468   3.692   6.234   2.214  0.1265  0.1234  0.1382
    2TTP    C3213469   3.596   6.210   1.853  0.3883  0.3364 -1.2611
    2TTP    C3313470   3.577   6.061   1.824  0.4140 -1.1484 -1.2820
    2TTP    C3413471   3.564   6.016   1.687  0.8432 -0.6498  0.6058
    2TTP    C3513472   3.548   5.863   1.668 -1.1523  0.2380 -0.3162
    2TTP    C3613473   3.555   5.773   1.542 -1.0812 -0.0243  0.5228
    2TTP    C3713474   3.549   5.622   1.594  0.4204 -0.5602 -0.4835
    2TTP    C3813475   3.606   5.528   1.479  2.1843 -0.8114 -0.3899
    2TTP    C3913476   3.602   5.389   1.525 -0.9170  1.0253 -0.1953
    2TTP    C4013477   3.681   5.279   1.432 -0.0185  0.6174 -0.6458
    2TTP    C4113478   3.788   5.334   1.335 -1.1848  0.9185 -0.1475
    2TTP    C4213479   3.925   5.322   1.390  1.0406  0.3979  0.0102
    3TTP     S113480   4.482   6.329   2.638  0.4011  0.3740  0.1074
    3TTP     S513481   4.204   6.444   2.946  0.2578  0.6230 -0.1134
    3TTP     C113482   4.369   6.504   2.992  0.2584  0.5568 -0.0277
    3TTP     C213483   4.465   6.472   2.899  0.3027  0.4756  0.0456
    3TTP     C313484   4.411   6.399   2.789  0.3380  0.4634  0.0367
    3TTP     C413485   4.316   6.269   2.592  0.4007  0.4402  0.0217
    3TTP    C1713486   4.221   6.301   2.685  0.3565  0.5212 -0.0516
    3TTP    C1813487   4.275   6.374   2.795  0.3214  0.5337 -0.0426
    3TTP    C3213488   4.621   6.501   2.906  0.6591 -1.4956  0.2489
    3TTP    C3313489   4.708   6.383   2.906 -0.7595  0.6681 -0.0086
    3TTP    C3413490   4.861   6.415   2.911  0.4393  0.2357 -0.6666
    3TTP    C3513491   4.958   6.317   2.852  0.6029  0.5660 -0.7554
    3TTP    C3613492   5.105   6.333   2.886  0.7222 -0.6090  0.9168
    3TTP    C3713493   5.173   6.209   2.867 -0.5286  0.6426  0.3355
    3TTP    C3813494   5.327   6.203   2.854 -0.2025  0.2097 -0.3626
    3TTP    C3913495   5.378   6.282   2.978  0.3267  0.7794 -0.2031
    3TTP    C4013496   5.527   6.313   2.961  0.0491 -1.5890 -1.0511
    3TTP    C4113497   5.605   6.195   3.014  1.0438  0.1342  0.0203
    3TTP    C4213498   5.661   6.211   3.141 -0.2274  0.0278 -0.9850
    4FIC     F113499   2.759   6.198   2.497 -0.2863 -0.6689 -0.4098
    4FIC     F213500   2.632   6.262   2.265 -0.0618  0.2989 -0.2770
    4FIC     O113501   3.273   6.172   2.329 -0.1950 -0.5741 -0.1466
    4FIC     N513502   2.816   6.334   1.811  0.3260  1.7577  0.1017
    4FIC     N613503   3.244   6.300   1.727  0.3522  1.6366  0.2806
    4FIC    C1913504   3.335   6.223   2.048  0.0519  0.3840  0.0740
    4FIC    C2013505   3.210   6.227   2.099  0.0202  0.3223  0.0025
    4FIC    C2113506   3.187   6.200   2.245 -0.1087 -0.1819 -0.1094
    4FIC    C2213507   3.041   6.212   2.267 -0.1115 -0.1168 -0.1655
    4FIC    C2313508   2.972   6.196   2.386 -0.2112 -0.4798 -0.2710
    4FIC    C2413509   2.834   6.213   2.383 -0.1917 -0.3291 -0.3063
    4FIC    C2513510   2.769   6.246   2.263 -0.0761  0.1696 -0.2378
    4FIC    C2613511   2.838   6.262   2.143  0.0238  0.5337 -0.1324
    4FIC    C2713512   2.977   6.245   2.145  0.0059  0.3883 -0.0951
    4FIC    C2813513   3.078   6.256   2.037  0.0915  0.6781  0.0108
    4FIC    C2913514   3.054   6.286   1.905  0.2134  1.1802  0.0997
    4FIC    C3013515   2.924   6.312   1.854  0.2749  1.4958  0.1005
    4FIC    C3113516   3.159   6.294   1.808  0.2890  1.4284  0.1987
    5FIC     F113517   3.942   6.965   3.514 -0.0681 -0.3022 -0.0922
    5FIC     F213518   4.173   7.025   3.645 -0.1581 -0.0559 -0.0471
    5FIC     O113519   4.127   6.641   3.122  0.3290 -0.2551  0.0553
    5FIC     N513520   4.637   6.881   3.552 -0.0042  0.3318  0.1230
    5FIC     N613521   4.736   6.617   3.219  0.3244  0.3189  0.2292
    5FIC    C1913522   4.414   6.584   3.107  0.3842 -0.0031  0.1509
    5FIC    C2013523   4.358   6.663   3.200  0.2878 -0.0246  0.1119
    5FIC    C2113524   4.210   6.688   3.202  0.2655 -0.1570  0.0641
    5FIC    C2213525   4.183   6.777   3.316  0.1540 -0.1463  0.0299
    5FIC    C2313526   4.060   6.828   3.357  0.0974 -0.2437 -0.0189
    5FIC    C2413527   4.060   6.911   3.468 -0.0076 -0.2104 -0.0439
    5FIC    C2513528   4.179   6.942   3.535 -0.0535 -0.0837 -0.0205
    5FIC    C2613529   4.302   6.892   3.494  0.0023  0.0142  0.0282
    5FIC    C2713530   4.304   6.808   3.382  0.1086 -0.0175  0.0541
    5FIC    C2813531   4.417   6.739   3.314  0.1891  0.0623  0.1054
    5FIC    C2913532   4.550   6.744   3.349  0.1748  0.1918  0.1402
    5FIC    C3013533   4.597   6.819   3.461  0.0764  0.2683  0.1306
    5FIC    C3113534   4.651   6.674   3.277  0.2570  0.2611  0.1890
    1BTD     S213535   4.201   6.511   3.519 -0.0850 -0.6456  0.0548
    1BTD     N113536   4.332   6.424   3.432  0.0398 -0.4907  0.0858
    1BTD     N213537   4.311   6.584   3.641 -0.1698 -0.3387 -0.0499
    1BTD     N313538   4.772   6.575   3.732 -0.1167  0.5667 -0.2071
    1BTD     N413539   4.797   6.378   3.473  0.1414  0.3790 -0.0399
    1BTD     C513540   4.574   6.402   3.457  0.0896 -0.0345  0.0181
    1BTD     C613541   4.445   6.452   3.495  0.0132 -0.2317  0.0200
    1BTD     C713542   4.433   6.542   3.612 -0.1040 -0.1463 -0.0560
    1BTD     C813543   4.552   6.577   3.685 -0.1391  0.1317 -0.1299
    1BTD    C1513544   4.677   6.526   3.644 -0.0613  0.3177 -0.1289
    1BTD    C1613545   4.688   6.439   3.531  0.0517  0.2356 -0.0557
    1BTD    C4313546   4.915   6.466   3.447  0.1939  0.3546  0.9737
    1BTD    C4413547   5.057   6.446   3.404 -0.9833  0.9826 -0.7279
    1BTD    C4513548   5.089   6.446   3.259  0.4035 -0.0026 -0.1817
    1BTD    C4613549   5.032   6.569   3.175 -1.8024  0.3955 -1.2919
    1BTD    C4713550   5.165   6.527   3.469 -0.0395 -0.1697 -1.0903
    1BTD    C4813551   5.260   6.453   3.548 -0.6879 -0.6502 -1.4672
    1BTD    C4913552   5.390   6.531   3.606  0.1915 -0.2424 -0.6675
    1BTD    C5013553   5.481   6.606   3.511 -0.5913 -0.5351  0.2008
    1BTD    C7513554   4.891   6.493   3.775  1.1746 -0.3491 -0.1231
    1BTD    C7613555   4.992   6.553   3.876  0.4122  1.3521  0.3122
    1BTD    C7713556   5.117   6.461   3.886 -0.6286  0.3926  1.4263
    1BTD    C7813557   5.108   6.327   3.963  1.6371 -0.3433  1.0429
    1BTD    C7913558   4.924   6.591   4.013  0.6437 -1.5879  0.3096
    1BTD    C8013559   5.025   6.663   4.096 -1.2511 -0.6204  0.3540
    1BTD    C8113560   4.972   6.726   4.227 -0.0678  0.4978  0.0379
    1BTD    C8213561   4.859   6.837   4.201  0.0942  0.9308  0.5363
    2TTP     S113562   4.542   6.189   3.239  0.1562 -0.3314 -0.2427
    2TTP     S513563   4.957   6.090   3.299  0.4544  0.7148 -0.5325
    2TTP     C113564   4.886   5.974   3.179  0.6481  0.5004 -0.4406
    2TTP     C213565   4.754   5.997   3.153  0.5676  0.1645 -0.3456
    2TTP     C313566   4.704   6.108   3.228  0.3499  0.0647 -0.3421
    2TTP     C413567   4.613   6.305   3.360 -0.0376 -0.1171 -0.3347
    2TTP    C1713568   4.745   6.282   3.386  0.0433  0.2187 -0.4295
    2TTP    C1813569   4.795   6.171   3.311  0.2609  0.3188 -0.4331
    2TTP    C3213570   4.672   5.916   3.048 -0.5261  0.5239  0.2105
    2TTP    C3313571   4.647   6.010   2.927 -0.3320 -0.7268 -0.1915
    2TTP    C3413572   4.551   5.976   2.816 -0.8245 -1.2078  0.2181
    2TTP    C3513573   4.574   5.864   2.713 -0.6270 -0.1586  0.9517
    2TTP    C3613574   4.471   5.867   2.605  0.1023 -0.4236  0.1910
    2TTP    C3713575   4.510   5.811   2.466  0.6891  0.4667 -0.4043
    2TTP    C3813576   4.532   5.663   2.472 -0.1571 -1.4584  0.5335
    2TTP    C3913577   4.520   5.590   2.337 -0.7106 -0.5027  0.3972
    2TTP    C4013578   4.672   5.537   2.284 -0.8519 -2.3414 -2.8443
    2TTP    C4113579   4.779   5.491   2.390 -1.3292  0.5890 -0.1849
    2TTP    C4213580   4.780   5.346   2.434  0.0722 -0.6820  0.3971
    3TTP     S113581   4.479   6.795   3.863  0.0595  0.2312  0.3302
    3TTP     S513582   4.892   6.913   3.859  0.0849  0.1603  0.7783
    3TTP     C113583   4.792   7.055   3.912 -0.0074  0.3555  0.1040
    3TTP     C213584   4.659   7.027   3.916 -0.0205  0.3887 -0.0741
    3TTP     C313585   4.631   6.892   3.878  0.0415  0.2614  0.3155
    3TTP     C413586   4.579   6.653   3.809  0.1518  0.0360  1.0045
    3TTP    C1713587   4.713   6.681   3.805  0.1651  0.0028  1.1826
    3TTP    C1813588   4.741   6.815   3.844  0.1028  0.1301  0.7929
    3TTP    C3213589   4.535   7.120   3.954 -0.7561 -0.2369 -0.2139
    3TTP    C3313590   4.537   7.145   4.102 -1.0097  0.3025 -0.3597
    3TTP    C3413591   4.509   7.044   4.215 -0.2465 -0.3590  0.3969
    3TTP    C3513592   4.524   7.086   4.358 -0.6806  0.0681  0.2434
    3TTP    C3613593   4.402   7.166   4.403 -0.4499 -0.2277 -0.9520
    3TTP    C3713594   4.386   7.155   4.565 -0.3321  0.7327 -1.3058
    3TTP    C3813595   4.245   7.151   4.639 -0.4045 -1.1937  1.1398
    3TTP    C3913596   4.126   7.077   4.568 -0.7578  1.0231 -0.4011
    3TTP    C4013597   4.152   6.939   4.495 -0.4224 -0.0500 -0.1765
    3TTP    C4113598   4.024   6.870   4.470  0.0255 -1.0941  0.7604
    3TTP    C4213599   3.998   6.815   4.335  1.3413  0.6741  1.3442
    4FIC     F113600   5.655   5.660   3.158  0.1346  0.2207 -0.0005
    4FIC     F213601   5.567   5.463   2.992  0.4430  0.3185 -0.2824
    4FIC     O113602   5.197   5.934   3.246 -0.1340 -0.1420 -0.2643
    4FIC     N513603   5.113   5.376   2.815  0.6955  0.2009 -0.8758
    4FIC     N613604   4.772   5.630   2.917  0.4236 -0.1022 -1.0253
    4FIC    C1913605   4.949   5.844   3.118  0.0656 -0.1773 -0.6274
    4FIC    C2013606   5.068   5.783   3.102  0.1210 -0.0899 -0.5500
    4FIC    C2113607   5.191   5.835   3.171  0.0111 -0.0776 -0.3628
    4FIC    C2213608   5.302   5.746   3.133  0.1094  0.0257 -0.3204
    4FIC    C2313609   5.435   5.754   3.172  0.0601  0.0718 -0.1621
    4FIC    C2413610   5.522   5.658   3.123  0.1750  0.1705 -0.1531
    4FIC    C2513611   5.476   5.556   3.038  0.3340  0.2209 -0.2985
    4FIC    C2613612   5.343   5.548   2.998  0.3839  0.1751 -0.4569
    4FIC    C2713613   5.254   5.644   3.047  0.2693  0.0755 -0.4686
    4FIC    C2813614   5.108   5.663   3.024  0.2829  0.0063 -0.6154
    4FIC    C2913615   5.027   5.584   2.946  0.4191  0.0275 -0.7805
    4FIC    C3013616   5.074   5.470   2.874  0.5705  0.1229 -0.8323
    4FIC    C3113617   4.887   5.610   2.930  0.4208 -0.0440 -0.9142
    5FIC     F113618   5.540   7.395   3.968  0.0315  0.4590  1.3304
    5FIC     F213619   5.421   7.639   3.977 -0.1068  0.4703 -0.2244
    5FIC     O113620   5.107   7.071   3.934  0.2782  0.1363  1.2524
    5FIC     N513621   4.941   7.760   3.966 -0.1298  0.2569 -2.5154
    5FIC     N613622   4.627   7.458   3.938  0.0906  0.0026 -2.2629
    5FIC    C1913623   4.840   7.190   3.931  0.2336  0.0326 -0.2608
    5FIC    C2013624   4.953   7.261   3.939  0.1769  0.1135 -0.1804
    5FIC    C2113625   5.087   7.193   3.940  0.2049  0.1626  0.6174
    5FIC    C2213626   5.188   7.300   3.950  0.1279  0.2474  0.4935
    5FIC    C2313627   5.327   7.286   3.954  0.1218  0.3152  1.0600
    5FIC    C2413628   5.403   7.401   3.963  0.0422  0.3895  0.8016
    5FIC    C2513629   5.341   7.527   3.968 -0.0291  0.3951  0.0001
    5FIC    C2613630   5.203   7.542   3.964 -0.0236  0.3278 -0.5682
    5FIC    C2713631   5.125   7.426   3.954  0.0566  0.2521 -0.3178
    5FIC    C2813632   4.978   7.407   3.948  0.0842  0.1701 -0.7638
    5FIC    C2913633   4.882   7.507   3.950  0.0330  0.1502 -1.5644
    5FIC    C3013634   4.915   7.646   3.959 -0.0564  0.2089 -2.0844
    5FIC    C3113635   4.742   7.479   3.943  0.0651  0.0691 -1.9441
    1BTD     S213636   8.296   5.264   4.380 -0.3811  0.0752  0.0037
    1BTD     N113637   8.456   5.345   4.395 -0.4146  0.1181  0.1322
    1BTD     N213638   8.358   5.102   4.430 -0.3076  0.0132 -0.2835
    1BTD     N313639   8.771   4.920   4.558 -0.2186 -0.0356 -0.6373
    1BTD     N413640   8.892   5.219   4.515 -0.3502  0.0937 -0.1251
    1BTD     C513641   8.682   5.276   4.458 -0.3793  0.1040 -0.0082
    1BTD     C613642   8.542   5.252   4.434 -0.3715  0.0857 -0.0368
    1BTD     C713643   8.487   5.116   4.454 -0.3116  0.0269 -0.2698
    1BTD     C813644   8.575   5.011   4.496 -0.2625 -0.0106 -0.4621
    1BTD    C1513645   8.711   5.038   4.519 -0.2725  0.0087 -0.4258
    1BTD    C1613646   8.764   5.169   4.500 -0.3304  0.0655 -0.2016
    1BTD    C4313647   8.977   5.194   4.633  0.3279  0.3642 -0.0408
    1BTD    C4413648   9.127   5.195   4.640  0.5333 -0.5765 -0.3849
    1BTD    C4513649   9.208   5.172   4.521 -0.4702 -0.4027  0.6916
    1BTD    C4613650   9.333   5.262   4.483  1.2168 -0.1723 -0.4247
    1BTD    C4713651   9.206   5.144   4.758 -0.6626 -0.4687 -1.0922
    1BTD    C4813652   9.161   5.207   4.885  0.9968  0.0686  0.5053
    1BTD    C4913653   9.191   5.133   5.015  0.9644 -0.4490 -1.9709
    1BTD    C5013654   9.090   5.133   5.123 -0.4314 -0.5011 -0.3711
    1BTD    C7513655   8.912   4.876   4.602  0.0150 -0.0483 -0.3955
    1BTD    C7613656   9.005   4.778   4.523 -0.5125  0.1397 -0.6946
    1BTD    C7713657   9.152   4.806   4.491 -0.6075 -0.6916 -0.2817
    1BTD    C7813658   9.233   4.807   4.615 -0.6506  0.1743 -1.8299
    1BTD    C7913659   8.933   4.711   4.414  0.6648  0.0432 -0.2834
    1BTD    C8013660   8.959   4.575   4.367  1.9690 -0.8069 -0.5353
    1BTD    C8113661   8.845   4.514   4.285 -0.1088 -0.7301  0.7371
    1BTD    C8213662   8.828   4.366   4.313  0.2374  0.0759 -0.4362
    2TTP     S113663   8.731   5.568   4.440  0.5219  0.4701  0.5136
    2TTP     S513664   9.137   5.511   4.572  0.6545  0.1473 -0.0263
    2TTP     C113665   9.105   5.690   4.557  0.6412  0.1847  0.4311
    2TTP     C213666   8.978   5.718   4.516  0.5999  0.2866  0.6249
    2TTP     C313667   8.901   5.599   4.494  0.5765  0.3388  0.4190
    2TTP     C413668   8.763   5.389   4.455  0.5350  0.4328  0.0560
    2TTP    C1713669   8.890   5.361   4.496  0.5768  0.3309 -0.1376
    2TTP    C1813670   8.967   5.480   4.518  0.5996  0.2787  0.0683
    2TTP    C3213671   8.901   5.857   4.538  0.1921 -0.4826 -0.5714
    2TTP    C3313672   8.823   5.861   4.676  0.8897  0.9935  0.2719
    2TTP    C3413673   8.809   5.990   4.752  0.5499 -0.0672  0.4060
    2TTP    C3513674   8.766   5.934   4.882  0.0279  0.0943 -1.3945
    2TTP    C3613675   8.841   5.970   5.013 -0.5349  0.1824  1.4456
    2TTP    C3713676   8.894   6.114   5.046 -0.5234 -0.1511 -0.4489
    2TTP    C3813677   8.920   6.138   5.197 -0.2642  0.6653 -0.7470
    2TTP    C3913678   8.835   6.068   5.321  1.7659 -0.0660 -0.3916
    2TTP    C4013679   8.851   6.085   5.478  1.2045 -0.0693  0.7738
    2TTP    C4113680   8.950   6.185   5.526 -0.3310 -0.8876  0.1847
    2TTP    C4213681   8.960   6.243   5.653  0.4553  0.4529 -1.4151
    3TTP     S113682   8.417   4.761   4.531  0.1629 -0.4303 -0.2810
    3TTP     S513683   8.759   4.562   4.699  0.1650  0.5541  0.9097
    3TTP     C113684   8.615   4.451   4.712  0.4520  0.1022  0.3225
    3TTP     C213685   8.501   4.506   4.661  0.4680 -0.2284 -0.0800
    3TTP     C313686   8.523   4.638   4.610  0.2544 -0.1367  0.0612
    3TTP     C413687   8.560   4.872   4.518 -0.1240  0.0217  0.3061
    3TTP    C1713688   8.674   4.817   4.569 -0.1401  0.3522  0.7085
    3TTP    C1813689   8.652   4.686   4.620  0.0734  0.2606  0.5673
    3TTP    C3213690   8.352   4.478   4.672  0.2644 -0.1238 -0.1014
    3TTP    C3313691   8.318   4.348   4.589  0.8022 -0.3207  0.9297
    3TTP    C3413692   8.169   4.335   4.562 -0.1752  0.5709  0.6147
    3TTP    C3513693   8.118   4.229   4.479 -0.0591  1.8652 -0.8648
    3TTP    C3613694   7.977   4.273   4.440  0.5446  0.1700 -0.2441
    3TTP    C3713695   7.949   4.383   4.344  0.3004  0.6629 -0.8550
    3TTP    C3813696   7.948   4.348   4.196 -0.3961 -0.9886  0.5003
    3TTP    C3913697   7.816   4.326   4.110  0.1126  1.0671 -0.0879
    3TTP    C4013698   7.705   4.429   4.108 -0.8877 -1.3089  0.4975
    3TTP    C4113699   7.774   4.546   4.033  0.1129  1.2944  0.2631
    3TTP    C4213700   7.709   4.676   4.013  1.2607 -0.3268  0.3072
    4FIC     F113701   9.890   5.726   4.770 -0.2642  0.0798  1.0186
    4FIC     F213702   9.883   5.993   4.719  0.3791 -0.3142 -1.3624
    4FIC     O113703   9.377   5.589   4.664 -0.5558  0.3263  2.0905
    4FIC     N513704   9.508   6.280   4.570  1.0960 -0.7052 -4.0216
    4FIC     N613705   9.109   6.119   4.497  0.7381 -0.4333 -2.7040
    4FIC    C1913706   9.188   5.796   4.578 -0.0455  0.0372  0.1965
    4FIC    C2013707   9.318   5.820   4.606  0.0031 -0.0095  0.0197
    4FIC    C2113708   9.408   5.709   4.650 -0.2716  0.1476  1.0384
    4FIC    C2213709   9.541   5.769   4.673 -0.1361  0.0468  0.5397
    4FIC    C2313710   9.657   5.705   4.715 -0.2985  0.1314  1.1420
    4FIC    C2413711   9.771   5.783   4.729 -0.1188  0.0061  0.4792
    4FIC    C2513712   9.767   5.921   4.703  0.2124 -0.1967 -0.7472
    4FIC    C2613713   9.652   5.985   4.661  0.3760 -0.2819 -1.3542
    4FIC    C2713714   9.535   5.908   4.646  0.1981 -0.1578 -0.6983
    4FIC    C2813715   9.398   5.945   4.604  0.2971 -0.2004 -1.0664
    4FIC    C2913716   9.354   6.070   4.569  0.6025 -0.3821 -2.1980
    4FIC    C3013717   9.439   6.185   4.570  0.8729 -0.5592 -3.1968
    4FIC    C3113718   9.219   6.097   4.530  0.6752 -0.4091 -2.4699
    5FIC     F113719   9.191   3.877   4.780  0.0446  0.0198 -0.3977
    5FIC     F213720   9.009   3.713   4.899  0.2570  0.3124  0.3456
    5FIC     O113721   8.888   4.316   4.686 -0.1459 -0.2439 -1.0191
    5FIC     N513722   8.531   3.790   5.002  0.4268  0.5450  0.9716
    5FIC     N613723   8.331   4.166   4.904  0.2353  0.2799  0.3359
    5FIC    C1913724   8.606   4.315   4.765 -0.0107 -0.0581 -0.5296
    5FIC    C2013725   8.690   4.211   4.784  0.0291 -0.0032 -0.4025
    5FIC    C2113726   8.833   4.219   4.741 -0.0455 -0.1059 -0.6715
    5FIC    C2213727   8.895   4.090   4.776  0.0236 -0.0103 -0.4413
    5FIC    C2313728   9.027   4.050   4.756 -0.0093 -0.0548 -0.5654
    5FIC    C2413729   9.062   3.923   4.798  0.0713  0.0561 -0.2946
    5FIC    C2513730   8.968   3.839   4.859  0.1804  0.2068  0.0885
    5FIC    C2613731   8.837   3.878   4.880  0.2136  0.2521  0.2142
    5FIC    C2713732   8.799   4.006   4.838  0.1335  0.1413 -0.0559
    5FIC    C2813733   8.669   4.077   4.845  0.1414  0.1516 -0.0167
    5FIC    C2913734   8.552   4.028   4.898  0.2351  0.2803  0.3136
    5FIC    C3013735   8.541   3.897   4.955  0.3400  0.4253  0.6742
    5FIC    C3113736   8.431   4.104   4.901  0.2346  0.2793  0.3240
    1BTD     S213737   8.415   8.603   3.170  0.0931  0.1953 -0.3551
    1BTD     N113738   8.381   8.692   3.323  0.3293 -0.1044 -0.1267
    1BTD     N213739   8.249   8.535   3.155 -0.0222  0.4807 -0.4065
    1BTD     N313740   7.850   8.554   3.402  0.1688  0.5207 -0.0986
    1BTD     N413741   8.012   8.747   3.608  0.6015 -0.1998  0.2462
    1BTD     C513742   8.186   8.718   3.469  0.4659 -0.1454  0.0638
    1BTD     C613743   8.254   8.667   3.353  0.3109  0.0176 -0.1017
    1BTD     C713744   8.181   8.579   3.260  0.1140  0.3448 -0.2584
    1BTD     C813745   8.043   8.547   3.286  0.0827  0.4928 -0.2416
    1BTD    C1513746   7.980   8.600   3.401  0.2394  0.3240 -0.0769
    1BTD    C1613747   8.051   8.685   3.491  0.4286  0.0089  0.0740
    1BTD    C4313748   7.872   8.779   3.683 -0.7929  0.2250  2.1335
    1BTD    C4413749   7.827   8.711   3.799 -1.0220  1.0033 -1.7190
    1BTD    C4513750   7.683   8.766   3.850 -0.0310  1.1412  0.4598
    1BTD    C4613751   7.558   8.754   3.767  0.1608 -0.1542  0.0068
    1BTD    C4713752   7.848   8.572   3.784 -1.4556  2.0302 -0.3638
    1BTD    C4813753   7.801   8.496   3.912  1.6430  0.2878  0.2499
    1BTD    C4913754   7.839   8.359   3.973 -0.6873 -0.2804  0.9301
    1BTD    C5013755   7.786   8.250   3.887 -2.0028 -0.1842  0.3700
    1BTD    C7513756   7.722   8.612   3.468 -0.2401 -0.7407  1.0515
    1BTD    C7613757   7.646   8.726   3.384 -0.7118  0.8400 -0.5546
    1BTD    C7713758   7.501   8.745   3.429 -0.7207 -0.4197  0.3041
    1BTD    C7813759   7.450   8.880   3.495  1.2641  0.3083  0.0738
    1BTD    C7913760   7.717   8.842   3.314  0.0116 -1.5785  0.2802
    1BTD    C8013761   7.737   8.963   3.412 -0.4463  0.7440  0.0811
    1BTD    C8113762   7.795   9.098   3.368  0.3002 -0.1856  0.4181
    1BTD    C8213763   7.928   9.092   3.291 -0.1739 -0.6876  0.2812
    2TTP     S113764   8.348   8.934   3.575  0.3132 -0.7953  0.4509
    2TTP     S513765   8.014   9.045   3.822 -0.4780  0.1578 -1.0176
    2TTP     C113766   8.135   9.181   3.824 -0.1432 -0.1427 -0.5708
    2TTP     C213767   8.245   9.155   3.748  0.1214 -0.4549 -0.0909
    2TTP     C313768   8.238   9.026   3.685  0.0684 -0.4678 -0.0589
    2TTP     C413769   8.226   8.799   3.573 -0.0217 -0.4942  0.0039
    2TTP    C1713770   8.116   8.825   3.649 -0.2860 -0.1825 -0.4759
    2TTP    C1813771   8.123   8.953   3.712 -0.2332 -0.1695 -0.5078
    2TTP    C3213772   8.359   9.259   3.709 -0.2777 -0.3015  0.1149
    2TTP    C3313773   8.338   9.320   3.567  0.3337 -1.4193 -0.4304
    2TTP    C3413774   8.415   9.443   3.519 -0.3996 -0.9851  0.0233
    2TTP    C3513775   8.379   9.476   3.370 -0.4573 -0.9167  1.1615
    2TTP    C3613776   8.430   9.370   3.269 -0.3644 -0.4199 -0.0019
    2TTP    C3713777   8.463   9.435   3.137  0.9591  0.4546  0.3277
    2TTP    C3813778   8.603   9.427   3.092  0.1853  0.0551  0.5827
    2TTP    C3913779   8.616   9.472   2.950  0.3819  0.6209 -0.4834
    2TTP    C4013780   8.750   9.498   2.910 -1.1437  0.0668  1.9738
    2TTP    C4113781   8.829   9.374   2.875  0.0747 -0.0510  0.5168
    2TTP    C4213782   8.840   9.329   2.727  0.6616  0.4281  0.1873
    3TTP     S113783   7.949   8.335   3.094  0.1396  0.0205 -0.0690
    3TTP     S513784   7.592   8.287   3.329 -0.1003 -0.0300 -0.4418
    3TTP     C113785   7.595   8.158   3.201  0.1498 -0.1504 -0.3173
    3TTP     C213786   7.705   8.165   3.121  0.2385 -0.1421 -0.1950
    3TTP     C313787   7.792   8.273   3.158  0.1124 -0.0401 -0.1949
    3TTP     C413788   7.947   8.464   3.223 -0.1104  0.1411 -0.1935
    3TTP    C1713789   7.836   8.456   3.303 -0.1991  0.1324 -0.3159
    3TTP    C1813790   7.750   8.349   3.266 -0.0730  0.0303 -0.3158
    3TTP    C3213791   7.713   8.057   3.003 -1.1509 -0.1997  0.0010
    3TTP    C3313792   7.746   8.097   2.863  0.0645  0.4888 -0.6854
    3TTP    C3413793   7.647   8.202   2.807 -0.8724 -0.7940 -0.3570
    3TTP    C3513794   7.495   8.164   2.789  1.0018  0.0927 -0.5120
    3TTP    C3613795   7.436   8.068   2.687  0.1048 -0.2562  0.9073
    3TTP    C3713796   7.425   8.146   2.559 -0.5006  0.3037  0.4462
    3TTP    C3813797   7.315   8.089   2.470 -0.3853  0.5069 -2.1695
    3TTP    C3913798   7.320   8.194   2.372 -0.8082 -0.5669  1.5599
    3TTP    C4013799   7.253   8.158   2.230 -0.2864 -1.0835 -0.3174
    3TTP    C4113800   7.312   8.027   2.166 -0.3062 -0.5265 -0.3591
    3TTP    C4213801   7.257   8.026   2.019 -0.0912 -0.3396 -0.2328
    4FIC     F113802   7.793   9.437   4.538  0.2882  0.0968  0.2025
    4FIC     F213803   7.902   9.682   4.493  0.2559  0.0732 -0.0052
    4FIC     O113804   7.978   9.161   4.110  0.1727 -0.1919  0.3384
    4FIC     N513805   8.191   9.838   4.122  0.1271 -0.1664 -0.2074
    4FIC     N613806   8.313   9.573   3.797  0.0436 -0.3874 -0.0594
    4FIC    C1913807   8.148   9.298   3.915  0.1008 -0.3170  0.1879
    4FIC    C2013808   8.097   9.357   4.024  0.1309 -0.2434  0.1619
    4FIC    C2113809   8.011   9.281   4.120  0.1671 -0.1822  0.2437
    4FIC    C2213810   7.973   9.375   4.227  0.1942 -0.1094  0.1892
    4FIC    C2313811   7.893   9.350   4.338  0.2313 -0.0367  0.2323
    4FIC    C2413812   7.871   9.455   4.426  0.2514  0.0235  0.1651
    4FIC    C2513813   7.927   9.581   4.402  0.2345  0.0113  0.0581
    4FIC    C2613814   8.007   9.607   4.291  0.1976 -0.0613  0.0144
    4FIC    C2713815   8.030   9.502   4.202  0.1767 -0.1228  0.0813
    4FIC    C2813816   8.109   9.496   4.076  0.1376 -0.2058  0.0603
    4FIC    C2913817   8.180   9.599   4.019  0.1121 -0.2406 -0.0352
    4FIC    C3013818   8.186   9.730   4.076  0.1204 -0.2000 -0.1295
    4FIC    C3113819   8.253   9.584   3.897  0.0741 -0.3211 -0.0479
    5FIC     F113820   6.894   7.959   3.583  0.1162 -0.4555  0.1929
    5FIC     F213821   6.888   7.726   3.443 -0.1041 -0.0439 -0.4890
    5FIC     O113822   7.348   8.183   3.391  0.2601 -0.2630  0.7538
    5FIC     N513823   7.203   7.551   3.103 -0.3179  0.6855 -1.0695
    5FIC     N613824   7.559   7.773   2.982 -0.1611  0.7529 -0.4939
    5FIC    C1913825   7.504   8.040   3.189  0.1010  0.1983  0.3015
    5FIC    C2013826   7.390   7.993   3.242  0.0732  0.1339  0.1870
    5FIC    C2113827   7.315   8.072   3.346  0.1597 -0.1063  0.4355
    5FIC    C2213828   7.197   7.992   3.383  0.1020 -0.1183  0.2267
    5FIC    C2313829   7.098   8.025   3.475  0.1477 -0.3066  0.3427
    5FIC    C2413830   6.995   7.933   3.493  0.0763 -0.2764  0.0962
    5FIC    C2513831   6.992   7.814   3.421 -0.0370 -0.0641 -0.2550
    5FIC    C2613832   7.091   7.780   3.328 -0.0831  0.1243 -0.3726
    5FIC    C2713833   7.195   7.872   3.309 -0.0124  0.0974 -0.1268
    5FIC    C2813834   7.314   7.867   3.219 -0.0345  0.2608 -0.1651
    5FIC    C2913835   7.347   7.766   3.132 -0.1354  0.4864 -0.4690
    5FIC    C3013836   7.268   7.648   3.117 -0.2356  0.5951 -0.7981
    5FIC    C3113837   7.463   7.770   3.050 -0.1488  0.6317 -0.4809
    1BTD     S213838   3.383   9.881   1.379  0.5944 -0.2359 -0.1711
    1BTD     N113839   3.522   9.768   1.398  0.1566 -0.6175  0.9422
    1BTD     N213840   3.262   9.751   1.352  0.4559  0.0999 -1.2681
    1BTD     N313841   3.266   9.282   1.331 -0.6166  0.0961 -1.4935
    1BTD     N413842   3.587   9.303   1.387 -0.9853 -0.7880  1.2301
    1BTD     C513843   3.552   9.525   1.392 -0.4351 -0.6959  1.0597
    1BTD     C613844   3.474   9.645   1.384 -0.0589 -0.4816  0.4636
    1BTD     C713845   3.328   9.636   1.358  0.1085 -0.0801 -0.7736
    1BTD     C813846   3.268   9.506   1.342 -0.1084  0.0875 -1.3529
    1BTD    C1513847   3.349   9.391   1.350 -0.4756 -0.1329 -0.7346
    1BTD    C1613848   3.489   9.400   1.375 -0.6371 -0.5201  0.4574
    1BTD    C4313849   3.606   9.190   1.304  0.4324 -1.0393  0.9284
    1BTD    C4413850   3.719   9.181   1.214  0.2385  0.6031  1.2017
    1BTD    C4513851   3.691   9.056   1.133  1.0540 -0.0171  0.4753
    1BTD    C4613852   3.543   9.015   1.074 -0.6614  0.7016  0.4699
    1BTD    C4713853   3.724   9.299   1.109 -1.2440 -0.3189 -1.5744
    1BTD    C4813854   3.865   9.339   1.045 -0.4455  1.2967 -1.1339
    1BTD    C4913855   3.948   9.467   1.068  0.6933 -0.7598 -0.1011
    1BTD    C5013856   3.896   9.596   1.012 -0.3879  0.6088  0.7691
    1BTD    C7513857   3.293   9.142   1.343  0.6058 -0.0340 -0.5337
    1BTD    C7613858   3.249   9.043   1.457 -0.3515  0.7694 -1.1515
    1BTD    C7713859   3.274   8.887   1.426 -1.0759 -0.9356  0.0329
    1BTD    C7813860   3.210   8.840   1.308  0.7989  2.0088 -1.0234
    1BTD    C7913861   3.316   9.084   1.582  1.5205 -0.4489 -0.3317
    1BTD    C8013862   3.258   9.017   1.710  2.1383  1.3791  1.1203
    1BTD    C8113863   3.335   8.908   1.777 -1.6019  0.6385  0.4354
    1BTD    C8213864   3.260   8.837   1.882  0.7189 -0.2052  1.4915
    2TTP     S113865   3.776   9.598   1.551 -0.0085  0.1512  0.3259
    2TTP     S513866   3.783   9.188   1.682 -0.2211  0.2277  0.5803
    2TTP     C113867   3.871   9.290   1.804  0.0083  0.2295  0.4151
    2TTP     C213868   3.874   9.422   1.771  0.0876  0.2062  0.3268
    2TTP     C313869   3.807   9.449   1.648 -0.0302  0.1857  0.3864
    2TTP     C413870   3.688   9.497   1.428 -0.2380  0.1497  0.4910
    2TTP    C1713871   3.685   9.364   1.462 -0.3172  0.1732  0.5792
    2TTP    C1813872   3.752   9.338   1.585 -0.1995  0.1934  0.5197
    2TTP    C3213873   3.954   9.537   1.843 -0.8426 -0.3526  0.4036
    2TTP    C3313874   3.859   9.613   1.932  0.2856  0.3537 -1.0950
    2TTP    C3413875   3.909   9.747   1.983  1.7898 -0.8849  0.4910
    2TTP    C3513876   3.789   9.818   2.054 -0.7739 -0.8826  0.0315
    2TTP    C3613877   3.652   9.828   1.970 -0.6048  0.7018 -0.0506
    2TTP    C3713878   3.629   9.881   1.829 -0.3149  0.3846 -2.0893
    2TTP    C3813879   3.580  10.025   1.803  0.2538  0.5648  0.6223
    2TTP    C3913880   3.684  10.146   1.837  0.2916  1.7926  0.3451
    2TTP    C4013881   3.617  10.213   1.935  0.3771 -0.2127 -0.3257
    2TTP    C4113882   3.685  10.337   1.997  0.4449 -0.6337 -1.1216
    2TTP    C4213883   3.613  10.378   2.135 -1.5374  0.6416  0.0328
    3TTP     S113884   2.994   9.549   1.250  0.0134  0.1321  0.6261
    3TTP     S513885   2.928   9.125   1.281  0.2875  0.0253 -0.2043
    3TTP     C113886   2.779   9.202   1.211  0.1480  0.0985  0.1696
    3TTP     C213887   2.791   9.337   1.198  0.0551  0.1364  0.4481
    3TTP     C313888   2.918   9.385   1.242  0.0908  0.1082  0.3762
    3TTP     C413889   3.144   9.472   1.320  0.1529  0.0589  0.2521
    3TTP    C1713890   3.132   9.336   1.334  0.2459  0.0215 -0.0263
    3TTP    C1813891   3.005   9.288   1.290  0.2101  0.0496  0.0456
    3TTP    C3213892   2.672   9.433   1.162  0.6621 -1.2545  0.4724
    3TTP    C3313893   2.648   9.559   1.240  0.6603  2.2132 -0.3816
    3TTP    C3413894   2.536   9.629   1.177 -0.0559 -0.7182 -0.4131
    3TTP    C3513895   2.535   9.777   1.224  1.2593  1.5665 -0.9308
    3TTP    C3613896   2.625   9.885   1.166  0.6471  0.6175 -0.0430
    3TTP    C3713897   2.590  10.035   1.192  1.1369  0.8330  0.9184
    3TTP    C3813898   2.643  10.115   1.071 -1.0675  0.7680  0.5706
    3TTP    C3913899   2.593  10.108   0.922 -0.2755  0.5909 -0.1949
    3TTP    C4013900   2.552  10.241   0.869 -0.0710 -0.1789 -0.9929
    3TTP    C4113901   2.543  10.219   0.715 -0.6376 -0.4325  0.3427
    3TTP    C4213902   2.503  10.355   0.645  1.0944 -0.6047 -1.2698
    4FIC     F113903   4.277   8.627   2.061  0.3856  0.3083  0.1146
    4FIC     F213904   4.248   8.716   2.316 -0.4913  0.0167  0.1243
    4FIC     O113905   4.036   9.026   1.785  0.7226  0.2913 -0.2057
    4FIC     N513906   4.035   9.129   2.487 -1.5116 -0.4139 -0.0900
    4FIC     N613907   3.853   9.423   2.221 -1.0713 -0.3681 -0.3422
    4FIC    C1913908   3.923   9.253   1.932  0.0047  0.0074 -0.3101
    4FIC    C2013909   3.985   9.149   1.991 -0.0459  0.0226 -0.2299
    4FIC    C2113910   4.040   9.036   1.909  0.3392  0.1726 -0.1802
    4FIC    C2213911   4.100   8.941   2.004  0.1705  0.1500 -0.0962
    4FIC    C2313912   4.164   8.821   1.975  0.4051  0.2568 -0.0284
    4FIC    C2413913   4.213   8.747   2.082  0.1740  0.2089  0.0451
    4FIC    C2513914   4.198   8.793   2.214 -0.2778  0.0580  0.0499
    4FIC    C2613915   4.134   8.913   2.243 -0.5140 -0.0486 -0.0175
    4FIC    C2713916   4.084   8.989   2.136 -0.2857 -0.0019 -0.0924
    4FIC    C2813917   4.013   9.119   2.134 -0.4365 -0.0861 -0.1744
    4FIC    C2913918   3.979   9.196   2.242 -0.8577 -0.2365 -0.1948
    4FIC    C3013919   4.010   9.159   2.377 -1.2157 -0.3335 -0.1371
    4FIC    C3113920   3.910   9.320   2.230 -0.9729 -0.3085 -0.2759
    5FIC     F113921   2.598   8.414   1.115 -0.6670  0.0260  0.3765
    5FIC     F213922   2.475   8.478   0.881  0.3852  0.1228 -0.1637
    5FIC     O113923   2.748   8.905   1.289 -0.7520 -0.1202  0.8644
    5FIC     N513924   2.404   8.919   0.669  1.8376  0.1588 -0.5927
    5FIC     N613925   2.546   9.290   0.852  1.5590  0.0253 -0.1026
    5FIC    C1913926   2.683   9.140   1.127  0.2230 -0.0790  0.5216
    5FIC    C2013927   2.651   9.014   1.093  0.2033 -0.0463  0.4200
    5FIC    C2113928   2.687   8.898   1.181 -0.3132 -0.0703  0.6094
    5FIC    C2213929   2.637   8.777   1.114 -0.1935 -0.0236  0.4326
    5FIC    C2313930   2.647   8.645   1.158 -0.5463 -0.0253  0.5149
    5FIC    C2413931   2.592   8.547   1.078 -0.3404  0.0243  0.3097
    5FIC    C2513932   2.528   8.580   0.957  0.2019  0.0749  0.0316
    5FIC    C2613933   2.518   8.711   0.913  0.5561  0.0768 -0.0520
    5FIC    C2713934   2.573   8.812   0.993  0.3551  0.0267  0.1527
    5FIC    C2813935   2.579   8.959   0.975  0.6205  0.0148  0.1339
    5FIC    C2913936   2.528   9.031   0.869  1.1514  0.0527 -0.1035
    5FIC    C3013937   2.460   8.969   0.759  1.5268  0.1111 -0.3716
    5FIC    C3113938   2.538   9.173   0.860  1.3726  0.0374 -0.1016
    1BTD     S213939   2.877   4.922   2.151 -0.2275  0.1379  0.0305
    1BTD     N113940   2.778   4.990   2.016 -0.4879  0.4457  0.3704
    1BTD     N213941   2.771   4.779   2.175  0.0504 -0.1378 -0.3639
    1BTD     N313942   2.379   4.608   1.982  0.1466 -0.1442 -0.5541
    1BTD     N413943   2.388   4.868   1.786 -0.5168  0.5749  0.3506
    1BTD     C513944   2.574   4.923   1.898 -0.4950  0.5044  0.3492
    1BTD     C613945   2.677   4.906   1.997 -0.3608  0.3328  0.1820
    1BTD     C713946   2.673   4.788   2.086 -0.0595  0.0062 -0.2289
    1BTD     C813947   2.567   4.693   2.072  0.0927 -0.1326 -0.4523
    1BTD    C1513948   2.468   4.713   1.974 -0.0473  0.0445 -0.2765
    1BTD    C1613949   2.472   4.827   1.888 -0.3377  0.3591  0.1194
    1BTD    C4313950   2.237   4.856   1.799  0.3083  0.6734 -0.2211
    1BTD    C4413951   2.165   4.964   1.890  0.0326  1.0876  0.5049
    1BTD    C4513952   2.013   4.927   1.914 -1.0982  1.0073  0.0758
    1BTD    C4613953   1.976   4.794   1.984  1.4906 -0.4163 -1.7042
    1BTD    C4713954   2.225   5.011   2.028 -0.3347 -0.4219  0.2077
    1BTD    C4813955   2.165   5.136   2.095 -0.8787 -0.2834 -0.4573
    1BTD    C4913956   2.222   5.267   2.023 -0.0678 -0.1810  1.1151
    1BTD    C5013957   2.107   5.341   1.955 -1.3343 -0.3195  0.3512
    1BTD    C7513958   2.299   4.554   1.881 -0.6357 -0.2669 -0.4758
    1BTD    C7613959   2.369   4.484   1.764  0.1764  0.1274  1.9313
    1BTD    C7713960   2.272   4.439   1.647 -0.5766  1.0386 -0.0717
    1BTD    C7813961   2.136   4.495   1.609 -0.6175  1.6738 -0.2961
    1BTD    C7913962   2.507   4.440   1.747  0.6525  1.7668 -0.8938
    1BTD    C8013963   2.544   4.320   1.842 -0.5806  0.1839  0.1956
    1BTD    C8113964   2.702   4.315   1.843  0.4044  0.9375 -0.0745
    1BTD    C8213965   2.770   4.199   1.899  0.6821  0.3306 -0.4565
    2TTP     S113966   2.634   5.168   1.737 -0.0484 -0.7017 -0.3016
    2TTP     S513967   2.275   5.103   1.510 -0.2199  0.2503 -0.3134
    2TTP     C113968   2.352   5.257   1.453  0.2813 -0.0391 -0.4257
    2TTP     C213969   2.468   5.286   1.519  0.3638 -0.3501 -0.4286
    2TTP     C313970   2.499   5.188   1.618  0.0342 -0.3710 -0.3423
    2TTP     C413971   2.556   5.014   1.795 -0.5496 -0.4121 -0.1894
    2TTP    C1713972   2.441   4.985   1.728 -0.6321 -0.1011 -0.1864
    2TTP    C1813973   2.409   5.083   1.629 -0.3024 -0.0802 -0.2727
    2TTP    C3213974   2.566   5.405   1.510  0.2356 -0.8133  1.9811
    2TTP    C3313975   2.614   5.521   1.606  0.6424  0.4354  0.5394
    2TTP    C3413976   2.503   5.622   1.647 -0.1906  0.4547  0.5331
    2TTP    C3513977   2.511   5.657   1.786  0.4256 -1.3109 -0.8008
    2TTP    C3613978   2.435   5.562   1.871  0.5896  0.9284  0.1359
    2TTP    C3713979   2.440   5.605   2.017  0.0074  0.5353 -0.3374
    2TTP    C3813980   2.567   5.586   2.113 -0.7864  0.0983  0.3948
    2TTP    C3913981   2.578   5.618   2.260 -1.1541  0.2390  0.9148
    2TTP    C4013982   2.533   5.517   2.355 -1.3770  2.0746  0.3125
    2TTP    C4113983   2.559   5.524   2.500 -1.2040 -0.8464  0.0997
    2TTP    C4213984   2.490   5.647   2.559 -0.4348  0.4283 -0.9643
    3TTP     S113985   2.600   4.472   2.271  0.0461 -0.2155  0.3928
    3TTP     S513986   2.232   4.296   2.134  0.1729  0.2285 -0.5311
    3TTP     C113987   2.313   4.180   2.248 -0.0618 -0.0369 -0.6333
    3TTP     C213988   2.431   4.227   2.298 -0.1148 -0.1898 -0.3541
    3TTP     C313989   2.462   4.357   2.247  0.0281 -0.1026 -0.0493
    3TTP     C413990   2.520   4.588   2.157  0.2806  0.0499  0.4949
    3TTP    C1713991   2.401   4.540   2.107  0.3338  0.2027  0.2157
    3TTP    C1813992   2.370   4.411   2.159  0.1910  0.1156 -0.0890
    3TTP    C3213993   2.514   4.170   2.411  0.2060  0.5190 -0.2870
    3TTP    C3313994   2.495   4.204   2.566  0.5593 -0.0839  2.1749
    3TTP    C3413995   2.625   4.280   2.582 -0.0012 -0.9485  0.6450
    3TTP    C3513996   2.660   4.317   2.724 -0.5651 -0.1024  0.3450
    3TTP    C3613997   2.735   4.186   2.777 -0.1461 -0.5234  0.8068
    3TTP    C3713998   2.839   4.191   2.893 -0.7774  0.0299 -0.4637
    3TTP    C3813999   2.975   4.187   2.839  0.0998 -0.6745 -0.1665
    3TTP    C3914000   3.023   4.060   2.765  0.3276 -1.2763  1.6764
    3TTP    C4014001   3.147   4.017   2.821  0.0046  0.0521 -0.7308
    3TTP    C4114002   3.275   4.111   2.795 -0.0979  0.1305  1.3377
    3TTP    C4214003   3.396   4.098   2.882 -0.6924  0.1542 -0.2148
    4FIC     F114004   1.841   5.161   0.819 -0.2332  0.1993 -0.4533
    4FIC     F214005   1.828   5.432   0.801 -0.0298  0.2239 -0.2513
    4FIC     O114006   2.189   5.104   1.230 -0.0719 -0.3697 -0.6675
    4FIC     N514007   2.057   5.781   1.066  0.3775 -0.1463 -0.1137
    4FIC     N614008   2.331   5.682   1.391  0.4627 -0.5958 -0.3218
    4FIC    C1914009   2.300   5.343   1.358  0.1797 -0.5482 -0.5507
    4FIC    C2014010   2.213   5.346   1.255  0.1312 -0.4061 -0.5047
    4FIC    C2114011   2.160   5.219   1.195  0.0010 -0.3214 -0.5700
    4FIC    C2214012   2.069   5.259   1.086 -0.0219 -0.1714 -0.4957
    4FIC    C2314013   1.996   5.176   1.002 -0.1297 -0.0535 -0.5194
    4FIC    C2414014   1.916   5.237   0.906 -0.1297  0.0783 -0.4356
    4FIC    C2514015   1.909   5.377   0.897 -0.0248  0.0905 -0.3316
    4FIC    C2614016   1.981   5.460   0.981  0.0829 -0.0266 -0.3074
    4FIC    C2714017   2.063   5.401   1.078  0.0848 -0.1609 -0.3912
    4FIC    C2814018   2.152   5.460   1.182  0.1831 -0.3046 -0.3926
    4FIC    C2914019   2.172   5.594   1.205  0.2999 -0.3371 -0.3064
    4FIC    C3014020   2.109   5.696   1.128  0.3421 -0.2320 -0.2007
    4FIC    C3114021   2.260   5.641   1.307  0.3887 -0.4792 -0.3153
    5FIC     F114022   1.550   3.863   2.318  0.1851 -0.5277 -0.6748
    5FIC     F214023   1.657   3.661   2.466  0.1706 -0.0386  0.0132
    5FIC     O114024   1.993   4.156   2.211  0.0049 -0.1894 -0.4990
    5FIC     N514025   2.126   3.579   2.602  0.0212  0.9058  1.1277
    5FIC     N614026   2.450   3.849   2.488 -0.1167  1.0714  1.1264
    5FIC    C1914027   2.252   4.067   2.314 -0.0730  0.3981  0.2209
    5FIC    C2014028   2.136   4.001   2.335 -0.0271  0.2939  0.1497
    5FIC    C2114029   2.007   4.053   2.279  0.0110 -0.0107 -0.2275
    5FIC    C2214030   1.902   3.959   2.320  0.0564 -0.0530 -0.2093
    5FIC    C2314031   1.766   3.965   2.292  0.1016 -0.3011 -0.4914
    5FIC    C2414032   1.686   3.863   2.342  0.1394 -0.2899 -0.4087
    5FIC    C2514033   1.741   3.759   2.418  0.1318 -0.0378 -0.0540
    5FIC    C2614034   1.877   3.753   2.447  0.0868  0.2105  0.2288
    5FIC    C2714035   1.959   3.854   2.397  0.0480  0.2034  0.1503
    5FIC    C2814036   2.106   3.876   2.409 -0.0036  0.4267  0.3850
    5FIC    C2914037   2.195   3.796   2.476 -0.0253  0.7035  0.7505
    5FIC    C3014038   2.157   3.677   2.545  0.0004  0.8137  0.9565
    5FIC    C3114039   2.335   3.826   2.482 -0.0754  0.9043  0.9552
    1BTD     S214040   6.899   4.945   1.013 -0.3137  0.0397 -0.1894
    1BTD     N114041   6.752   5.047   0.999 -0.3351 -0.0061 -0.3025
    1BTD     N214042   6.816   4.811   1.099 -0.3041  0.0803 -0.1165
    1BTD     N314043   6.381   4.721   1.249 -0.3234  0.0806 -0.1720
    1BTD     N414044   6.301   5.012   1.126 -0.3614 -0.0261 -0.4012
    1BTD     C514045   6.517   5.025   1.067 -0.3484 -0.0154 -0.3513
    1BTD     C614046   6.653   4.979   1.056 -0.3341  0.0103 -0.2812
    1BTD     C714047   6.689   4.847   1.112 -0.3167  0.0589 -0.1770
    1BTD     C814048   6.588   4.767   1.176 -0.3146  0.0793 -0.1482
    1BTD    C1514049   6.456   4.816   1.184 -0.3290  0.0526 -0.2193
    1BTD    C1614050   6.421   4.944   1.130 -0.3458  0.0060 -0.3197
    1BTD    C4314051   6.159   4.979   1.156  1.0327 -0.3896 -1.1699
    1BTD    C4414052   6.075   4.899   1.049 -1.0421 -0.0045 -0.0803
    1BTD    C4514053   6.099   4.902   0.888 -0.5848 -0.9155 -0.6440
    1BTD    C4614054   6.083   5.030   0.800 -0.4544 -0.5095 -0.8669
    1BTD    C4714055   5.940   4.937   1.089  1.4306  0.7528  0.9272
    1BTD    C4814056   5.828   4.838   1.043 -0.6792  0.4172  1.2351
    1BTD    C4914057   5.794   4.701   1.096  0.4410 -1.0656  0.4472
    1BTD    C5014058   5.653   4.699   1.144  0.9758 -0.8159 -0.9627
    1BTD    C7514059   6.254   4.749   1.333  1.3779 -0.4699 -0.9721
    1BTD    C7614060   6.165   4.667   1.419  0.9854  1.6284 -0.0299
    1BTD    C7714061   6.015   4.729   1.406  0.9071 -2.2312  0.6263
    1BTD    C7814062   5.893   4.645   1.437 -1.1396 -1.5187  0.0506
    1BTD    C7914063   6.202   4.609   1.563 -1.3122  1.4290  0.6222
    1BTD    C8014064   6.163   4.670   1.699  1.4180  0.4075  0.3907
    1BTD    C8114065   6.004   4.656   1.753 -0.4780 -0.2278 -0.5681
    1BTD    C8214066   5.947   4.520   1.769 -0.0136  0.4299  0.5205
    2TTP     S114067   6.495   5.318   0.989  0.0207  0.0738 -0.4330
    2TTP     S514068   6.080   5.303   1.103  0.1719  0.7576  0.2212
    2TTP     C114069   6.124   5.476   1.064  0.3839  0.6794  0.1082
    2TTP     C214070   6.254   5.491   1.027  0.3499  0.4638 -0.1005
    2TTP     C314071   6.325   5.366   1.027  0.1549  0.3521 -0.1787
    2TTP     C414072   6.451   5.146   1.028 -0.1915  0.1519 -0.3200
    2TTP    C1714073   6.321   5.131   1.065 -0.1573  0.3675 -0.1114
    2TTP    C1814074   6.251   5.255   1.065  0.0377  0.4789 -0.0331
    2TTP    C3214075   6.334   5.606   0.969  1.5230  1.1884  1.0762
    2TTP    C3314076   6.387   5.592   0.815  1.4234 -2.1813 -0.3052
    2TTP    C3414077   6.483   5.710   0.763 -1.1060  0.1994 -0.3350
    2TTP    C3514078   6.587   5.794   0.851  0.8244 -0.2017 -0.2179
    2TTP    C3614079   6.635   5.728   0.973 -0.0176  1.0119 -0.2467
    2TTP    C3714080   6.674   5.840   1.080  0.2420 -1.3554  1.3222
    2TTP    C3814081   6.746   5.805   1.217 -0.1049 -0.7906 -0.4858
    2TTP    C3914082   6.893   5.736   1.204 -0.0902 -0.7583 -0.5571
    2TTP    C4014083   6.934   5.700   1.333  0.6956 -0.4666  0.1728
    2TTP    C4114084   7.075   5.658   1.360  0.9772 -0.3582  0.6648
    2TTP    C4214085   7.140   5.543   1.274  0.6459 -0.9799 -0.4595
    3TTP     S114086   6.704   4.503   1.240 -0.1017  0.5370  0.5204
    3TTP     S514087   6.324   4.349   1.370  0.0331 -0.2495 -0.0041
    3TTP     C114088   6.447   4.215   1.379  0.3003  0.0054  0.1708
    3TTP     C214089   6.572   4.255   1.339  0.2743  0.2635  0.3430
    3TTP     C314090   6.574   4.393   1.300  0.0426  0.2688  0.3432
    3TTP     C414091   6.581   4.637   1.231 -0.3688  0.2819  0.3455
    3TTP    C1714092   6.456   4.597   1.270 -0.3432  0.0239  0.1733
    3TTP    C1814093   6.454   4.460   1.309 -0.1112  0.0186  0.1732
    3TTP    C3214094   6.686   4.163   1.333 -0.2335 -0.9325  1.0421
    3TTP    C3314095   6.727   4.076   1.204  1.9675 -1.0965  0.2675
    3TTP    C3414096   6.758   4.133   1.067  0.0313 -0.4655  0.1098
    3TTP    C3514097   6.655   4.122   0.960 -0.4353 -0.6857 -0.1204
    3TTP    C3614098   6.574   4.251   0.953  0.1783 -0.6582 -1.0560
    3TTP    C3714099   6.457   4.220   0.865 -0.2890  1.1027  0.3783
    3TTP    C3814100   6.329   4.317   0.864  0.3418 -0.5366  0.2134
    3TTP    C3914101   6.212   4.259   0.925 -0.3956 -0.0311  0.3173
    3TTP    C4014102   6.162   4.127   0.888  0.3856 -0.0193 -1.5241
    3TTP    C4114103   6.063   4.074   0.992  0.2431  0.6456  0.4735
    3TTP    C4214104   5.970   3.959   0.945  0.2692  0.5228 -1.1966
    4FIC     F114105   5.457   5.683   1.516  0.0793  0.1869  0.2388
    4FIC     F214106   5.454   5.923   1.387 -0.3608 -0.1574 -0.4061
    4FIC     O114107   5.888   5.449   1.286  0.1959  0.1558  0.4888
    4FIC     N514108   5.757   6.101   1.039 -0.9103 -0.6741 -1.1550
    4FIC     N614109   6.095   5.870   0.886 -0.7304 -0.6289 -0.8297
    4FIC    C1914110   6.038   5.595   1.082 -0.1828 -0.1838 -0.0386
    4FIC    C2014111   5.930   5.644   1.145 -0.1954 -0.1627 -0.0763
    4FIC    C2114112   5.858   5.563   1.249  0.0068  0.0162  0.2065
    4FIC    C2214113   5.746   5.646   1.297 -0.0643 -0.0076  0.0819
    4FIC    C2314114   5.651   5.614   1.393  0.0653  0.1208  0.2540
    4FIC    C2414115   5.554   5.709   1.422 -0.0391  0.0665  0.0836
    4FIC    C2514116   5.553   5.832   1.355 -0.2658 -0.1107 -0.2487
    4FIC    C2614117   5.647   5.865   1.259 -0.3959 -0.2396 -0.4219
    4FIC    C2714118   5.746   5.771   1.229 -0.2934 -0.1873 -0.2535
    4FIC    C2814119   5.859   5.774   1.133 -0.3828 -0.2897 -0.3639
    4FIC    C2914120   5.892   5.878   1.049 -0.5984 -0.4679 -0.6736
    4FIC    C3014121   5.818   6.000   1.044 -0.7691 -0.5807 -0.9372
    4FIC    C3114122   6.003   5.873   0.960 -0.6697 -0.5555 -0.7577
    5FIC     F114123   5.752   3.774   1.371 -0.0166 -0.0622  0.2681
    5FIC     F214124   5.883   3.579   1.510  0.3731 -0.7929 -1.0871
    5FIC     O114125   6.149   4.134   1.300 -0.3637  0.5783  1.5130
    5FIC     N514126   6.354   3.557   1.658  0.6860 -1.3865 -2.1482
    5FIC     N614127   6.639   3.878   1.575  0.3361 -0.7388 -0.9023
    5FIC    C1914128   6.416   4.077   1.407 -0.1148  0.1078  0.6605
    5FIC    C2014129   6.310   3.994   1.420 -0.0427 -0.0247  0.4002
    5FIC    C2114130   6.177   4.030   1.362 -0.1800  0.2347  0.8718
    5FIC    C2214131   6.086   3.919   1.393 -0.0538  0.0008  0.4230
    5FIC    C2314132   5.951   3.907   1.360 -0.1142  0.1162  0.6246
    5FIC    C2414133   5.885   3.792   1.401  0.0327 -0.1569  0.1053
    5FIC    C2514134   5.953   3.692   1.472  0.2334 -0.5330 -0.5925
    5FIC    C2614135   6.087   3.703   1.505  0.2947 -0.6503 -0.7974
    5FIC    C2714136   6.155   3.819   1.465  0.1482 -0.3778 -0.2791
    5FIC    C2814137   6.296   3.861   1.484  0.1628 -0.4084 -0.3208
    5FIC    C2914138   6.395   3.790   1.549  0.3345 -0.7309 -0.9144
    5FIC    C3014139   6.372   3.662   1.609  0.5271 -1.0902 -1.5907
    5FIC    C3114140   6.528   3.839   1.563  0.3343 -0.7333 -0.9042
    1BTD     S214141   7.532   3.901   8.083  0.5257  0.0390  0.1002
    1BTD     N114142   7.412   3.825   8.193  0.1986 -0.5281 -0.6258
    1BTD     N214143   7.674   3.819   8.158  0.4376  0.5121  0.7970
    1BTD     N314144   7.745   3.518   8.510 -0.3320  0.4524  0.9065
    1BTD     N414145   7.423   3.525   8.554 -0.6263 -0.8293 -0.8471
    1BTD     C514146   7.421   3.668   8.381 -0.2284 -0.6698 -0.7205
    1BTD     C614147   7.480   3.747   8.276  0.0486 -0.3450 -0.3266
    1BTD     C714148   7.627   3.744   8.256  0.1823  0.2373  0.4699
    1BTD     C814149   7.707   3.662   8.342  0.0323  0.4655  0.8328
    1BTD    C1514150   7.646   3.586   8.444 -0.2386  0.1319  0.4256
    1BTD    C1614151   7.504   3.589   8.463 -0.3674 -0.4291 -0.3419
    1BTD    C4314152   7.481   3.473   8.685  0.0255 -0.0888  0.5064
    1BTD    C4414153   7.398   3.402   8.789 -0.6253 -0.0427  0.1431
    1BTD    C4514154   7.390   3.483   8.928  2.4088 -0.0588  0.4656
    1BTD    C4614155   7.260   3.432   9.012  0.5642  0.5308  0.9778
    1BTD    C4714156   7.460   3.271   8.805  0.0164  0.3155  0.4221
    1BTD    C4814157   7.447   3.161   8.675 -0.5969 -1.4690 -1.0046
    1BTD    C4914158   7.299   3.122   8.671  0.5027 -0.2140 -1.1424
    1BTD    C5014159   7.295   3.023   8.555 -0.0658  0.1615  0.3527
    1BTD    C7514160   7.747   3.378   8.553  0.2531  0.2641  1.1030
    1BTD    C7614161   7.836   3.292   8.639  1.0155 -1.0695  0.2630
    1BTD    C7714162   7.871   3.153   8.604  0.3668 -0.3485  0.4275
    1BTD    C7814163   7.959   3.118   8.474 -0.3100 -1.0073 -0.6588
    1BTD    C7914164   7.809   3.319   8.778 -0.4339  1.7957 -0.6616
    1BTD    C8014165   7.820   3.461   8.837  0.3566 -0.6134  1.4973
    1BTD    C8114166   7.870   3.443   8.978 -1.9337  0.9312  0.6259
    1BTD    C8214167   7.995   3.518   8.990 -0.3805 -0.3980  1.1400
    2TTP     S114168   7.132   3.729   8.393 -0.4431 -0.1615 -0.1461
    2TTP     S514169   7.074   3.409   8.675  0.5562 -0.3493 -0.1457
    2TTP     C114170   6.911   3.478   8.631  0.3906 -0.3794  0.4072
    2TTP     C214171   6.920   3.581   8.541  0.0722 -0.3232  0.4396
    2TTP     C314172   7.055   3.609   8.504 -0.0523 -0.2543  0.0291
    2TTP     C414173   7.295   3.660   8.437 -0.2775 -0.1314 -0.6988
    2TTP    C1714174   7.286   3.557   8.527  0.0410 -0.1878 -0.7311
    2TTP    C1814175   7.151   3.529   8.564  0.1656 -0.2566 -0.3207
    2TTP    C3214176   6.817   3.689   8.483  0.3817  0.1860 -0.4865
    2TTP    C3314177   6.829   3.839   8.532 -1.3609 -1.0778  0.8251
    2TTP    C3414178   6.774   3.861   8.673 -0.7837 -1.0475  0.8061
    2TTP    C3514179   6.790   3.999   8.746  0.6455  0.5544 -0.6031
    2TTP    C3614180   6.675   4.073   8.810 -1.0956 -0.6442  0.8107
    2TTP    C3714181   6.716   4.171   8.927 -0.7226  0.1767  0.5794
    2TTP    C3814182   6.793   4.112   9.049  0.4030 -0.7323  0.6499
    2TTP    C3914183   6.883   4.208   9.131  0.6230  0.8255 -0.6612
    2TTP    C4014184   6.999   4.151   9.194 -1.2135  1.7086 -0.0446
    2TTP    C4114185   7.020   3.981   9.181  0.1065 -1.6688  0.2200
    2TTP    C4214186   7.152   3.935   9.250 -0.7171 -0.1968  1.1578
    3TTP     S114187   8.007   3.720   8.307  0.1655 -0.2835 -0.2104
    3TTP     S514188   8.088   3.494   8.664  0.0560 -0.3676 -0.2384
    3TTP     C114189   8.241   3.580   8.614  0.1123 -0.4795 -0.2589
    3TTP     C214190   8.225   3.655   8.500  0.1495 -0.4600 -0.2513
    3TTP     C314191   8.091   3.647   8.449  0.1347 -0.3562 -0.2294
    3TTP     C414192   7.855   3.634   8.357  0.1094 -0.1717 -0.1903
    3TTP    C1714193   7.871   3.560   8.471  0.0722 -0.1912 -0.1976
    3TTP    C1814194   8.004   3.567   8.522  0.0870 -0.2950 -0.2196
    3TTP    C3214195   8.326   3.743   8.437 -1.1049  0.2291  0.8183
    3TTP    C3314196   8.419   3.693   8.338 -1.1090  0.0652  1.3551
    3TTP    C3414197   8.551   3.625   8.379  0.3705  0.2864  0.4160
    3TTP    C3514198   8.616   3.563   8.259  0.3490  0.0919 -0.4003
    3TTP    C3614199   8.530   3.467   8.171  0.5891 -1.4927 -0.2839
    3TTP    C3714200   8.595   3.435   8.025  0.3198  0.9964 -0.1268
    3TTP    C3814201   8.577   3.286   7.999 -1.3486  0.1247 -0.7768
    3TTP    C3914202   8.622   3.254   7.867  0.6913 -0.2359 -0.5589
    3TTP    C4014203   8.631   3.120   7.819  0.3053  0.6589  0.4690
    3TTP    C4114204   8.565   3.086   7.690  0.6208  0.4000  0.1747
    3TTP    C4214205   8.420   3.088   7.681  0.6778 -0.0096 -1.1097
    4FIC     F114206   6.659   2.906   9.155  0.1791  0.1588  0.5586
    4FIC     F214207   6.406   3.003   9.135  0.0746 -0.2214 -0.0017
    4FIC     O114208   6.923   3.232   8.813  0.3542  0.2431  0.7732
    4FIC     N514209   6.229   3.376   8.861  0.0492 -0.7084 -0.6547
    4FIC     N614210   6.486   3.612   8.598  0.2072 -0.5659 -0.3743
    4FIC    C1914211   6.774   3.441   8.672  0.3166 -0.0904  0.3139
    4FIC    C2014212   6.718   3.355   8.759  0.2766 -0.0968  0.2816
    4FIC    C2114213   6.801   3.251   8.828  0.2996  0.0808  0.5279
    4FIC    C2214214   6.709   3.175   8.915  0.2444  0.0237  0.4206
    4FIC    C2314215   6.740   3.068   8.998  0.2424  0.1394  0.5705
    4FIC    C2414216   6.636   3.012   9.071  0.1846  0.0530  0.4231
    4FIC    C2514217   6.505   3.062   9.060  0.1307 -0.1429  0.1345
    4FIC    C2614218   6.474   3.169   8.977  0.1324 -0.2592 -0.0167
    4FIC    C2714219   6.578   3.227   8.902  0.1906 -0.1744  0.1287
    4FIC    C2814220   6.578   3.340   8.806  0.2083 -0.2562  0.0322
    4FIC    C2914221   6.470   3.416   8.769  0.1688 -0.4439 -0.2372
    4FIC    C3014222   6.338   3.394   8.820  0.1031 -0.5885 -0.4659
    4FIC    C3114223   6.479   3.523   8.675  0.1901 -0.5099 -0.3111
    5FIC     F114224   8.533   3.075   9.190  0.0403  0.3136 -0.2270
    5FIC     F214225   8.726   3.260   9.242  0.5956 -0.1143 -0.7429
    5FIC     O114226   8.270   3.315   8.781 -0.6115  0.9566  0.5631
    5FIC     N514227   8.817   3.695   9.026  0.9284 -0.2711 -0.9208
    5FIC     N614228   8.572   3.845   8.696  0.3073  0.3177 -0.1996
    5FIC    C1914229   8.361   3.576   8.686 -0.3133  0.7762  0.3511
    5FIC    C2014230   8.420   3.509   8.787 -0.1707  0.6312  0.1726
    5FIC    C2114231   8.367   3.375   8.830 -0.3395  0.7375  0.2980
    5FIC    C2214232   8.453   3.330   8.941 -0.1185  0.5308  0.0451
    5FIC    C2314233   8.444   3.211   9.013 -0.1698  0.5389  0.0513
    5FIC    C2414234   8.537   3.190   9.114  0.0750  0.3190 -0.2172
    5FIC    C2514235   8.636   3.285   9.141  0.3606  0.0987 -0.4824
    5FIC    C2614236   8.647   3.404   9.069  0.4129  0.0893 -0.4904
    5FIC    C2714237   8.553   3.427   8.966  0.1681  0.3101 -0.2208
    5FIC    C2814238   8.537   3.540   8.873  0.1476  0.3631 -0.1533
    5FIC    C2914239   8.615   3.654   8.867  0.3793  0.1956 -0.3538
    5FIC    C3014240   8.725   3.676   8.954  0.6802 -0.0605 -0.6649
    5FIC    C3114241   8.591   3.759   8.773  0.3383  0.2636 -0.2677
    1BTD     S214242   5.553   5.215   0.124 -0.3490  0.4503 -0.3500
    1BTD     N114243   5.452   5.151   0.258 -0.8190  0.5491 -0.6540
    1BTD     N214244   5.592   5.369   0.208  0.2290  0.0651  0.1045
    1BTD     N314245   5.489   5.568   0.620  0.5580 -0.5417  0.4819
    1BTD     N414246   5.316   5.299   0.682 -0.7333  0.0547 -0.4528
    1BTD     C514247   5.383   5.232   0.479 -0.7586  0.2838 -0.5377
    1BTD     C614248   5.452   5.243   0.353 -0.5355  0.3027 -0.4135
    1BTD     C714249   5.531   5.365   0.325  0.0509  0.0317  0.0111
    1BTD     C814250   5.536   5.470   0.424  0.3852 -0.2446  0.2903
    1BTD    C1514251   5.467   5.454   0.545  0.1492 -0.2523  0.1552
    1BTD    C1614252   5.391   5.336   0.572 -0.4159  0.0088 -0.2539
    1BTD    C4314253   5.246   5.363   0.798 -0.6268  0.2118  0.2209
    1BTD    C4414254   5.099   5.424   0.799 -0.3778 -0.4586  1.3922
    1BTD    C4514255   5.052   5.476   0.937 -0.3725 -0.5316  1.0474
    1BTD    C4614256   5.040   5.381   1.051  0.2512  0.7220  0.1739
    1BTD    C4714257   5.080   5.551   0.709  0.0303  0.1417 -0.9960
    1BTD    C4814258   5.091   5.523   0.554 -0.7668  0.0760 -0.7454
    1BTD    C4914259   4.990   5.456   0.472 -1.0358 -0.4980  0.6420
    1BTD    C5014260   4.849   5.490   0.476 -0.9137 -0.5152 -0.8807
    1BTD    C7514261   5.449   5.606   0.762 -0.7637  0.5523 -1.3630
    1BTD    C7614262   5.536   5.560   0.878 -0.2349 -2.1025 -0.6039
    1BTD    C7714263   5.476   5.625   1.007  0.3742  0.0137  0.2088
    1BTD    C7814264   5.422   5.524   1.109  0.5272 -0.6550  0.0577
    1BTD    C7914265   5.633   5.450   0.879 -0.4555  0.5984 -0.0890
    1BTD    C8014266   5.610   5.297   0.893 -1.0271 -1.2270  0.8606
    1BTD    C8114267   5.637   5.251   1.038  0.2996  0.2198 -0.2871
    1BTD    C8214268   5.511   5.173   1.101  1.0301 -1.4528  0.4010
    2TTP     S114269   5.257   4.955   0.505 -0.2808 -0.1667 -0.2829
    2TTP     S514270   5.094   5.078   0.883  0.5877 -0.2979  0.1400
    2TTP     C114271   5.028   4.913   0.842  0.3026 -0.1789  0.1148
    2TTP     C214272   5.075   4.866   0.723  0.0178 -0.1315 -0.0173
    2TTP     C314273   5.164   4.957   0.660  0.0142 -0.1872 -0.1033
    2TTP     C414274   5.323   5.120   0.546  0.0043 -0.2856 -0.2576
    2TTP    C1714275   5.276   5.167   0.665  0.2893 -0.3331 -0.1256
    2TTP    C1814276   5.187   5.076   0.728  0.2927 -0.2773 -0.0395
    2TTP    C3214277   5.035   4.726   0.667 -1.3233 -0.3572  0.0545
    2TTP    C3314278   5.130   4.637   0.591 -0.3729  2.2092  1.3796
    2TTP    C3414279   5.283   4.634   0.619  1.5111  0.2929 -0.1378
    2TTP    C3514280   5.300   4.560   0.750  0.1749 -0.6493 -1.0485
    2TTP    C3614281   5.412   4.454   0.752  0.1096  0.3674  0.8116
    2TTP    C3714282   5.441   4.403   0.893 -0.2879 -0.7670  0.7660
    2TTP    C3814283   5.551   4.298   0.895 -0.3245  1.2450 -0.7489
    2TTP    C3914284   5.517   4.198   1.017  0.6949  1.0559 -1.0595
    2TTP    C4014285   5.594   4.067   1.048 -1.1783  0.3861  0.5081
    2TTP    C4114286   5.580   3.959   0.934  0.2723 -0.3089 -0.1383
    2TTP    C4214287   5.451   3.870   0.953 -0.1862 -0.1241 -0.0493
    3TTP     S114288   5.720   5.690   0.320 -0.5134  0.4063 -0.2292
    3TTP     S514289   5.684   5.896   0.696  0.6133  0.0283  0.0947
    3TTP     C114290   5.806   5.984   0.593  0.1676  0.2404 -0.2612
    3TTP     C214291   5.824   5.925   0.471 -0.2065  0.3697 -0.3822
    3TTP     C314292   5.742   5.809   0.454 -0.1547  0.3059 -0.1982
    3TTP     C414293   5.598   5.602   0.423 -0.0675  0.1942  0.1267
    3TTP    C1714294   5.579   5.661   0.545  0.3066  0.0649  0.2477
    3TTP    C1814295   5.661   5.777   0.562  0.2548  0.1289  0.0637
    3TTP    C3214296   5.935   5.968   0.359  1.1390  0.0511 -1.7301
    3TTP    C3314297   5.900   6.088   0.271  1.4239  0.9229  0.4031
    3TTP    C3414298   6.000   6.154   0.170 -0.8568 -0.6024 -0.4842
    3TTP    C3514299   6.096   6.241   0.240 -0.9451  1.1707 -0.2305
    3TTP    C3614300   6.207   6.275   0.135 -0.4356 -1.0839  0.8816
    3TTP    C3714301   6.353   6.280   0.176 -0.4648 -0.1945  0.4643
    3TTP    C3814302   6.398   6.399   0.290  1.0219 -0.0493  0.9573
    3TTP    C3914303   6.401   6.541   0.243  0.7624  1.3393  0.9546
    3TTP    C4014304   6.405   6.640   0.359 -0.2093 -0.5946  1.0621
    3TTP    C4114305   6.422   6.776   0.298 -1.3966  0.3585  1.3482
    3TTP    C4214306   6.537   6.817   0.209  0.4875  0.8770 -1.4145
    4FIC     F114307   4.366   5.199   1.231 -0.1339  0.1773 -0.2463
    4FIC     F214308   4.258   4.950   1.215 -0.1301  0.1701 -0.1571
    4FIC     O114309   4.850   5.115   1.003 -0.1262  0.0992 -0.2013
    4FIC     N514310   4.447   4.532   1.030 -0.1190  0.1036  0.0034
    4FIC     N614311   4.847   4.516   0.855 -0.1137  0.0440  0.0206
    4FIC    C1914312   4.918   4.847   0.907 -0.1198  0.0643 -0.1000
    4FIC    C2014313   4.801   4.878   0.965 -0.1220  0.0843 -0.1149
    4FIC    C2114314   4.773   5.018   1.012 -0.1252  0.1013 -0.1676
    4FIC    C2214315   4.637   5.017   1.069 -0.1268  0.1209 -0.1710
    4FIC    C2314316   4.568   5.123   1.126 -0.1299  0.1409 -0.2126
    4FIC    C2414317   4.440   5.098   1.174 -0.1310  0.1572 -0.2068
    4FIC    C2514318   4.385   4.970   1.166 -0.1289  0.1533 -0.1607
    4FIC    C2614319   4.453   4.863   1.110 -0.1259  0.1335 -0.1191
    4FIC    C2714320   4.583   4.886   1.060 -0.1249  0.1169 -0.1243
    4FIC    C2814321   4.681   4.796   0.996 -0.1216  0.0941 -0.0879
    4FIC    C2914322   4.664   4.662   0.970 -0.1192  0.0840 -0.0387
    4FIC    C3014323   4.545   4.591   1.003 -0.1191  0.0949 -0.0158
    4FIC    C3114324   4.765   4.583   0.907 -0.1162  0.0621 -0.0064
    5FIC     F114325   5.640   6.618   1.077  0.1484 -0.0348 -0.1311
    5FIC     F214326   5.900   6.696   1.056  0.2875 -0.3422  0.4165
    5FIC     O114327   5.641   6.174   0.768  0.1702  0.1999 -0.4705
    5FIC     N514328   6.275   6.491   0.806  0.5034 -0.6169  0.9620
    5FIC     N614329   6.223   6.128   0.569  0.4926 -0.3716  0.5864
    5FIC    C1914330   5.890   6.090   0.639  0.3111 -0.0103 -0.0678
    5FIC    C2014331   5.880   6.199   0.717  0.3000 -0.0575 -0.0038
    5FIC    C2114332   5.748   6.235   0.780  0.2261  0.0577 -0.2223
    5FIC    C2214333   5.772   6.358   0.858  0.2333 -0.0318 -0.0834
    5FIC    C2314334   5.680   6.430   0.934  0.1792  0.0244 -0.2013
    5FIC    C2414335   5.726   6.543   1.000  0.1990 -0.0826 -0.0281
    5FIC    C2514336   5.860   6.583   0.989  0.2708 -0.2410  0.2539
    5FIC    C2614337   5.952   6.512   0.913  0.3251 -0.2980  0.3729
    5FIC    C2714338   5.908   6.397   0.846  0.3060 -0.1912  0.2009
    5FIC    C2814339   5.979   6.301   0.759  0.3499 -0.2134  0.2610
    5FIC    C2914340   6.112   6.305   0.724  0.4228 -0.3518  0.5139
    5FIC    C3014341   6.201   6.408   0.769  0.4669 -0.4970  0.7594
    5FIC    C3114342   6.173   6.208   0.639  0.4607 -0.3619  0.5523
    1BTD     S214343   9.529   7.613   9.231 -0.0539 -0.8188  0.1907
    1BTD     N114344   9.628   7.474   9.174  0.1500 -0.7107  0.2787
    1BTD     N214345   9.372   7.530   9.205  0.0515 -0.9218 -0.1333
    1BTD     N314346   9.230   7.110   9.049  0.6349 -0.9371 -0.6356
    1BTD     N414347   9.546   7.041   9.011  0.7558 -0.6766 -0.1273
    1BTD     C514348   9.581   7.249   9.089  0.4647 -0.6961  0.0608
    1BTD     C614349   9.543   7.378   9.140  0.2792 -0.7547  0.0727
    1BTD     C714350   9.400   7.409   9.157  0.2244 -0.8730 -0.1583
    1BTD     C814351   9.301   7.310   9.123  0.3574 -0.9267 -0.3896
    1BTD    C1514352   9.343   7.185   9.074  0.5378 -0.8659 -0.3922
    1BTD    C1614353   9.482   7.155   9.057  0.5905 -0.7519 -0.1699
    1BTD    C4314354   9.500   6.902   8.978 -0.0750 -1.2224  0.3312
    1BTD    C4414355   9.557   6.866   8.843 -1.2662  0.2086  0.7267
    1BTD    C4514356   9.555   6.955   8.723 -0.2759  0.5191 -0.2366
    1BTD    C4614357   9.587   6.927   8.579 -0.4306 -0.1806  0.8859
    1BTD    C4714358   9.551   6.712   8.832  0.3082 -0.5560  0.0825
    1BTD    C4814359   9.418   6.657   8.792  0.3472  0.3858  0.4593
    1BTD    C4914360   9.391   6.506   8.798  1.2632  0.4016 -0.2128
    1BTD    C5014361   9.348   6.437   8.930 -0.9874 -0.7872 -0.4599
    1BTD    C7514362   9.216   7.015   8.939 -0.1272 -0.4549  0.4459
    1BTD    C7614363   9.164   7.051   8.797  0.9393 -0.4490  0.9180
    1BTD    C7714364   9.112   6.918   8.752  0.8437  0.8709  1.4787
    1BTD    C7814365   8.975   6.868   8.788  1.8757 -0.0061 -0.1364
    1BTD    C7914366   9.239   7.141   8.705  0.4716  0.2738 -0.7343
    1BTD    C8014367   9.284   7.295   8.742  0.9741  0.5036 -1.3546
    1BTD    C8114368   9.158   7.388   8.763  0.0726 -0.6845  0.4787
    1BTD    C8214369   9.172   7.524   8.834  0.7242 -0.2499 -0.6915
    2TTP     S114370   9.885   7.220   9.102 -0.2912  0.0624 -0.0462
    2TTP     S514371   9.833   6.804   9.007 -0.3736 -0.0103  0.3159
    2TTP     C114372  10.010   6.834   9.040 -0.3549  0.0012  0.2069
    2TTP     C214373  10.036   6.964   9.071 -0.3283  0.0242  0.0885
    2TTP     C314374   9.918   7.045   9.070 -0.3216  0.0339  0.0796
    2TTP     C414375   9.709   7.190   9.069 -0.3097  0.0511  0.0627
    2TTP    C1714376   9.683   7.059   9.037 -0.3365  0.0281  0.1810
    2TTP    C1814377   9.801   6.979   9.038 -0.3433  0.0185  0.1898
    2TTP    C3214378  10.175   7.023   9.111  1.3361 -0.7087  0.1438
    2TTP    C3314379  10.215   7.164   9.097  1.5592 -0.9031 -0.7349
    2TTP    C3414380  10.362   7.187   9.092  0.1904 -1.0923 -0.0202
    2TTP    C3514381  10.445   7.157   9.220 -1.0364 -0.6752 -0.0702
    2TTP    C3614382  10.411   7.208   9.357  1.6354  0.4560 -0.2412
    2TTP    C3714383  10.396   7.361   9.373 -0.7618  0.5306  0.3295
    2TTP    C3814384  10.330   7.420   9.498 -1.4819 -0.1773  0.9046
    2TTP    C3914385  10.306   7.567   9.465  0.0647  0.5565  0.5105
    2TTP    C4014386  10.385   7.662   9.552  0.5258  1.0355  0.8363
    2TTP    C4114387  10.353   7.670   9.701 -0.0373  0.1584  0.0462
    2TTP    C4214388  10.218   7.602   9.750 -0.2456 -1.7537 -0.6711
    3TTP     S114389   9.020   7.407   9.207  0.5194 -0.4033  0.2489
    3TTP     S514390   8.868   7.017   9.108 -0.2520  0.0553 -0.4001
    3TTP     C114391   8.730   7.119   9.170  0.0636  0.0387  0.3474
    3TTP     C214392   8.769   7.245   9.205  0.3207 -0.1041  0.5920
    3TTP     C314393   8.909   7.266   9.183  0.2770 -0.2052  0.1974
    3TTP     C414394   9.157   7.306   9.145  0.2036 -0.3866 -0.4983
    3TTP    C1714395   9.118   7.179   9.111 -0.0534 -0.2439 -0.7430
    3TTP    C1814396   8.979   7.158   9.132 -0.0103 -0.1427 -0.3488
    3TTP    C3214397   8.692   7.362   9.267 -0.5541 -0.4150  0.5321
    3TTP    C3314398   8.670   7.478   9.168  0.3996  0.7537 -0.2746
    3TTP    C3414399   8.630   7.451   9.022  0.5702 -0.8950  0.3189
    3TTP    C3514400   8.574   7.586   8.967  0.1491 -0.0367 -1.4264
    3TTP    C3614401   8.645   7.621   8.834  0.0407 -0.1344 -0.6206
    3TTP    C3714402   8.585   7.732   8.746  0.2574  0.3463 -0.7779
    3TTP    C3814403   8.593   7.879   8.798 -0.0753  1.4302  0.4053
    3TTP    C3914404   8.601   7.990   8.695 -1.5282  0.2182 -0.4860
    3TTP    C4014405   8.734   8.069   8.677  0.2786  0.3293 -0.5632
    3TTP    C4114406   8.853   7.979   8.663  1.4330 -0.0002 -0.4373
    3TTP    C4214407   8.966   8.064   8.634  0.2844 -0.9090  1.4117
    4FIC     F114408  10.069   6.151   8.597 -0.2220  0.0771 -0.1471
    4FIC     F214409  10.251   6.057   8.775 -0.1028  0.1363 -0.2372
    4FIC     O114410   9.977   6.646   8.796 -0.2270  0.0753 -0.1445
    4FIC     N514411  10.448   6.274   9.174  0.0653  0.2196 -0.3653
    4FIC     N614412  10.339   6.680   9.294  0.0377  0.2064 -0.3452
    4FIC    C1914413  10.118   6.732   9.037 -0.1148  0.1310 -0.2299
    4FIC    C2014414  10.134   6.611   8.980 -0.1180  0.1292 -0.2270
    4FIC    C2114415  10.058   6.574   8.856 -0.1776  0.0998 -0.1822
    4FIC    C2214416  10.099   6.437   8.821 -0.1652  0.1057 -0.1907
    4FIC    C2314417  10.055   6.360   8.714 -0.2060  0.0852 -0.1595
    4FIC    C2414418  10.108   6.232   8.701 -0.1838  0.0962 -0.1762
    4FIC    C2514419  10.202   6.184   8.793 -0.1224  0.1267 -0.2230
    4FIC    C2614420  10.246   6.260   8.900 -0.0813  0.1470 -0.2542
    4FIC    C2714421  10.193   6.389   8.915 -0.1025  0.1364 -0.2379
    4FIC    C2814422  10.219   6.494   9.017 -0.0718  0.1521 -0.2623
    4FIC    C2914423  10.305   6.486   9.124 -0.0107  0.1820 -0.3083
    4FIC    C3014424  10.383   6.369   9.151  0.0308  0.2027 -0.3393
    4FIC    C3114425  10.323   6.592   9.217  0.0155  0.1953 -0.3283
    5FIC     F114426   8.356   6.403   9.305  0.5496  0.1248 -0.8733
    5FIC     F214427   8.119   6.536   9.317  0.5548  0.0358  0.5047
    5FIC     O114428   8.700   6.813   9.223  0.0837  0.4220 -1.3583
    5FIC     N514429   8.023   7.020   9.277  0.2298  0.1194  2.1393
    5FIC     N614430   8.340   7.314   9.211 -0.1354  0.3694  1.4825
    5FIC    C1914431   8.595   7.086   9.206 -0.0770  0.4424 -0.2147
    5FIC    C2014432   8.518   6.978   9.226  0.0401  0.3712 -0.1462
    5FIC    C2114433   8.579   6.840   9.234  0.1168  0.3656 -0.7584
    5FIC    C2214434   8.468   6.746   9.256  0.2384  0.2799 -0.5052
    5FIC    C2314435   8.475   6.608   9.270  0.3402  0.2456 -0.8841
    5FIC    C2414436   8.356   6.540   9.290  0.4453  0.1631 -0.5304
    5FIC    C2514437   8.234   6.609   9.297  0.4478  0.1173  0.1793
    5FIC    C2614438   8.226   6.747   9.283  0.3464  0.1515  0.5603
    5FIC    C2714439   8.345   6.817   9.262  0.2391  0.2346  0.2117
    5FIC    C2814440   8.372   6.962   9.244  0.1175  0.2888  0.4604
    5FIC    C2914441   8.278   7.063   9.244  0.0832  0.2669  1.1258
    5FIC    C3014442   8.138   7.039   9.262  0.1640  0.1858  1.6809
    5FIC    C3114443   8.312   7.200   9.226 -0.0370  0.3235  1.3185
    1BTD     S214444   6.562   0.909   9.722  0.4972 -0.2631 -0.1272
    1BTD     N114445   6.484   0.787   9.828  0.5028 -0.2562 -0.1147
    1BTD     N214446   6.415   1.010   9.704  0.5606 -0.1357  0.0687
    1BTD     N314447   5.972   0.997   9.861  0.6999  0.1364  0.4897
    1BTD     N414448   6.057   0.722  10.013  0.6291 -0.0122  0.2637
    1BTD     C514449   6.260   0.756   9.923  0.5697 -0.1270  0.0854
    1BTD     C614450   6.358   0.826   9.844  0.5493 -0.1641  0.0272
    1BTD     C714451   6.319   0.951   9.775  0.5817 -0.0966  0.1299
    1BTD     C814452   6.185   1.000   9.788  0.6325  0.0046  0.2856
    1BTD    C1514453   6.092   0.928   9.866  0.6507  0.0376  0.3382
    1BTD    C1614454   6.129   0.808   9.933  0.6196 -0.0274  0.2385
    1BTD    C4314455   5.920   0.659   9.964 -0.1471 -0.0027  0.5611
    1BTD    C4414456   5.809   0.566  10.040  0.2185 -2.0505 -0.0471
    1BTD    C4514457   5.715   0.485   9.937 -0.2415 -0.3610  0.6257
    1BTD    C4614458   5.605   0.560   9.869 -0.6729 -0.0545 -0.0199
    1BTD    C4714459   5.760   0.655  10.160 -0.8553  0.4201 -1.7007
    1BTD    C4814460   5.685   0.564  10.265  0.1987 -0.4735 -0.2005
    1BTD    C4914461   5.676   0.640  10.402 -0.0415 -1.3850 -0.9178
    1BTD    C5014462   5.638   0.539  10.517 -0.3366 -1.1957  0.2835
    1BTD    C7514463   5.855   0.966   9.957 -0.9697 -0.7063 -0.2916
    1BTD    C7614464   5.858   1.044  10.082  1.2550  1.5833  0.2494
    1BTD    C7714465   5.760   0.955  10.161 -0.1405 -0.0504  0.1691
    1BTD    C7814466   5.695   1.011  10.289 -0.6179  0.8480 -0.3127
    1BTD    C7914467   5.984   1.075  10.155 -0.9107 -0.7815  0.8515
    1BTD    C8014468   6.128   1.133  10.107 -0.3922 -0.1233  0.8545
    1BTD    C8114469   6.160   1.280  10.095  0.5899  0.7798 -2.0060
    1BTD    C8214470   6.289   1.302  10.183  0.2029 -0.1027  1.4544
    2TTP     S114471   6.390   0.512  10.033  0.7016 -0.3301 -0.2307
    2TTP     S514472   6.027   0.443  10.253  0.6235  0.1550 -0.2055
    2TTP     C114473   6.151   0.321  10.306  0.5634  0.1882  0.0127
    2TTP     C214474   6.270   0.335  10.241  0.5840  0.0404  0.0181
    2TTP     C314475   6.268   0.443  10.147  0.6480 -0.1045 -0.1504
    2TTP     C414476   6.266   0.634   9.979  0.7617 -0.3634 -0.4487
    2TTP    C1714477   6.146   0.620  10.044  0.7410 -0.2155 -0.4542
    2TTP    C1814478   6.149   0.512  10.139  0.6772 -0.0707 -0.2859
    2TTP    C3214479   6.396   0.254  10.264  0.9993 -0.4038 -0.3271
    2TTP    C3314480   6.523   0.336  10.306  1.0854  1.0776  0.3616
    2TTP    C3414481   6.602   0.238  10.393  0.3861  0.1960  0.6980
    2TTP    C3514482   6.603   0.249  10.543 -1.1162 -0.1770  0.5023
    2TTP    C3614483   6.477   0.193  10.612 -0.5451 -0.2141 -0.1070
    2TTP    C3714484   6.461   0.138  10.749 -0.2493  0.3563 -0.6766
    2TTP    C3814485   6.494   0.233  10.861 -0.0630  0.5894  0.7502
    2TTP    C3914486   6.401   0.211  10.987 -0.3581 -0.9720  0.5641
    2TTP    C4014487   6.389   0.318  11.097  0.9471 -1.6026 -0.1587
    2TTP    C4114488   6.356   0.458  11.061  0.5911  0.3040  0.3854
    2TTP    C4214489   6.345   0.552  11.174  0.4612  1.4832  0.1644
    3TTP     S114490   6.135   1.242   9.602  0.0787 -0.0335 -0.5344
    3TTP     S514491   5.736   1.269   9.760  0.4114  0.0722  0.2978
    3TTP     C114492   5.755   1.394   9.629 -0.1565 -0.6260 -0.4703
    3TTP     C214493   5.880   1.393   9.572 -0.2928 -0.6997 -0.7730
    3TTP     C314494   5.964   1.294   9.631  0.0466 -0.2075 -0.4084
    3TTP     C414495   6.116   1.117   9.733  0.6466  0.6647  0.2337
    3TTP    C1714496   5.992   1.118   9.790  0.7827  0.7385  0.5361
    3TTP    C1814497   5.907   1.218   9.732  0.4435  0.2463  0.1719
    3TTP    C3214498   5.945   1.482   9.467 -0.0731  0.7103  0.4759
    3TTP    C3314499   5.936   1.433   9.329  0.7735 -1.0190 -0.4231
    3TTP    C3414500   6.042   1.504   9.230  1.2163 -0.7320  0.9428
    3TTP    C3514501   6.184   1.562   9.263 -0.7133 -0.3458 -0.1882
    3TTP    C3614502   6.293   1.482   9.353  0.3824 -0.2238 -0.0595
    3TTP    C3714503   6.433   1.522   9.296  0.0573  0.0340  0.1672
    3TTP    C3814504   6.579   1.454   9.328  0.4489 -0.9982  0.4880
    3TTP    C3914505   6.651   1.392   9.215 -0.9101 -0.2058 -1.1165
    3TTP    C4014506   6.760   1.279   9.231  0.3625 -0.7077  2.2718
    3TTP    C4114507   6.841   1.318   9.351 -0.9445  0.4246  0.5553
    3TTP    C4214508   6.858   1.221   9.470  0.4244 -0.6232  1.1790
    4FIC     F114509   5.822   0.375  11.051  0.0466 -0.2326 -0.3138
    4FIC     F214510   5.877   0.111  11.088 -0.1442 -0.2881 -0.4246
    4FIC     O114511   6.029   0.455  10.557  0.3072 -0.1175 -0.1869
    4FIC     N514512   6.103  -0.212  10.788 -0.2329 -0.2856 -0.4942
    4FIC     N614513   6.253  -0.096  10.395  0.0093 -0.1845 -0.3724
    4FIC    C1914514   6.154   0.231  10.417  0.2173 -0.1295 -0.2478
    4FIC    C2014515   6.100   0.221  10.539  0.1594 -0.1564 -0.2754
    4FIC    C2114516   6.038   0.341  10.605  0.2111 -0.1480 -0.2410
    4FIC    C2214517   5.989   0.296  10.737  0.1259 -0.1830 -0.2842
    4FIC    C2314518   5.924   0.371  10.834  0.1353 -0.1891 -0.2735
    4FIC    C2414519   5.887   0.307  10.951  0.0431 -0.2247 -0.3213
    4FIC    C2514520   5.916   0.171  10.970 -0.0550 -0.2532 -0.3787
    4FIC    C2614521   5.981   0.095  10.873 -0.0651 -0.2474 -0.3901
    4FIC    C2714522   6.018   0.158  10.754  0.0274 -0.2115 -0.3419
    4FIC    C2814523   6.088   0.107  10.633  0.0441 -0.1962 -0.3388
    4FIC    C2914524   6.132  -0.021  10.613 -0.0329 -0.2154 -0.3853
    4FIC    C3014525   6.116  -0.126  10.710 -0.1425 -0.2539 -0.4449
    4FIC    C3114526   6.198  -0.062  10.493 -0.0093 -0.1981 -0.3781
    5FIC     F114527   4.946   1.442   9.780 -0.0242 -0.0012 -0.5226
    5FIC     F214528   4.949   1.698   9.686  0.3018  0.4283  0.6125
    5FIC     O114529   5.463   1.300   9.708 -0.1173 -0.2024 -0.7920
    5FIC     N514530   5.322   1.962   9.498  0.7042  0.9024  2.0525
    5FIC     N614531   5.726   1.799   9.460  0.5658  0.6586  1.6134
    5FIC    C1914532   5.650   1.492   9.591  0.1613  0.1365  0.1970
    5FIC    C2014533   5.520   1.518   9.613  0.1718  0.1703  0.2203
    5FIC    C2114534   5.430   1.414   9.673  0.0231 -0.0122 -0.3064
    5FIC    C2214535   5.296   1.475   9.684  0.0776  0.0799 -0.1314
    5FIC    C2314536   5.180   1.417   9.733 -0.0167 -0.0270 -0.4723
    5FIC    C2414537   5.064   1.494   9.733  0.0618  0.0943 -0.2105
    5FIC    C2514538   5.066   1.625   9.684  0.2298  0.3156  0.3743
    5FIC    C2614539   5.182   1.684   9.634  0.3248  0.4233  0.7169
    5FIC    C2714540   5.300   1.607   9.634  0.2472  0.3032  0.4597
    5FIC    C2814541   5.437   1.639   9.589  0.3117  0.3675  0.6990
    5FIC    C2914542   5.480   1.758   9.534  0.4710  0.5710  1.2577
    5FIC    C3014543   5.393   1.870   9.514  0.5987  0.7525  1.6928
    5FIC    C3114544   5.615   1.780   9.494  0.5223  0.6180  1.4498
    1BTD     S214545   6.634   4.522  10.334  0.4024  0.2829  0.1901
    1BTD     N114546   6.511   4.538  10.464  0.6157 -0.0533  0.4363
    1BTD     N214547   6.568   4.368  10.269  0.1014  0.6163 -0.3150
    1BTD     N314548   6.211   4.081  10.372 -0.1267  0.6881 -0.8993
    1BTD     N414549   6.140   4.290  10.612  0.5068 -0.1369  0.0257
    1BTD     C514550   6.318   4.406  10.538  0.5510 -0.0870  0.2110
    1BTD     C614551   6.431   4.432  10.453  0.4597  0.0926  0.1445
    1BTD     C714552   6.463   4.337  10.344  0.1719  0.4673 -0.2759
    1BTD     C814553   6.381   4.220  10.326 -0.0100  0.6437 -0.6087
    1BTD    C1514554   6.272   4.199  10.412  0.0886  0.4574 -0.5292
    1BTD    C1614555   6.241   4.290  10.517  0.3658  0.0962 -0.1242
    1BTD    C4314556   6.007   4.237  10.599  0.9235 -0.9865 -1.0079
    1BTD    C4414557   5.874   4.342  10.600 -0.6573  1.2214  0.5968
    1BTD    C4514558   5.756   4.264  10.644  0.4186  0.8254 -0.6059
    1BTD    C4614559   5.763   4.218  10.799 -0.7529  0.2227  0.1186
    1BTD    C4714560   5.859   4.386  10.460  0.9606 -0.3105  0.5914
    1BTD    C4814561   5.945   4.495  10.392 -0.2353 -1.0567 -0.8787
    1BTD    C4914562   5.859   4.626  10.400 -0.9643  0.0452  0.1017
    1BTD    C5014563   5.836   4.727  10.288 -0.9405  0.8673 -0.2983
    1BTD    C7514564   6.124   3.980  10.445 -0.0094  0.5791  0.5620
    1BTD    C7614565   6.199   3.849  10.510  0.7686 -2.2201 -0.6728
    1BTD    C7714566   6.333   3.879  10.575 -0.4601 -0.5413 -1.2995
    1BTD    C7814567   6.364   3.900  10.720  0.2100  0.9942 -0.7352
    1BTD    C7914568   6.097   3.767  10.581 -0.1545  0.7037  1.1186
    1BTD    C8014569   5.960   3.725  10.498 -0.5114 -1.1406  0.1773
    1BTD    C8114570   5.815   3.782  10.541 -0.6117  1.3654 -0.9435
    1BTD    C8214571   5.729   3.663  10.611 -0.1158 -0.4885  0.1877
    2TTP     S114572   6.375   4.544  10.797  0.0533  0.5597 -0.0474
    2TTP     S514573   6.076   4.294  10.977  0.4743 -0.0763 -0.2224
    2TTP     C114574   6.170   4.376  11.109  0.4131 -0.1013 -0.1631
    2TTP     C214575   6.268   4.458  11.061  0.2795  0.0935 -0.1054
    2TTP     C314576   6.272   4.459  10.918  0.2207  0.2697 -0.1061
    2TTP     C414577   6.281   4.462  10.664  0.1144  0.5848 -0.1066
    2TTP    C1714578   6.183   4.380  10.712  0.2482  0.3899 -0.1641
    2TTP    C1814579   6.179   4.379  10.855  0.3070  0.2137 -0.1633
    2TTP    C3214580   6.348   4.568  11.127  0.1090 -0.5106  0.8987
    2TTP    C3314581   6.462   4.521  11.231  0.6571 -0.3997  0.2257
    2TTP    C3414582   6.511   4.648  11.316 -0.0064  0.3395  0.5906
    2TTP    C3514583   6.555   4.777  11.256  0.4598  0.0078  1.3389
    2TTP    C3614584   6.685   4.770  11.183  0.1098 -0.2797  0.5464
    2TTP    C3714585   6.742   4.906  11.155  0.8394  0.7910 -0.3903
    2TTP    C3814586   6.849   4.902  11.058  0.6490  1.0526 -0.1919
    2TTP    C3914587   6.955   4.795  11.047 -0.9267 -1.0635  1.7898
    2TTP    C4014588   6.994   4.786  10.895  0.7873  0.5219  0.4148
    2TTP    C4114589   7.122   4.859  10.867  0.2025 -1.0997 -0.2129
    2TTP    C4214590   7.201   4.830  10.735 -0.2151 -0.0387 -0.8343
    3TTP     S114591   6.488   4.049  10.096  0.3887 -0.3056 -0.3561
    3TTP     S514592   6.174   3.765  10.173 -0.1421  0.3914  0.0777
    3TTP     C114593   6.274   3.705  10.033 -0.2107 -0.0405  0.2112
    3TTP     C214594   6.376   3.789  10.001 -0.0508 -0.2813  0.0854
    3TTP     C314595   6.380   3.904  10.086  0.1317 -0.1332 -0.1216
    3TTP     C414596   6.388   4.109  10.236  0.4574  0.1264 -0.4897
    3TTP    C1714597   6.286   4.025  10.268  0.2974  0.3671 -0.3638
    3TTP    C1814598   6.282   3.910  10.183  0.1149  0.2190 -0.1571
    3TTP    C3214599   6.481   3.776   9.891  1.0942 -0.0109 -0.9234
    3TTP    C3314600   6.444   3.732   9.759  0.0637  0.3576  1.1512
    3TTP    C3414601   6.555   3.645   9.691 -0.0308  0.3021  0.6593
    3TTP    C3514602   6.579   3.513   9.774  0.8655 -1.1576  0.4931
    3TTP    C3614603   6.707   3.488   9.857  0.8906 -0.2273 -1.0214
    3TTP    C3714604   6.708   3.384   9.970 -0.5368 -0.8721  0.3412
    3TTP    C3814605   6.729   3.230   9.951  0.3893 -0.8054 -0.4491
    3TTP    C3914606   6.781   3.155  10.076 -1.4723 -0.0876 -0.7912
    3TTP    C4014607   6.922   3.197  10.131  0.1892 -0.8198 -1.5836
    3TTP    C4114608   7.035   3.178  10.029  0.1901 -0.6368 -0.0427
    3TTP    C4214609   7.148   3.269  10.062 -2.3415 -0.8391 -0.3477
    4FIC     F114610   5.807   3.790  11.558 -0.3327  0.0000  0.2652
    4FIC     F214611   5.804   3.963  11.769 -0.5389  0.0569  0.2168
    4FIC     O114612   6.062   4.088  11.185 -0.0514 -0.0653  0.4052
    4FIC     N514613   5.983   4.423  11.805 -0.6353  0.0921  0.2470
    4FIC     N614614   6.183   4.620  11.471 -0.3740  0.0297  0.3661
    4FIC    C1914615   6.150   4.358  11.253 -0.1486 -0.0341  0.4087
    4FIC    C2014616   6.086   4.277  11.339 -0.2115 -0.0199  0.3754
    4FIC    C2114617   6.044   4.139  11.297 -0.1552 -0.0374  0.3759
    4FIC    C2214618   5.977   4.077  11.413 -0.2475 -0.0153  0.3351
    4FIC    C2314619   5.922   3.950  11.422 -0.2370 -0.0209  0.3211
    4FIC    C2414620   5.864   3.914  11.543 -0.3366  0.0039  0.2811
    4FIC    C2514621   5.863   4.003  11.651 -0.4430  0.0330  0.2562
    4FIC    C2614622   5.918   4.130  11.643 -0.4537  0.0389  0.2700
    4FIC    C2714623   5.977   4.169  11.521 -0.3539  0.0142  0.3104
    4FIC    C2814624   6.044   4.295  11.480 -0.3359  0.0124  0.3342
    4FIC    C2914625   6.063   4.406  11.558 -0.4191  0.0364  0.3205
    4FIC    C3014626   6.019   4.415  11.694 -0.5375  0.0670  0.2801
    4FIC    C3114627   6.129   4.523  11.510 -0.3937  0.0325  0.3457
    5FIC     F114628   6.495   2.989  10.365 -0.4539 -0.0687 -0.2208
    5FIC     F214629   6.398   2.863  10.144  0.7451  0.1310 -0.8745
    5FIC     O114630   6.404   3.507  10.236 -1.1619 -0.0243  0.4411
    5FIC     N514631   6.195   3.051   9.734  1.9644  0.4494 -1.3430
    5FIC     N614632   6.143   3.482   9.678  1.1696  0.4437 -0.6938
    5FIC    C1914633   6.280   3.571   9.979 -0.2677  0.1820  0.0514
    5FIC    C2014634   6.306   3.445  10.020 -0.1366  0.1631 -0.0894
    5FIC    C2114635   6.370   3.420  10.154 -0.6211  0.0549  0.1278
    5FIC    C2214636   6.385   3.274  10.167 -0.3259  0.0619 -0.1051
    5FIC    C2314637   6.439   3.204  10.273 -0.5920 -0.0185 -0.0212
    5FIC    C2414638   6.442   3.065  10.263 -0.2205  0.0071 -0.2855
    5FIC    C2514639   6.393   3.001  10.149  0.3970  0.1100 -0.6218
    5FIC    C2614640   6.338   3.071  10.042  0.6655  0.1905 -0.7074
    5FIC    C2714641   6.334   3.211  10.051  0.2968  0.1662 -0.4432
    5FIC    C2814642   6.284   3.313   9.956  0.4377  0.2325 -0.4473
    5FIC    C2914643   6.227   3.290   9.833  0.9942  0.3380 -0.7291
    5FIC    C3014644   6.210   3.159   9.779  1.5259  0.3988 -1.0655
    5FIC    C3114645   6.182   3.396   9.748  1.0875  0.3956 -0.7081
    1BTD     S214646  10.055   7.300   6.263  0.3957 -0.0040  0.4036
    1BTD     N114647  10.115   7.243   6.103  0.1426  0.0384  0.2923
    1BTD     N214648  10.179   7.429   6.280  0.4165 -0.0018  0.2367
    1BTD     N314649  10.539   7.589   6.026  0.0026  0.0789 -0.3042
    1BTD     N414650  10.461   7.360   5.808 -0.3352  0.1283 -0.2359
    1BTD     C514651  10.296   7.307   5.952 -0.1025  0.0846  0.0155
    1BTD     C614652  10.219   7.319   6.073  0.0899  0.0511  0.1441
    1BTD     C714653  10.254   7.423   6.171  0.2429  0.0286  0.1131
    1BTD     C814654  10.366   7.510   6.145  0.1967  0.0410 -0.0448
    1BTD    C1514655  10.439   7.494   6.025  0.0063  0.0740 -0.1670
    1BTD    C1614656  10.405   7.394   5.930 -0.1416  0.0957 -0.1371
    1BTD    C4314657  10.615   7.359   5.792 -0.4245  0.9310 -0.2808
    1BTD    C4414658  10.697   7.350   5.675  0.1555 -0.3157 -0.6683
    1BTD    C4514659  10.627   7.447   5.565 -0.5925  1.3869  0.6820
    1BTD    C4614660  10.702   7.544   5.464  1.3879 -0.1382 -0.2587
    1BTD    C4714661  10.730   7.200   5.647 -0.4316 -0.1825  0.1483
    1BTD    C4814662  10.837   7.186   5.548  0.2555  0.0796 -0.7718
    1BTD    C4914663  10.933   7.088   5.609  0.4215 -0.1866  0.6569
    1BTD    C5014664  11.040   7.121   5.510  0.0648 -0.5730  0.6953
    1BTD    C7514665  10.578   7.657   5.908  0.4013 -0.7285 -1.3082
    1BTD    C7614666  10.694   7.763   5.882  1.5717  2.1946 -1.0031
    1BTD    C7714667  10.844   7.721   5.868  0.5348 -0.2825  0.7646
    1BTD    C7814668  10.902   7.622   5.972 -0.7633 -0.7178 -1.1580
    1BTD    C7914669  10.657   7.843   5.762  0.4030  0.4597  0.1095
    1BTD    C8014670  10.535   7.945   5.761  1.2247 -0.1302 -1.0014
    1BTD    C8114671  10.460   7.964   5.632 -0.0361  0.0832  0.2680
    1BTD    C8214672  10.537   8.037   5.526 -1.0852  0.9462 -1.5109
    2TTP     S114673  10.159   7.113   5.772  0.2363  0.1026 -0.0837
    2TTP     S514674  10.394   7.273   5.449  0.1931  0.4935  0.0775
    2TTP     C114675  10.256   7.177   5.379  0.4809  0.1434 -0.0172
    2TTP     C214676  10.175   7.122   5.474  0.5116  0.0018 -0.0724
    2TTP     C314677  10.219   7.154   5.607  0.3083  0.1651 -0.0421
    2TTP     C414678  10.297   7.208   5.843 -0.0515  0.4528  0.0108
    2TTP    C1714679  10.377   7.264   5.747 -0.0824  0.5944  0.0663
    2TTP    C1814680  10.333   7.232   5.615  0.1211  0.4311  0.0359
    2TTP    C3214681  10.099   6.991   5.444 -0.3189  1.2360 -0.6835
    2TTP    C3314682  10.038   6.901   5.555 -0.9782 -1.4683 -0.7180
    2TTP    C3414683   9.991   6.778   5.506  0.3708  0.1455 -0.3061
    2TTP    C3514684   9.855   6.795   5.445  0.2157  0.6279  1.3398
    2TTP    C3614685   9.755   6.676   5.486  0.4074 -0.5231 -0.4183
    2TTP    C3714686   9.732   6.619   5.621 -1.5623  0.6184  0.7472
    2TTP    C3814687   9.591   6.561   5.650 -0.4508  0.8785  0.4303
    2TTP    C3914688   9.487   6.547   5.543 -1.5151 -1.2031  0.8309
    2TTP    C4014689   9.383   6.645   5.555  1.4803 -0.6827 -0.0304
    2TTP    C4114690   9.265   6.620   5.657 -0.9715  0.7271 -1.3333
    2TTP    C4214691   9.217   6.469   5.686 -0.2619 -1.2865 -0.0691
    3TTP     S114692  10.399   7.708   6.381  0.3509  0.0801 -0.5499
    3TTP     S514693  10.764   7.847   6.201  0.2866  0.4252 -0.4147
    3TTP     C114694  10.740   7.935   6.358  0.0647  0.5167 -0.4991
    3TTP     C214695  10.625   7.897   6.423  0.0718  0.4153 -0.5459
    3TTP     C314696  10.553   7.798   6.351  0.2522  0.2619 -0.5168
    3TTP     C414697  10.423   7.620   6.223  0.5727 -0.0114 -0.4656
    3TTP    C1714698  10.537   7.658   6.158  0.5659  0.0899 -0.4188
    3TTP    C1814699  10.610   7.758   6.231  0.3853  0.2432 -0.4480
    3TTP    C3214700  10.566   7.941   6.552 -0.7272  0.5450 -0.5092
    3TTP    C3314701  10.439   8.018   6.525  0.6659 -0.3669 -0.8942
    3TTP    C3414702  10.438   8.157   6.463  0.1637  0.3703  0.5735
    3TTP    C3514703  10.319   8.247   6.402 -0.9371 -0.2375 -1.5243
    3TTP    C3614704  10.345   8.324   6.270  0.1085 -1.3139  0.3260
    3TTP    C3714705  10.443   8.436   6.286  0.0012 -0.1381 -1.6746
    3TTP    C3814706  10.414   8.587   6.262 -0.5678 -0.5522 -1.3462
    3TTP    C3914707  10.532   8.656   6.329 -0.1214  0.0004 -0.2501
    3TTP    C4014708  10.602   8.780   6.272 -0.3517 -0.6069 -1.5732
    3TTP    C4114709  10.638   8.773   6.122  0.0814  0.3519  1.2391
    3TTP    C4214710  10.741   8.662   6.068 -1.0115 -0.6120 -0.6497
    4FIC     F114711  10.671   7.366   4.685  0.2687  0.5090  0.1225
    4FIC     F214712  10.455   7.283   4.541  0.4082  0.1462  0.1210
    4FIC     O114713  10.499   7.272   5.190  0.2918  0.5403  0.1364
    4FIC     N514714  10.023   7.097   4.694  0.6254 -0.3529  0.1289
    4FIC     N614715   9.933   7.040   5.117  0.6161 -0.2552  0.1402
    4FIC    C1914716  10.233   7.159   5.231  0.4336  0.2050  0.1400
    4FIC    C2014717  10.284   7.186   5.110  0.4225  0.2111  0.1364
    4FIC    C2114718  10.422   7.244   5.097  0.3481  0.3889  0.1349
    4FIC    C2214719  10.447   7.261   4.952  0.3548  0.3470  0.1310
    4FIC    C2314720  10.561   7.311   4.891  0.3004  0.4683  0.1286
    4FIC    C2414721  10.561   7.318   4.752  0.3197  0.3968  0.1250
    4FIC    C2514722  10.450   7.275   4.678  0.3916  0.2097  0.1245
    4FIC    C2614723  10.336   7.225   4.739  0.4466  0.0882  0.1271
    4FIC    C2714724  10.334   7.217   4.879  0.4277  0.1580  0.1304
    4FIC    C2814725  10.229   7.170   4.973  0.4721  0.0671  0.1338
    4FIC    C2914726  10.106   7.120   4.940  0.5455 -0.1158  0.1341
    4FIC    C3014727  10.061   7.107   4.805  0.5891 -0.2456  0.1312
    4FIC    C3114728  10.011   7.076   5.038  0.5836 -0.1916  0.1373
    5FIC     F114729  11.471   8.195   6.092 -0.1445  0.0143 -0.3324
    5FIC     F214730  11.425   8.431   6.220  0.1502 -0.0892 -0.0327
    5FIC     O114731  11.027   7.917   6.228 -0.1438  0.1357 -0.0792
    5FIC     N514732  11.043   8.571   6.501  0.5741 -0.1521  0.5789
    5FIC     N614733  10.705   8.306   6.582  0.5157 -0.0365  0.7163
    5FIC    C1914734  10.826   8.043   6.399  0.1380  0.0796  0.2973
    5FIC    C2014735  10.939   8.104   6.359  0.1264  0.0534  0.2217
    5FIC    C2114736  11.038   8.032   6.271 -0.0222  0.0849  0.0274
    5FIC    C2214737  11.149   8.126   6.248  0.0048  0.0436 -0.0106
    5FIC    C2314738  11.264   8.105   6.173 -0.0994  0.0532 -0.1727
    5FIC    C2414739  11.355   8.209   6.165 -0.0474  0.0078 -0.1762
    5FIC    C2514740  11.331   8.331   6.231  0.1043 -0.0455 -0.0217
    5FIC    C2614741  11.217   8.352   6.307  0.2091 -0.0556  0.1407
    5FIC    C2714742  11.123   8.248   6.316  0.1583 -0.0098  0.1467
    5FIC    C2814743  10.994   8.239   6.387  0.2394 -0.0062  0.2959
    5FIC    C2914744  10.935   8.337   6.463  0.3901 -0.0496  0.4690
    5FIC    C3014745  10.995   8.465   6.484  0.4909 -0.1059  0.5287
    5FIC    C3114746  10.809   8.319   6.528  0.4585 -0.0420  0.6042
    1BTD     S214747   5.748  10.248   0.322  0.1749  0.5248  0.4125
    1BTD     N114748   5.624  10.250   0.453  0.0234  0.3335  0.2735
    1BTD     N214749   5.700  10.409   0.255  0.0126  0.4594  0.3702
    1BTD     N314750   5.381  10.738   0.355 -0.5914 -0.0196  0.0331
    1BTD     N414751   5.288  10.543   0.599 -0.5784 -0.1738 -0.0861
    1BTD     C514752   5.450  10.405   0.526 -0.2910  0.0703  0.0872
    1BTD     C614753   5.558  10.364   0.440 -0.1323  0.2360  0.2062
    1BTD     C714754   5.600  10.453   0.330 -0.1382  0.3061  0.2604
    1BTD     C814755   5.532  10.578   0.310 -0.3024  0.2072  0.1928
    1BTD    C1514756   5.427  10.614   0.396 -0.4544  0.0459  0.0766
    1BTD    C1614757   5.386  10.529   0.503 -0.4490 -0.0220  0.0244
    1BTD    C4314758   5.199  10.643   0.658  0.2127 -0.1566 -0.7086
    1BTD    C4414759   5.276  10.728   0.760 -1.2390 -0.3692 -0.2768
    1BTD    C4514760   5.387  10.671   0.849  0.9268 -0.6452 -0.5810
    1BTD    C4614761   5.502  10.744   0.910  1.0117  0.3829 -1.1821
    1BTD    C4714762   5.211  10.868   0.804  0.2959 -1.5472 -0.3371
    1BTD    C4814763   5.207  10.919   0.947 -1.2010  0.2000  0.1045
    1BTD    C4914764   5.151  10.820   1.049 -0.3059 -1.0512  0.7454
    1BTD    C5014765   5.024  10.888   1.123 -0.7358 -0.3212  0.5105
    1BTD    C7514766   5.252  10.821   0.386 -0.1221  1.0245 -1.4125
    1BTD    C7614767   5.238  10.982   0.404  0.3314  0.2418  1.3427
    1BTD    C7714768   5.364  11.013   0.478  1.0536 -0.1476  0.3866
    1BTD    C7814769   5.404  11.154   0.513  0.0127  0.5592  0.1609
    1BTD    C7914770   5.103  11.020   0.461 -0.2839 -0.7913  0.3556
    1BTD    C8014771   4.962  11.032   0.387 -0.2429  0.4369 -0.7870
    1BTD    C8114772   4.887  10.924   0.310 -0.1033 -1.3170  0.6383
    1BTD    C8214773   4.953  10.872   0.172  0.8576 -0.1594  0.0673
    2TTP     S114774   5.362  10.171   0.692 -0.3224  0.0535 -0.2539
    2TTP     S514775   4.995  10.379   0.773 -0.0355  0.4289  0.0926
    2TTP     C114776   4.986  10.213   0.848  0.0265  0.5880  0.4516
    2TTP     C214777   5.099  10.139   0.828 -0.0583  0.4814  0.3657
    2TTP     C314778   5.196  10.211   0.752 -0.1756  0.2704  0.0134
    2TTP     C414779   5.371  10.336   0.616 -0.3844 -0.1056 -0.6128
    2TTP    C1714780   5.258  10.410   0.637 -0.2995  0.0011 -0.5270
    2TTP    C1814781   5.161  10.339   0.713 -0.1824  0.2120 -0.1746
    2TTP    C3214782   5.134   9.995   0.831 -0.4908 -0.6649 -0.8805
    2TTP    C3314783   5.179   9.971   0.975 -1.2871  0.2296  0.4790
    2TTP    C3414784   5.294   9.863   0.980  0.0954  1.4929  0.1938
    2TTP    C3514785   5.218   9.728   1.019 -0.0218 -0.1789 -0.2190
    2TTP    C3614786   5.201   9.611   0.943 -0.0445 -0.9721  0.6214
    2TTP    C3714787   5.056   9.575   0.970  0.5327  0.4406  0.2872
    2TTP    C3814788   5.007   9.436   0.926  0.8698 -0.9017 -0.9123
    2TTP    C3914789   5.084   9.342   1.031 -0.5411  0.2051 -0.9218
    2TTP    C4014790   5.081   9.199   0.964 -0.1843 -0.1307 -0.2035
    2TTP    C4114791   5.150   9.183   0.830 -0.1706 -0.4651  0.1039
    2TTP    C4214792   5.185   9.038   0.791  0.3051 -0.6480 -0.1476
    3TTP     S114793   5.623  10.695   0.050  0.1362 -0.2320 -0.1915
    3TTP     S514794   5.333  11.011   0.091  0.4114 -0.0143  0.0885
    3TTP     C114795   5.409  11.023  -0.074  0.2266 -0.1007 -0.0030
    3TTP     C214796   5.503  10.926  -0.096  0.1307 -0.1731 -0.0949
    3TTP     C314797   5.518  10.839   0.016  0.1996 -0.1626 -0.0966
    3TTP     C414798   5.547  10.684   0.215  0.3210 -0.1454 -0.0998
    3TTP    C1714799   5.453  10.780   0.238  0.4169 -0.0731 -0.0079
    3TTP    C1814800   5.438  10.867   0.125  0.3477 -0.0832 -0.0066
    3TTP    C3214801   5.599  10.905  -0.192 -0.2854 -0.5356  0.5639
    3TTP    C3314802   5.595  10.804  -0.303  1.0561 -0.2458 -1.1078
    3TTP    C3414803   5.726  10.816  -0.365 -0.4049 -0.1045  1.9563
    3TTP    C3514804   5.741  10.722  -0.497  0.0919 -1.1311 -0.8764
    3TTP    C3614805   5.644  10.679  -0.607 -0.2438  0.5638 -0.6967
    3TTP    C3714806   5.663  10.727  -0.746  0.7789  0.1715  1.4167
    3TTP    C3814807   5.560  10.677  -0.849 -0.4978  0.8605 -1.2566
    3TTP    C3914808   5.611  10.709  -0.986 -1.0569  0.0547 -0.5710
    3TTP    C4014809   5.579  10.635  -1.105 -1.0111  0.5771  0.2072
    3TTP    C4114810   5.629  10.480  -1.076 -0.6757 -0.7773  0.7862
    3TTP    C4214811   5.574  10.397  -1.195  0.3638  0.1045  0.0418
    4FIC     F114812   4.261  10.539   1.042  0.0339 -0.4151  0.5909
    4FIC     F214813   4.153  10.290   1.023 -0.0151 -0.3335 -0.2831
    4FIC     O114814   4.783  10.430   0.949  0.0623 -0.2332  0.5374
    4FIC     N514815   4.369   9.855   0.929 -0.0654 -0.0863 -1.5778
    4FIC     N614816   4.798   9.820   0.860 -0.0333  0.0393 -1.4435
    4FIC    C1914817   4.865  10.154   0.897  0.0256 -0.0907 -0.3167
    4FIC    C2014818   4.738  10.191   0.921  0.0204 -0.1397 -0.2691
    4FIC    C2114819   4.704  10.335   0.947  0.0403 -0.2120  0.1811
    4FIC    C2214820   4.558  10.340   0.970  0.0283 -0.2515  0.1139
    4FIC    C2314821   4.480  10.453   0.997  0.0393 -0.3204  0.4346
    4FIC    C2414822   4.344  10.433   1.015  0.0242 -0.3468  0.2914
    4FIC    C2514823   4.289  10.304   1.005 -0.0011 -0.3047 -0.1591
    4FIC    C2614824   4.366  10.192   0.977 -0.0122 -0.2356 -0.4808
    4FIC    C2714825   4.504  10.210   0.959  0.0027 -0.2079 -0.3422
    4FIC    C2814826   4.612  10.113   0.929 -0.0031 -0.1378 -0.5955
    4FIC    C2914827   4.598   9.978   0.912 -0.0260 -0.0815 -1.0463
    4FIC    C3014828   4.472   9.911   0.921 -0.0477 -0.0844 -1.3370
    4FIC    C3114829   4.708   9.892   0.883 -0.0299 -0.0155 -1.2622
    5FIC     F114830   5.035  11.750  -0.059  0.5448  0.3645 -0.0532
    5FIC     F214831   5.086  11.776  -0.325 -0.4346 -0.2180 -0.3107
    5FIC     O114832   5.253  11.264   0.040  1.0295  0.6409  0.2437
    5FIC     N514833   5.316  11.468  -0.636 -1.4971 -0.8583 -0.4694
    5FIC     N614834   5.476  11.083  -0.505 -0.9209 -0.5248 -0.1855
    5FIC    C1914835   5.380  11.117  -0.178  0.2661  0.1827  0.1032
    5FIC    C2014836   5.323  11.238  -0.193  0.1823  0.1359  0.0384
    5FIC    C2114837   5.260  11.308  -0.076  0.5939  0.3827  0.1180
    5FIC    C2214838   5.208  11.436  -0.126  0.3772  0.2569  0.0169
    5FIC    C2314839   5.141  11.535  -0.054  0.6154  0.4011  0.0417
    5FIC    C2414840   5.101  11.648  -0.124  0.3329  0.2358 -0.0705
    5FIC    C2514841   5.128  11.662  -0.261 -0.1717 -0.0642 -0.2028
    5FIC    C2614842   5.194  11.563  -0.333 -0.4116 -0.2095 -0.2284
    5FIC    C2714843   5.235  11.448  -0.264 -0.1317 -0.0459 -0.1161
    5FIC    C2814844   5.307  11.327  -0.311 -0.2717 -0.1321 -0.1082
    5FIC    C2914845   5.351  11.302  -0.439 -0.7335 -0.4078 -0.2160
    5FIC    C3014846   5.331  11.393  -0.547 -1.1518 -0.6545 -0.3548
    5FIC    C3114847   5.419  11.182  -0.475 -0.8339 -0.4706 -0.1986
    1BTD     S214848   5.653  10.576   4.155 -0.2077 -0.2082 -0.2329
    1BTD     N114849   5.505  10.562   4.256  0.1994  0.3552  0.4625
    1BTD     N214850   5.601  10.728   4.074 -0.4159 -0.5159 -0.6876
    1BTD     N314851   5.228  11.013   4.092 -0.1051 -0.1266 -0.3587
    1BTD     N414852   5.109  10.808   4.316  0.6529  0.9472  1.0583
    1BTD     C514853   5.300  10.693   4.285  0.4270  0.6514  0.7565
    1BTD     C614854   5.428  10.666   4.226  0.1609  0.2882  0.3269
    1BTD     C714855   5.482  10.759   4.124 -0.1833 -0.1996 -0.3170
    1BTD     C814856   5.405  10.874   4.086 -0.2446 -0.2997 -0.4989
    1BTD    C1514857   5.279  10.897   4.146  0.0236  0.0669 -0.0626
    1BTD    C1614858   5.228  10.807   4.244  0.3553  0.5369  0.5578
    1BTD    C4314859   4.979  10.835   4.257 -0.2235  0.3854 -0.3090
    1BTD    C4414860   4.851  10.900   4.319 -0.9146  0.2283 -0.1818
    1BTD    C4514861   4.716  10.904   4.234  0.0014 -0.7787 -0.5201
    1BTD    C4614862   4.662  10.779   4.153 -0.1270  0.1827  0.7555
    1BTD    C4714863   4.884  11.027   4.397 -1.9968 -0.7131  0.2349
    1BTD    C4814864   4.776  11.052   4.501 -1.1180  0.4554  0.7597
    1BTD    C4914865   4.721  11.191   4.529 -1.2016 -0.3927 -0.1593
    1BTD    C5014866   4.683  11.306   4.420  0.2654  1.0464 -1.2001
    1BTD    C7514867   5.150  11.112   4.159  0.7550  0.2562  0.5227
    1BTD    C7614868   5.081  11.230   4.097 -0.1278 -0.0522 -0.8889
    1BTD    C7714869   5.150  11.370   4.141 -0.5468  0.6939  1.0365
    1BTD    C7814870   5.101  11.461   4.250  1.7845  0.5102  0.7216
    1BTD    C7914871   4.942  11.212   4.040  0.2812  0.4468 -0.2622
    1BTD    C8014872   4.867  11.294   3.932 -0.4486 -0.4267 -0.2835
    1BTD    C8114873   4.747  11.234   3.865 -0.3023 -0.8894 -0.5524
    1BTD    C8214874   4.783  11.237   3.721  0.0944 -0.4384  0.2576
    2TTP     S114875   5.296  10.558   4.536 -0.0702  0.8098  0.3947
    2TTP     S514876   4.922  10.751   4.624 -0.6315  0.0417 -0.2855
    2TTP     C114877   4.984  10.673   4.776 -0.3647  0.8173  0.0100
    2TTP     C214878   5.103  10.609   4.758 -0.1756  1.1005  0.2373
    2TTP     C314879   5.150  10.619   4.623 -0.2347  0.7145  0.1864
    2TTP     C414880   5.234  10.636   4.384 -0.3370  0.0341  0.0994
    2TTP    C1714881   5.114  10.700   4.402 -0.5261 -0.2489 -0.1281
    2TTP    C1814882   5.068  10.690   4.537 -0.4669  0.1369 -0.0772
    2TTP    C3214883   5.175  10.515   4.863  0.8522 -0.5289  0.8773
    2TTP    C3314884   5.240  10.389   4.825 -1.3673  0.9107  0.5101
    2TTP    C3414885   5.394  10.412   4.846 -0.2317 -0.0192  0.8448
    2TTP    C3514886   5.488  10.302   4.857 -2.6907  0.8480  1.0902
    2TTP    C3614887   5.644  10.331   4.853 -0.5524  0.6385  0.4204
    2TTP    C3714888   5.718  10.201   4.892 -0.1783 -1.1522 -0.6473
    2TTP    C3814889   5.867  10.233   4.867  1.4468 -1.4478  0.4495
    2TTP    C3914890   5.936  10.158   4.974 -0.6715 -0.5016  2.0127
    2TTP    C4014891   6.088  10.185   4.996  0.8155 -0.8142  0.1259
    2TTP    C4114892   6.199  10.171   4.891  0.3088 -0.2070  0.6497
    2TTP    C4214893   6.259  10.030   4.853 -0.0407  0.6411 -0.4458
    3TTP     S114894   5.546  11.029   3.866  0.0532 -0.1142  0.4050
    3TTP     S514895   5.208  11.290   3.815  0.1901  0.0229  0.2015
    3TTP     C114896   5.329  11.324   3.683  0.0983 -0.3139  0.0283
    3TTP     C214897   5.440  11.245   3.691  0.0507 -0.3762  0.0810
    3TTP     C314898   5.434  11.155   3.802  0.0848 -0.1602  0.2600
    3TTP     C414899   5.425  10.994   3.998  0.1450  0.2224  0.5782
    3TTP    C1714900   5.314  11.073   3.990  0.1927  0.2845  0.5255
    3TTP    C1814901   5.320  11.163   3.879  0.1583  0.0687  0.3465
    3TTP    C3214902   5.561  11.239   3.597 -0.7474  1.1201 -1.0411
    3TTP    C3314903   5.544  11.137   3.491  0.3936  1.1921  0.7838
    3TTP    C3414904   5.632  11.014   3.507 -1.4402  0.2093  0.9909
    3TTP    C3514905   5.603  10.911   3.395 -0.4303 -0.8249  0.2655
    3TTP    C3614906   5.473  10.840   3.353  0.4061 -0.0306 -0.5807
    3TTP    C3714907   5.353  10.787   3.443 -0.4302 -0.1323 -0.4523
    3TTP    C3814908   5.405  10.690   3.550 -0.3478 -0.0896  0.8057
    3TTP    C3914909   5.319  10.661   3.672 -0.1176 -0.3052 -1.0328
    3TTP    C4014910   5.271  10.801   3.730 -0.2451  2.2141 -0.5005
    3TTP    C4114911   5.140  10.807   3.813  0.0048 -1.9128  1.1055
    3TTP    C4214912   5.009  10.798   3.743 -0.7634 -0.2880 -1.2872
    4FIC     F114913   4.347  11.100   5.067  0.3736  0.4482  0.0424
    4FIC     F214914   4.391  10.987   5.311 -0.2425 -0.1318 -0.1099
    4FIC     O114915   4.745  10.874   4.777  0.3891  0.2358  0.2288
    4FIC     N514916   4.736  10.664   5.455 -1.1176 -1.1168 -0.1963
    4FIC     N614917   5.038  10.510   5.180 -0.9815 -1.1659 -0.0199
    4FIC    C1914918   4.928  10.686   4.908 -0.1943 -0.3932  0.1493
    4FIC    C2014919   4.826  10.747   4.971 -0.1742 -0.3173  0.1084
    4FIC    C2114920   4.736  10.842   4.897  0.1343  0.0117  0.1535
    4FIC    C2214921   4.637  10.891   4.995  0.0732  0.0126  0.0910
    4FIC    C2314922   4.533  10.981   4.973  0.2874  0.2646  0.1035
    4FIC    C2414923   4.452  11.011   5.081  0.1745  0.2094  0.0347
    4FIC    C2514924   4.474  10.953   5.207 -0.1430 -0.0899 -0.0437
    4FIC    C2614925   4.578  10.863   5.229 -0.3581 -0.3424 -0.0565
    4FIC    C2714926   4.661  10.831   5.121 -0.2482 -0.2904  0.0123
    4FIC    C2814927   4.778  10.740   5.111 -0.4128 -0.5052  0.0199
    4FIC    C2914928   4.832  10.665   5.213 -0.7265 -0.8185 -0.0432
    4FIC    C3014929   4.779  10.665   5.346 -0.9403 -0.9813 -0.1272
    4FIC    C3114930   4.945  10.580   5.194 -0.8649 -1.0076 -0.0300
    5FIC     F114931   4.717  11.779   3.368  0.0262  0.2616  0.1590
    5FIC     F214932   4.896  11.890   3.196 -0.0576 -0.2129 -0.2376
    5FIC     O114933   5.034  11.436   3.641  0.0126  0.4822  0.4529
    5FIC     N514934   5.381  11.804   3.143 -0.1876 -0.7378 -0.5981
    5FIC     N614935   5.593  11.514   3.391 -0.1813 -0.4698 -0.2885
    5FIC    C1914936   5.319  11.420   3.573 -0.0721  0.1072  0.1786
    5FIC    C2014937   5.232  11.502   3.511 -0.0654  0.0703  0.1200
    5FIC    C2114938   5.087  11.505   3.552 -0.0211  0.2721  0.2699
    5FIC    C2214939   5.021  11.604   3.465 -0.0253  0.1708  0.1569
    5FIC    C2314940   4.887  11.641   3.465  0.0073  0.2893  0.2316
    5FIC    C2414941   4.848  11.738   3.373 -0.0045  0.1557  0.0953
    5FIC    C2514942   4.941  11.795   3.285 -0.0477 -0.0887 -0.1089
    5FIC    C2614943   5.074  11.758   3.284 -0.0803 -0.2081 -0.1844
    5FIC    C2714944   5.116  11.660   3.376 -0.0690 -0.0758 -0.0488
    5FIC    C2814945   5.249  11.600   3.401 -0.0955 -0.1473 -0.0795
    5FIC    C2914946   5.366  11.629   3.335 -0.1394 -0.3722 -0.2588
    5FIC    C3014947   5.374  11.725   3.229 -0.1657 -0.5725 -0.4448
    5FIC    C3114948   5.490  11.566   3.366 -0.1621 -0.4246 -0.2741
    1BTD     S214949   9.330   5.580   6.409  0.1864  0.1126 -0.9591
    1BTD     N114950   9.233   5.528   6.551 -1.0238  0.5795 -1.5855
    1BTD     N214951   9.325   5.420   6.328  1.0495 -0.2097 -0.4070
    1BTD     N314952   9.138   4.998   6.419  0.6232 -0.0237 -0.4127
    1BTD     N414953   9.025   5.131   6.694 -1.9319  0.9489 -1.8647
    1BTD     C514954   9.126   5.319   6.622 -1.4670  0.7606 -1.7138
    1BTD     C614955   9.203   5.400   6.531 -0.7370  0.4762 -1.3622
    1BTD     C714956   9.254   5.339   6.407  0.4234  0.0346 -0.7025
    1BTD     C814957   9.226   5.201   6.378  0.7961 -0.1009 -0.4275
    1BTD    C1514958   9.150   5.126   6.470  0.0521  0.1885 -0.7894
    1BTD    C1614959   9.101   5.184   6.590 -1.0658  0.6141 -1.4250
    1BTD    C4314960   8.975   4.992   6.704  0.7733 -0.9386  0.9337
    1BTD    C4414961   8.971   4.900   6.828 -0.2391  0.5861  0.9068
    1BTD    C4514962   9.114   4.884   6.896  0.9865 -0.3752 -0.0967
    1BTD    C4614963   9.133   4.828   7.035 -0.1279  0.8232 -0.7721
    1BTD    C4714964   8.909   4.768   6.783  2.2910  0.6456  0.4562
    1BTD    C4814965   8.894   4.646   6.891 -0.5645  1.1038  0.9302
    1BTD    C4914966   8.857   4.514   6.821  0.0592  0.8276 -1.2688
    1BTD    C5014967   8.766   4.437   6.918 -1.1286  0.0423  0.3989
    1BTD    C7514968   9.161   4.854   6.476  1.0275  0.8263 -0.7182
    1BTD    C7614969   9.297   4.780   6.497 -0.9149  0.7495 -0.8935
    1BTD    C7714970   9.383   4.837   6.611 -0.0960  0.7974  0.1682
    1BTD    C7814971   9.530   4.816   6.585 -0.0674 -0.3025  1.0446
    1BTD    C7914972   9.290   4.619   6.476 -0.1497 -1.0443 -0.8845
    1BTD    C8014973   9.247   4.513   6.577  0.5852  1.4506  1.3343
    1BTD    C8114974   9.310   4.500   6.712 -0.0831 -0.0541 -1.0180
    1BTD    C8214975   9.288   4.353   6.768  0.0114  0.4188  1.4615
    2TTP     S114976   9.021   5.477   6.861 -0.5914 -0.0058 -0.2491
    2TTP     S514977   8.854   5.115   7.022  0.2146 -0.5194 -0.5536
    2TTP     C114978   8.824   5.250   7.140  0.0879 -0.7261 -0.3481
    2TTP     C214979   8.874   5.369   7.097 -0.1686 -0.5800 -0.2418
    2TTP     C314980   8.938   5.359   6.970 -0.2742 -0.2991 -0.3191
    2TTP     C414981   9.051   5.342   6.743 -0.4644  0.2009 -0.4545
    2TTP    C1714982   9.001   5.222   6.786 -0.2084  0.0546 -0.5608
    2TTP    C1814983   8.937   5.233   6.913 -0.1028 -0.2263 -0.4838
    2TTP    C3214984   8.906   5.490   7.188  1.2314 -1.2031 -0.2834
    2TTP    C3314985   9.035   5.523   7.258 -0.2839 -0.0672 -0.3864
    2TTP    C3414986   9.011   5.644   7.331  0.6804 -0.8486 -0.0760
    2TTP    C3514987   9.127   5.746   7.333  0.2027  0.8018  0.0667
    2TTP    C3614988   9.077   5.868   7.432 -0.4901  1.0395  0.4310
    2TTP    C3714989   9.156   5.992   7.395 -0.3172 -1.3309 -0.9443
    2TTP    C3814990   9.147   6.113   7.492  0.3128 -0.0842  0.2402
    2TTP    C3914991   9.225   6.092   7.619 -0.3606 -0.2350 -0.7358
    2TTP    C4014992   9.245   6.211   7.696 -0.2262 -0.7116  0.4468
    2TTP    C4114993   9.343   6.173   7.807  1.1428 -0.6041 -0.5090
    2TTP    C4214994   9.423   6.290   7.838 -0.4089  0.4298  0.0992
    3TTP     S114995   9.333   5.109   6.099 -0.1948  0.1006  0.0752
    3TTP     S514996   9.109   4.744   6.139 -0.2820  0.1241 -0.1999
    3TTP     C114997   9.190   4.745   5.976 -0.2104  0.1872 -0.1636
    3TTP     C214998   9.264   4.858   5.954 -0.1791  0.1835 -0.0767
    3TTP     C314999   9.260   4.947   6.065 -0.2112  0.1308 -0.0354
    3TTP     C415000   9.252   5.108   6.262 -0.2670  0.0376  0.0389
    3TTP    C1715001   9.178   4.995   6.284 -0.2984  0.0411 -0.0482
    3TTP    C1815002   9.183   4.906   6.173 -0.2661  0.0937 -0.0893
    3TTP    C3215003   9.346   4.886   5.822  0.6214  0.2180  1.0764
    3TTP    C3315004   9.286   4.990   5.726  0.9461 -0.4084  0.1180
    3TTP    C3415005   9.382   5.083   5.651 -0.3068 -0.3960 -1.6731
    3TTP    C3515006   9.487   5.002   5.563  1.0060  1.1259 -0.4580
    3TTP    C3615007   9.611   5.079   5.523 -0.9647 -0.4087  0.4354
    3TTP    C3715008   9.739   4.988   5.496  0.3382  0.4570  0.5899
    3TTP    C3815009   9.882   5.039   5.467  1.2105 -0.9340 -0.3132
    3TTP    C3915010   9.914   5.108   5.610 -0.2020 -0.2221  0.7900
    3TTP    C4015011   9.979   5.024   5.724  0.4565  0.6788 -1.6660
    3TTP    C4115012  10.113   4.964   5.725 -0.4300 -0.2624 -0.3494
    3TTP    C4215013  10.241   5.047   5.729 -0.9457 -0.5874  0.1599
    4FIC     F115014   8.256   4.749   7.445  0.6721 -0.2382  0.7377
    4FIC     F215015   8.250   4.897   7.674 -0.0048  0.6559  0.1534
    4FIC     O115016   8.623   5.023   7.156  0.7157 -0.7266  0.3263
    4FIC     N515017   8.502   5.304   7.796 -0.9470  1.5930 -0.9793
    4FIC     N615018   8.790   5.489   7.524 -0.7765  1.0310 -1.1828
    4FIC    C1915019   8.747   5.261   7.272  0.0841 -0.0461 -0.3779
    4FIC    C2015020   8.655   5.187   7.335  0.1001  0.0420 -0.2515
    4FIC    C2115021   8.596   5.065   7.269  0.4339 -0.3259  0.1134
    4FIC    C2215022   8.500   5.008   7.366  0.3600 -0.1162  0.1661
    4FIC    C2315023   8.421   4.895   7.349  0.5896 -0.3233  0.4638
    4FIC    C2415024   8.338   4.859   7.455  0.4594 -0.0552  0.4522
    4FIC    C2515025   8.334   4.936   7.572  0.1108  0.4053  0.1509
    4FIC    C2615026   8.413   5.049   7.589 -0.1199  0.6142 -0.1471
    4FIC    C2715027   8.498   5.086   7.484  0.0072  0.3483 -0.1402
    4FIC    C2815028   8.593   5.199   7.470 -0.1664  0.4637 -0.4089
    4FIC    C2915029   8.619   5.296   7.563 -0.5090  0.8819 -0.7399
    4FIC    C3015030   8.555   5.300   7.691 -0.7486  1.2714 -0.8703
    4FIC    C3115031   8.713   5.402   7.541 -0.6542  0.9614 -0.9817
    5FIC     F115032   8.985   3.947   6.047 -0.8025  0.2265 -0.2912
    5FIC     F215033   9.062   3.912   5.788  0.2968 -0.1244  0.0732
    5FIC     O115034   9.087   4.475   6.112 -0.6537  0.2164 -0.4380
    5FIC     N515035   9.246   4.237   5.463  1.9836 -0.6361  0.4932
    5FIC     N615036   9.310   4.656   5.567  1.8783 -0.5733  0.3051
    5FIC    C1915037   9.197   4.628   5.889  0.4493 -0.1225 -0.1418
    5FIC    C2015038   9.168   4.497   5.882  0.3691 -0.1062 -0.1190
    5FIC    C2115039   9.112   4.425   6.001 -0.2112  0.0725 -0.2779
    5FIC    C2215040   9.093   4.285   5.960 -0.1476  0.0427 -0.2062
    5FIC    C2315041   9.043   4.180   6.037 -0.5691  0.1688 -0.3022
    5FIC    C2415042   9.034   4.055   5.976 -0.4073  0.1090 -0.2047
    5FIC    C2515043   9.073   4.037   5.843  0.1594 -0.0721 -0.0169
    5FIC    C2615044   9.123   4.141   5.766  0.5820 -0.1986  0.0799
    5FIC    C2715045   9.133   4.268   5.826  0.4263 -0.1404 -0.0165
    5FIC    C2815046   9.181   4.398   5.772  0.7665 -0.2393  0.0446
    5FIC    C2915047   9.229   4.422   5.646  1.3402 -0.4194  0.2192
    5FIC    C3015048   9.238   4.320   5.546  1.6918 -0.5379  0.3692
    5FIC    C3115049   9.273   4.551   5.603  1.6327 -0.5031  0.2655
    1BTD     S215050  10.267   3.676   4.251 -0.1179 -0.4660 -0.0585
    1BTD     N115051  10.101   3.639   4.191 -0.2418  0.0262 -0.0285
    1BTD     N215052  10.345   3.653   4.091 -0.1898 -0.8410 -0.0435
    1BTD     N315053  10.207   3.541   3.656 -0.5605 -0.7164  0.0412
    1BTD     N415054   9.906   3.523   3.779 -0.6242  0.3522  0.0597
    1BTD     C515055  10.003   3.579   3.974 -0.4408  0.1835  0.0174
    1BTD     C615056  10.113   3.613   4.061 -0.3259 -0.1073 -0.0098
    1BTD     C715057  10.249   3.621   4.005 -0.2973 -0.5928 -0.0184
    1BTD     C815058  10.270   3.595   3.865 -0.3841 -0.7630  0.0009
    1BTD    C1515059  10.159   3.561   3.784 -0.4952 -0.4657  0.0273
    1BTD    C1615060  10.028   3.553   3.838 -0.5233  0.0020  0.0353
    1BTD    C4315061   9.857   3.431   3.679 -0.7498  1.7910 -0.8934
    1BTD    C4415062   9.831   3.276   3.705  0.7304 -0.7531 -0.9773
    1BTD    C4515063   9.743   3.196   3.621 -0.8186  0.3543  0.2256
    1BTD    C4615064   9.607   3.255   3.603 -0.3542  1.4167 -1.8578
    1BTD    C4715065   9.953   3.182   3.740  0.2170 -1.0847  0.6438
    1BTD    C4815066  10.054   3.136   3.639 -0.4491 -0.8106 -0.1364
    1BTD    C4915067  10.136   3.008   3.644 -1.5144 -1.0613 -0.5674
    1BTD    C5015068  10.074   2.880   3.624  0.0132  1.0074  1.0461
    1BTD    C7515069  10.118   3.542   3.536  0.7021  1.8441 -1.0550
    1BTD    C7615070  10.059   3.675   3.483  0.3858  0.8491  0.2563
    1BTD    C7715071   9.985   3.672   3.351  0.8884  0.7437  0.7263
    1BTD    C7815072  10.088   3.628   3.232  1.1532  0.1211  0.6802
    1BTD    C7915073  10.144   3.786   3.480 -1.8780 -0.5001 -1.1859
    1BTD    C8015074  10.084   3.903   3.551 -0.2370  0.6193  0.5703
    1BTD    C8115075  10.152   3.960   3.679  0.0404 -0.6187  0.2377
    1BTD    C8215076  10.161   4.116   3.717 -0.4555 -0.2650 -0.5502
    2TTP     S115077   9.770   3.716   4.076 -0.1589  0.0950  0.0330
    2TTP     S515078   9.588   3.698   3.686 -0.0281 -0.2189 -0.0135
    2TTP     C115079   9.508   3.830   3.782 -0.0243 -0.1068 -0.1658
    2TTP     C215080   9.559   3.844   3.907 -0.0646 -0.0033 -0.1603
    2TTP     C315081   9.664   3.750   3.933 -0.0997 -0.0087 -0.0358
    2TTP     C415082   9.851   3.584   3.980 -0.1626 -0.0171  0.1853
    2TTP    C1715083   9.799   3.570   3.855 -0.1225 -0.1207  0.1798
    2TTP    C1815084   9.695   3.664   3.829 -0.0873 -0.1152  0.0553
    2TTP    C3215085   9.531   3.961   4.006  0.7505  0.6729 -0.8318
    2TTP    C3315086   9.480   3.905   4.143  1.6011 -0.4986 -0.3799
    2TTP    C3415087   9.462   4.017   4.241 -0.3788 -0.1415  0.6238
    2TTP    C3515088   9.473   3.981   4.390 -0.8356  0.1832  0.0868
    2TTP    C3615089   9.422   4.062   4.508  0.0277  1.6204 -0.2353
    2TTP    C3715090   9.358   4.203   4.477 -1.4379 -0.3111  0.2492
    2TTP    C3815091   9.393   4.303   4.586 -1.5488 -0.7377 -1.8401
    2TTP    C3915092   9.495   4.430   4.573 -0.8140  1.2366 -0.5011
    2TTP    C4015093   9.647   4.400   4.606  0.3143  0.1026 -0.0880
    2TTP    C4115094   9.698   4.392   4.746 -0.9542 -0.2188 -0.1822
    2TTP    C4215095   9.643   4.500   4.847  0.2204 -0.9326  1.2064
    3TTP     S115096  10.567   3.618   3.786 -0.7814 -0.0150 -0.2952
    3TTP     S515097  10.469   3.529   3.376 -0.1895 -0.4433 -0.3471
    3TTP     C115098  10.646   3.574   3.385 -0.1649 -0.5856 -0.1152
    3TTP     C215099  10.686   3.604   3.512 -0.3462 -0.4617 -0.0855
    3TTP     C315100  10.580   3.593   3.607 -0.5114 -0.2499 -0.2449
    3TTP     C415101  10.391   3.574   3.777 -0.8063  0.1273 -0.5271
    3TTP    C1715102  10.351   3.544   3.650 -0.6250  0.0035 -0.5570
    3TTP    C1815103  10.457   3.555   3.555 -0.4599 -0.2083 -0.3976
    3TTP    C3215104  10.836   3.661   3.545  1.3278 -0.5389  0.0484
    3TTP    C3315105  10.933   3.576   3.619  1.2143  0.8977 -0.3079
    3TTP    C3415106  11.029   3.644   3.712 -0.0250  1.1107  0.4684
    3TTP    C3515107  10.969   3.750   3.807  0.2331 -0.2603 -1.3108
    3TTP    C3615108  10.883   3.721   3.932 -0.5167 -0.2568 -0.3071
    3TTP    C3715109  10.901   3.826   4.030  0.1047 -0.8104 -0.8664
    3TTP    C3815110  10.827   3.809   4.159 -0.4569  0.5922 -0.1852
    3TTP    C3915111  10.780   3.927   4.249  1.2747  1.4201  1.2127
    3TTP    C4015112  10.661   3.869   4.313  0.8663  0.0724 -0.4782
    3TTP    C4115113  10.623   3.951   4.437 -0.7843 -0.3483  0.2161
    3TTP    C4215114  10.656   4.106   4.460 -0.6821 -1.2851  0.2366
    4FIC     F115115   9.006   3.858   3.131 -0.4635 -0.4511  0.6008
    4FIC     F215116   8.879   4.071   3.243  0.1354  0.1091  0.2319
    4FIC     O115117   9.381   3.753   3.508 -0.1974 -0.2946  0.3809
    4FIC     N515118   8.963   4.302   3.673  1.1859  1.0264 -0.4553
    4FIC     N615119   9.281   4.177   3.944  1.2727  1.0357 -0.5527
    4FIC    C1915120   9.392   3.919   3.748  0.4692  0.2964 -0.0497
    4FIC    C2015121   9.303   3.937   3.649  0.3788  0.2351  0.0201
    4FIC    C2115122   9.304   3.848   3.529  0.0312 -0.0744  0.2437
    4FIC    C2215123   9.195   3.895   3.441  0.0176 -0.0630  0.2666
    4FIC    C2315124   9.156   3.843   3.318 -0.2532 -0.2958  0.4458
    4FIC    C2415125   9.050   3.904   3.253 -0.2060 -0.2314  0.4296
    4FIC    C2515126   8.984   4.014   3.311  0.1024  0.0575  0.2393
    4FIC    C2615127   9.022   4.066   3.434  0.3738  0.2908  0.0598
    4FIC    C2715128   9.130   4.005   3.501  0.3309  0.2300  0.0733
    4FIC    C2815129   9.194   4.036   3.631  0.5653  0.4246 -0.0858
    4FIC    C2915130   9.158   4.136   3.718  0.8924  0.7234 -0.2917
    4FIC    C3015131   9.051   4.227   3.693  1.0524  0.8888 -0.3809
    4FIC    C3115132   9.226   4.158   3.842  1.0998  0.8935 -0.4342
    5FIC     F115133  10.534   3.576   2.575 -0.1576  0.5330  0.0671
    5FIC     F215134  10.783   3.471   2.545 -0.4535 -0.1161 -0.1677
    5FIC     O115135  10.513   3.639   3.113  0.3464  0.1708  0.1305
    5FIC     N515136  11.127   3.366   2.885 -0.5190 -1.3077 -0.4599
    5FIC     N615137  11.061   3.437   3.311 -0.0658 -1.4599 -0.3632
    5FIC    C1915138  10.745   3.562   3.275  0.2428 -0.5782 -0.0713
    5FIC    C2015139  10.740   3.550   3.141  0.1273 -0.4617 -0.0781
    5FIC    C2115140  10.618   3.592   3.064  0.1907 -0.0724  0.0295
    5FIC    C2215141  10.646   3.566   2.922  0.0324 -0.0384 -0.0087
    5FIC    C2315142  10.562   3.589   2.813  0.0250  0.2714  0.0601
    5FIC    C2415143  10.611   3.556   2.687 -0.1403  0.2373  0.0043
    5FIC    C2515144  10.740   3.502   2.672 -0.2926 -0.0974 -0.1167
    5FIC    C2615145  10.824   3.479   2.780 -0.2859 -0.4077 -0.1858
    5FIC    C2715146  10.776   3.512   2.908 -0.1197 -0.3785 -0.1309
    5FIC    C2815147  10.839   3.500   3.042 -0.0672 -0.6520 -0.1783
    5FIC    C2915148  10.965   3.451   3.070 -0.1783 -1.0123 -0.2933
    5FIC    C3015149  11.054   3.405   2.968 -0.3655 -1.1734 -0.3846
    5FIC    C3115150  11.017   3.444   3.202 -0.1161 -1.2565 -0.3310
    1BTD     S215151   4.537   8.358   5.229 -0.0473 -0.2644 -0.3735
    1BTD     N115152   4.359   8.341   5.210 -0.0392 -0.3350 -0.3889
    1BTD     N215153   4.561   8.190   5.290 -0.0315 -0.1466 -0.0497
    1BTD     N315154   4.287   7.819   5.378  0.0157 -0.0337  0.5828
    1BTD     N415155   4.039   8.005   5.279  0.0062 -0.2661  0.1650
    1BTD     C515156   4.195   8.164   5.247 -0.0154 -0.2964 -0.0947
    1BTD     C615157   4.328   8.218   5.247 -0.0256 -0.2706 -0.1632
    1BTD     C715158   4.441   8.134   5.292 -0.0213 -0.1650  0.0265
    1BTD     C815159   4.415   7.999   5.335 -0.0068 -0.0905  0.2754
    1BTD    C1515160   4.283   7.949   5.333  0.0029 -0.1191  0.3343
    1BTD    C1615161   4.174   8.031   5.290 -0.0012 -0.2209  0.1515
    1BTD    C4315162   3.976   7.890   5.329 -0.0168 -0.5450 -0.3561
    1BTD    C4415163   3.849   7.911   5.407  0.7215 -0.0707 -0.3054
    1BTD    C4515164   3.864   7.975   5.548 -1.0616 -0.1498 -1.6473
    1BTD    C4615165   3.751   7.964   5.642 -0.8104 -0.8695 -0.4976
    1BTD    C4715166   3.770   7.770   5.420 -0.8058 -0.8588 -0.7834
    1BTD    C4815167   3.840   7.649   5.484  0.7754 -0.5551  0.2833
    1BTD    C4915168   3.841   7.521   5.395 -0.5609  0.9677  0.6469
    1BTD    C5015169   3.906   7.403   5.477 -0.6118  0.8171  0.1412
    1BTD    C7515170   4.218   7.703   5.335  0.1979  1.1884  0.2720
    1BTD    C7615171   4.207   7.651   5.194 -0.1338  1.5581  0.2615
    1BTD    C7715172   4.064   7.622   5.135  0.7510 -0.7589  1.0103
    1BTD    C7815173   4.040   7.652   4.980  0.5027 -0.2052 -0.3285
    1BTD    C7915174   4.351   7.636   5.129 -0.5056 -0.4033  0.2870
    1BTD    C8015175   4.349   7.527   5.039  2.3375  0.9896  0.2489
    1BTD    C8115176   4.411   7.524   4.922 -0.4583 -1.0316  0.2115
    1BTD    C8215177   4.466   7.380   4.885  0.5090  1.6452 -1.3341
    2TTP     S115178   4.008   8.341   5.084  0.0236 -0.4686  0.3852
    2TTP     S515179   3.737   8.010   5.035 -0.2396 -0.2091  0.0795
    2TTP     C115180   3.685   8.145   4.924  0.1342 -0.2348 -0.1289
    2TTP     C215181   3.766   8.255   4.932  0.2375 -0.3161 -0.0467
    2TTP     C315182   3.871   8.237   5.027  0.0252 -0.3614  0.1836
    2TTP     C415183   4.060   8.206   5.195 -0.3501 -0.4430  0.5934
    2TTP    C1715184   3.979   8.096   5.186 -0.4535 -0.3614  0.5114
    2TTP    C1815185   3.873   8.114   5.092 -0.2411 -0.3161  0.2809
    2TTP    C3215186   3.757   8.396   4.858  0.9415  1.3617 -0.1784
    2TTP    C3315187   3.831   8.397   4.720  0.0027  1.8816 -0.0810
    2TTP    C3415188   3.853   8.537   4.658  0.9046 -1.5716  0.5314
    2TTP    C3515189   3.984   8.550   4.583  0.3035  0.3967  0.8327
    2TTP    C3615190   4.023   8.679   4.507 -0.2352  0.0530  0.0556
    2TTP    C3715191   3.919   8.721   4.416 -0.0840 -1.2280 -0.2786
    2TTP    C3815192   3.944   8.849   4.340  0.2531  0.2745  0.8337
    2TTP    C3915193   4.003   8.851   4.191  0.5166 -0.8288 -0.5230
    2TTP    C4015194   3.935   8.759   4.088  0.8581 -1.2344  0.2706
    2TTP    C4115195   4.026   8.683   3.996  0.1718  1.0531  0.7952
    2TTP    C4215196   3.955   8.571   3.917  0.3730  0.2260  0.0770
    3TTP     S115197   4.657   7.888   5.468  0.0512  0.6092  0.2473
    3TTP     S515198   4.425   7.556   5.613  0.5782  0.0199 -0.2472
    3TTP     C115199   4.588   7.552   5.693  0.4429  0.3949  0.0501
    3TTP     C215200   4.670   7.654   5.653  0.2723  0.5990  0.2204
    3TTP     C315201   4.606   7.739   5.558  0.2421  0.4666  0.1222
    3TTP     C415202   4.494   7.891   5.387  0.1864  0.2341 -0.0499
    3TTP    C1715203   4.413   7.789   5.427  0.3573  0.0300 -0.2203
    3TTP    C1815204   4.477   7.704   5.523  0.3873  0.1625 -0.1220
    3TTP    C3215205   4.810   7.668   5.718 -0.4851 -0.9209  1.0673
    3TTP    C3315206   4.929   7.693   5.622  0.4619  1.4514 -1.0822
    3TTP    C3415207   4.918   7.682   5.462  0.1920 -0.5955  0.3759
    3TTP    C3515208   4.829   7.598   5.369  0.5472 -0.3524  0.7752
    3TTP    C3615209   4.780   7.456   5.382  0.6406  0.1107  0.4409
    3TTP    C3715210   4.879   7.354   5.347  0.1383 -0.0874 -2.0219
    3TTP    C3815211   4.855   7.199   5.367 -1.0999  0.3989 -0.5592
    3TTP    C3915212   4.730   7.166   5.282 -0.9048 -0.1595 -0.0472
    3TTP    C4015213   4.628   7.070   5.323 -0.1762  0.4098 -0.5158
    3TTP    C4115214   4.572   7.034   5.466  0.3899 -0.3100 -0.7609
    3TTP    C4215215   4.417   7.053   5.512 -0.9472 -1.0355 -0.4800
    4FIC     F115216   3.134   7.566   4.717 -0.2729 -0.0069  0.2952
    4FIC     F215217   3.077   7.710   4.494 -0.4103  0.1143  0.4078
    4FIC     O115218   3.503   7.885   4.953 -0.0929 -0.1581  0.2174
    4FIC     N515219   3.258   8.144   4.340 -0.4794  0.1812  0.5144
    4FIC     N615220   3.558   8.364   4.569 -0.3109  0.0386  0.4311
    4FIC    C1915221   3.580   8.135   4.823 -0.1600 -0.0956  0.2975
    4FIC    C2015222   3.489   8.050   4.772 -0.1999 -0.0625  0.3127
    4FIC    C2115223   3.455   7.923   4.845 -0.1614 -0.0980  0.2689
    4FIC    C2215224   3.354   7.853   4.763 -0.2209 -0.0476  0.2998
    4FIC    C2315225   3.292   7.732   4.790 -0.2124 -0.0569  0.2773
    4FIC    C2415226   3.199   7.686   4.697 -0.2772 -0.0014  0.3145
    4FIC    C2515227   3.170   7.760   4.582 -0.3479  0.0611  0.3726
    4FIC    C2615228   3.231   7.882   4.555 -0.3567  0.0708  0.3953
    4FIC    C2715229   3.326   7.930   4.647 -0.2918  0.0151  0.3581
    4FIC    C2815230   3.407   8.053   4.648 -0.2818  0.0088  0.3684
    4FIC    C2915231   3.408   8.152   4.553 -0.3377  0.0582  0.4197
    4FIC    C3015232   3.325   8.147   4.436 -0.4153  0.1259  0.4715
    4FIC    C3115233   3.490   8.268   4.562 -0.3225  0.0472  0.4256
    5FIC     F115234   4.231   6.903   6.058  0.2441  0.0979 -0.2307
    5FIC     F215235   4.457   6.873   6.208 -0.1632  0.4897  0.4712
    5FIC     O115236   4.365   7.332   5.756  0.6391  0.0029 -0.1915
    5FIC     N515237   4.876   7.136   6.208 -0.4671  0.9856  1.5081
    5FIC     N615238   4.935   7.477   5.942 -0.0763  0.8322  1.3971
    5FIC    C1915239   4.628   7.456   5.792  0.3902  0.3436  0.4928
    5FIC    C2015240   4.586   7.349   5.862  0.3068  0.3523  0.4555
    5FIC    C2115241   4.449   7.291   5.838  0.4450  0.1706  0.0949
    5FIC    C2215242   4.435   7.177   5.930  0.3047  0.2316  0.1497
    5FIC    C2315243   4.326   7.092   5.944  0.3607  0.1143 -0.1069
    5FIC    C2415244   4.336   6.991   6.038  0.1999  0.2052  0.0091
    5FIC    C2515245   4.452   6.975   6.115 -0.0096  0.4071  0.3708
    5FIC    C2615246   4.562   7.060   6.102 -0.0668  0.5251  0.6282
    5FIC    C2715247   4.553   7.163   6.007  0.0937  0.4357  0.5161
    5FIC    C2815248   4.650   7.268   5.968  0.0869  0.5177  0.7182
    5FIC    C2915249   4.776   7.287   6.021 -0.0899  0.7105  1.0802
    5FIC    C3015250   4.831   7.203   6.123 -0.2966  0.8610  1.3142
    5FIC    C3115251   4.863   7.391   5.977 -0.0814  0.7766  1.2524
    1BTD     S215252   7.178   1.233   9.614 -0.4515  0.0880 -0.2109
    1BTD     N115253   7.153   1.148   9.771 -0.1252  0.3761 -0.0012
    1BTD     N215254   7.345   1.172   9.590 -0.5202  0.0001 -0.4768
    1BTD     N315255   7.643   0.894   9.824 -0.0714  0.3411 -0.6397
    1BTD     N415256   7.407   0.864  10.046  0.4156  0.8045 -0.0532
    1BTD     C515257   7.288   1.000   9.912  0.1514  0.5942 -0.0353
    1BTD     C615258   7.266   1.082   9.796 -0.0863  0.3911 -0.1333
    1BTD     C715259   7.373   1.095   9.695 -0.3074  0.1807 -0.3996
    1BTD     C815260   7.498   1.027   9.715 -0.2800  0.1837 -0.5548
    1BTD    C1515261   7.516   0.948   9.830 -0.0438  0.3865 -0.4511
    1BTD    C1615262   7.412   0.935   9.928  0.1694  0.5892 -0.1942
    1BTD    C4315263   7.464   0.734  10.070  0.6719  0.8583 -0.5939
    1BTD    C4415264   7.515   0.665  10.196  0.4910  0.4254  0.2458
    1BTD    C4515265   7.573   0.532  10.169 -1.4450  1.4748  1.0208
    1BTD    C4615266   7.602   0.421  10.279 -0.7749 -0.2284 -0.2518
    1BTD    C4715267   7.598   0.736  10.290 -0.1383 -1.0646 -1.4085
    1BTD    C4815268   7.565   0.872  10.355 -0.3243 -0.6468 -1.1962
    1BTD    C4915269   7.692   0.952  10.388  0.3803 -0.5761 -1.5606
    1BTD    C5015270   7.776   1.027  10.272  1.7504  0.0782 -0.8903
    1BTD    C7515271   7.739   0.876   9.949  1.4751  0.1563 -0.8147
    1BTD    C7615272   7.831   0.757   9.944  0.4865  0.7320 -1.6934
    1BTD    C7715273   7.945   0.726  10.060 -0.1125 -0.1212  0.7413
    1BTD    C7815274   8.074   0.799   9.993  1.0359 -0.4630 -0.1506
    1BTD    C7915275   7.780   0.612   9.925  0.1092 -0.1302 -0.9880
    1BTD    C8015276   7.713   0.567   9.786  0.5873  0.1311 -0.8296
    1BTD    C8115277   7.712   0.422   9.747  0.3252  0.3272 -0.9891
    1BTD    C8215278   7.851   0.401   9.680  0.8952 -0.7260  0.4104
    2TTP     S115279   7.034   0.993  10.074  0.1603 -0.1875 -0.7070
    2TTP     S515280   7.221   0.736  10.363  0.1996 -0.1908 -0.7353
    2TTP     C115281   7.056   0.781  10.425  0.2314 -0.1425 -0.6840
    2TTP     C215282   6.989   0.863  10.339  0.2214 -0.1387 -0.6723
    2TTP     C315283   7.065   0.893  10.222  0.1878 -0.1737 -0.7036
    2TTP     C415284   7.199   0.948  10.013  0.1284 -0.2357 -0.7584
    2TTP    C1715285   7.267   0.866  10.099  0.1385 -0.2396 -0.7700
    2TTP    C1815286   7.191   0.835  10.216  0.1719 -0.2046 -0.7389
    2TTP    C3215287   6.862   0.945  10.365  0.8443  0.2420 -1.0395
    2TTP    C3315288   6.748   0.940  10.262 -0.8325  0.6188  0.6700
    2TTP    C3415289   6.609   1.011  10.251 -0.2449 -0.8050 -0.5947
    2TTP    C3515290   6.501   0.948  10.163  0.3902 -0.6580  0.7670
    2TTP    C3615291   6.436   0.829  10.262 -0.2586 -0.3664  0.7302
    2TTP    C3715292   6.321   0.910  10.340 -0.6460 -0.4423  0.3857
    2TTP    C3815293   6.242   0.847  10.460  1.2447 -0.9718  0.2117
    2TTP    C3915294   6.136   0.933  10.536 -0.3737 -0.4094  0.1490
    2TTP    C4015295   6.186   1.069  10.538 -1.1871  1.2105 -1.7072
    2TTP    C4115296   6.109   1.165  10.627  0.1538 -0.2731  0.8270
    2TTP    C4215297   6.157   1.159  10.770  0.8950  0.6817 -0.1506
    3TTP     S115298   7.706   1.093   9.489 -0.0261 -0.0390 -0.2980
    3TTP     S515299   7.956   0.788   9.660 -0.5164  0.0042  0.5054
    3TTP     C115300   8.037   0.851   9.510 -0.2806 -0.3254  0.4915
    3TTP     C215301   7.964   0.949   9.448 -0.1150 -0.3581  0.2425
    3TTP     C315302   7.843   0.978   9.517 -0.1688 -0.1241  0.0536
    3TTP     C415303   7.626   1.031   9.640 -0.2620  0.2906 -0.2842
    3TTP    C1715304   7.698   0.933   9.702 -0.4273  0.3234 -0.0352
    3TTP    C1815305   7.820   0.904   9.632 -0.3736  0.0894  0.1538
    3TTP    C3215306   7.991   1.005   9.308  0.1749  1.5697 -1.0186
    3TTP    C3315307   7.935   0.896   9.201  0.2678 -0.9688  0.0358
    3TTP    C3415308   7.793   0.860   9.161 -1.0613  0.8030  1.1994
    3TTP    C3515309   7.820   0.745   9.057  0.7215  1.2244  1.5628
    3TTP    C3615310   7.735   0.725   8.927  0.2239 -0.7381 -0.8084
    3TTP    C3715311   7.602   0.632   8.956 -0.0734 -0.7359 -0.3154
    3TTP    C3815312   7.501   0.678   8.852  0.1662  0.1053 -0.2334
    3TTP    C3915313   7.444   0.816   8.855 -0.4659  0.5092  0.7236
    3TTP    C4015314   7.299   0.829   8.801 -0.1164  0.9392  1.5684
    3TTP    C4115315   7.246   0.975   8.806  0.1678 -1.1014 -0.6178
    3TTP    C4215316   7.095   0.968   8.785  1.2270  0.1176 -0.8887
    4FIC     F115317   7.274   0.253  11.025 -0.2357  0.1875  0.2239
    4FIC     F215318   7.058   0.337  11.167 -0.3402  0.2385  0.0355
    4FIC     O115319   7.222   0.548  10.574 -0.0262 -0.1320 -0.0112
    4FIC     N515320   6.710   0.669  11.051 -0.3413  0.0840 -0.4020
    4FIC     N615321   6.713   0.883  10.670 -0.1565 -0.1758 -0.5474
    4FIC    C1915322   6.997   0.734  10.550 -0.0520 -0.1968 -0.2742
    4FIC    C2015323   7.019   0.656  10.658 -0.1005 -0.1184 -0.2077
    4FIC    C2115324   7.137   0.563  10.663 -0.0833 -0.0896 -0.0727
    4FIC    C2215325   7.130   0.494  10.793 -0.1473 -0.0020 -0.0291
    4FIC    C2315326   7.218   0.399  10.843 -0.1570  0.0511  0.0896
    4FIC    C2415327   7.191   0.348  10.969 -0.2223  0.1317  0.1091
    4FIC    C2515328   7.080   0.391  11.043 -0.2762  0.1578  0.0114
    4FIC    C2615329   6.992   0.487  10.993 -0.2669  0.1052 -0.1068
    4FIC    C2715330   7.017   0.540  10.866 -0.2011  0.0234 -0.1280
    4FIC    C2815331   6.944   0.641  10.786 -0.1744 -0.0472 -0.2418
    4FIC    C2915332   6.830   0.707  10.822 -0.2112 -0.0465 -0.3567
    4FIC    C3015333   6.765   0.686  10.948 -0.2824  0.0253 -0.3810
    4FIC    C3115334   6.766   0.804  10.738 -0.1810 -0.1177 -0.4606
    5FIC     F115335   8.501   0.185   9.645 -0.3984 -0.4815 -0.6468
    5FIC     F215336   8.706   0.310   9.518 -0.0384  0.0168  0.4046
    5FIC     O115337   8.110   0.556   9.598 -0.4482 -0.5563 -0.8302
    5FIC     N515338   8.723   0.755   9.302  0.4437  0.6800  1.7848
    5FIC     N615339   8.376   1.020   9.291  0.3326  0.5210  1.4296
    5FIC    C1915340   8.167   0.808   9.461 -0.1215 -0.1068  0.1089
    5FIC    C2015341   8.258   0.710   9.477 -0.1233 -0.1075  0.1142
    5FIC    C2115342   8.221   0.583   9.549 -0.2964 -0.3462 -0.3853
    5FIC    C2215343   8.341   0.498   9.550 -0.2501 -0.2805 -0.2401
    5FIC    C2315344   8.355   0.371   9.605 -0.3664 -0.4399 -0.5705
    5FIC    C2415345   8.479   0.310   9.593 -0.2912 -0.3347 -0.3427
    5FIC    C2515346   8.585   0.375   9.527 -0.1062 -0.0779  0.1989
    5FIC    C2615347   8.572   0.502   9.472  0.0110  0.0822  0.5310
    5FIC    C2715348   8.447   0.565   9.483 -0.0625 -0.0209  0.3076
    5FIC    C2815349   8.400   0.697   9.436  0.0226  0.0957  0.5467
    5FIC    C2915350   8.474   0.791   9.368  0.2029  0.3444  1.0695
    5FIC    C3015351   8.611   0.771   9.332  0.3347  0.5280  1.4608
    5FIC    C3115352   8.420   0.916   9.326  0.2732  0.4401  1.2643
    1BTD     S215353   1.326   2.799  10.217 -0.2259  0.1888  0.1089
    1BTD     N115354   1.278   2.942  10.120  0.2895  0.3428  0.0761
    1BTD     N215355   1.348   2.691  10.075 -0.4622  0.1203  0.1235
    1BTD     N315356   1.306   2.730   9.609 -0.0130  0.2585  0.0944
    1BTD     N415357   1.220   3.040   9.664  0.9133  0.5327  0.0360
    1BTD     C515358   1.249   2.989   9.881  0.6040  0.4386  0.0560
    1BTD     C615359   1.281   2.904   9.993  0.2604  0.3355  0.0777
    1BTD     C715360   1.320   2.764   9.968 -0.1604  0.2110  0.1042
    1BTD     C815361   1.325   2.715   9.832 -0.2165  0.1957  0.1075
    1BTD    C1515362   1.293   2.802   9.726  0.1289  0.2994  0.0856
    1BTD    C1615363   1.255   2.938   9.750  0.5343  0.4194  0.0601
    1BTD    C4315364   1.145   3.040   9.535 -1.9711 -0.0717  0.3994
    1BTD    C4415365   1.169   3.132   9.410  0.2747  1.6057  2.2691
    1BTD    C4515366   1.048   3.080   9.320 -0.7156 -0.3157  0.1386
    1BTD    C4615367   0.989   3.150   9.191 -0.2189 -0.7126  1.1279
    1BTD    C4715368   1.304   3.160   9.344  0.7372 -0.1152 -0.4031
    1BTD    C4815369   1.333   3.200   9.194  0.4806  0.0415 -0.2270
    1BTD    C4915370   1.303   3.341   9.152 -0.1873  0.6383 -0.1482
    1BTD    C5015371   1.410   3.401   9.063  0.1439 -0.7659  1.0264
    1BTD    C7515372   1.339   2.788   9.471 -0.2814 -0.6544 -0.0670
    1BTD    C7615373   1.460   2.756   9.380  0.5077  0.7490 -0.9131
    1BTD    C7715374   1.616   2.777   9.392  0.2588  0.8551 -0.5279
    1BTD    C7815375   1.674   2.705   9.506  0.1254  0.5739 -0.6597
    1BTD    C7915376   1.408   2.793   9.240  0.5172 -0.9587  0.1897
    1BTD    C8015377   1.480   2.744   9.115 -0.4182  0.2503 -1.5006
    1BTD    C8115378   1.435   2.778   8.969  0.6181  0.3379 -1.6981
    1BTD    C8215379   1.434   2.935   8.964 -0.2323 -0.9474 -0.6071
    2TTP     S115380   1.174   3.258   9.983  0.1654 -0.0570  0.2313
    2TTP     S515381   1.042   3.367   9.589  0.4758  0.3849  0.2477
    2TTP     C115382   0.980   3.491   9.707  0.2383  0.1591  0.3621
    2TTP     C215383   1.017   3.465   9.836  0.1284  0.0095  0.3633
    2TTP     C315384   1.096   3.346   9.846  0.2279  0.0675  0.2747
    2TTP     C415385   1.236   3.135   9.865  0.4029  0.1687  0.1171
    2TTP    C1715386   1.199   3.161   9.736  0.5127  0.3185  0.1157
    2TTP    C1815387   1.120   3.280   9.726  0.4132  0.2604  0.2043
    2TTP    C3215388   0.995   3.533   9.963  0.2539 -0.2190 -0.3445
    2TTP    C3315389   0.846   3.533  10.012  0.5280  1.4255  0.9988
    2TTP    C3415390   0.771   3.409  10.039  0.2097  0.2987  0.1274
    2TTP    C3515391   0.616   3.432  10.024 -0.2836 -0.4005 -1.2534
    2TTP    C3615392   0.555   3.317  10.105  0.4659  0.1571  0.7395
    2TTP    C3715393   0.495   3.197  10.006 -0.1837 -0.5792  0.0553
    2TTP    C3815394   0.353   3.241   9.976  0.5702  1.4462  0.1503
    2TTP    C3915395   0.242   3.159  10.056  0.0135  0.2091  0.6762
    2TTP    C4015396   0.247   3.170  10.210  0.3749 -0.7287  0.1915
    2TTP    C4115397   0.258   3.311  10.271  1.1971 -0.3187 -0.4069
    2TTP    C4215398   0.233   3.318  10.427 -0.1768 -0.1941 -0.4250
    3TTP     S115399   1.308   2.409   9.829  0.2001  0.1316  0.0774
    3TTP     S515400   1.234   2.418   9.406 -0.8259 -0.6297  0.2337
    3TTP     C115401   1.196   2.251   9.468 -0.6041 -0.5412  0.6138
    3TTP     C215402   1.216   2.239   9.602 -0.2742 -0.3010  0.5884
    3TTP     C315403   1.263   2.360   9.661 -0.1847 -0.1780  0.2673
    3TTP     C415404   1.346   2.576   9.767 -0.0217  0.0431 -0.3030
    3TTP    C1715405   1.326   2.588   9.632 -0.3516 -0.1972 -0.2771
    3TTP    C1815406   1.279   2.467   9.574 -0.4411 -0.3201  0.0439
    3TTP    C3215407   1.221   2.110   9.677 -0.2084  0.4636 -0.3591
    3TTP    C3315408   1.093   2.054   9.734 -2.0369  0.6816 -0.2382
    3TTP    C3415409   1.135   1.955   9.841 -0.5690 -0.7028 -1.0981
    3TTP    C3515410   1.200   2.025   9.971 -0.5232 -1.6360 -0.6022
    3TTP    C3615411   1.231   1.914  10.071 -0.4060 -0.0162 -1.0057
    3TTP    C3715412   1.250   1.980  10.207  0.1502 -0.3229 -0.1321
    3TTP    C3815413   1.286   1.906  10.336  0.5336  0.1581  0.2178
    3TTP    C3915414   1.213   1.773  10.372 -0.4187  0.1161  0.3936
    3TTP    C4015415   1.307   1.660  10.371 -0.3560 -1.1049 -0.0724
    3TTP    C4115416   1.353   1.615  10.231 -0.3177 -0.7277  0.3052
    3TTP    C4215417   1.359   1.473  10.203  0.2890  1.8938 -1.4092
    4FIC     F115418   0.439   3.531   9.099 -0.3203 -0.4820  0.5889
    4FIC     F215419   0.417   3.799   9.141  0.5243 -0.2555 -0.3231
    4FIC     O115420   0.789   3.393   9.487 -0.6205 -0.2367  0.9487
    4FIC     N515421   0.636   4.085   9.480  1.5245  0.2451 -1.3783
    4FIC     N615422   0.914   3.924   9.775  1.1196  0.3911 -0.9136
    4FIC    C1915423   0.893   3.600   9.667  0.0797  0.0668  0.2048
    4FIC    C2015424   0.806   3.624   9.567  0.1222 -0.0038  0.1500
    4FIC    C2115425   0.757   3.512   9.479 -0.2527 -0.1599  0.5491
    4FIC    C2215426   0.664   3.573   9.382 -0.0965 -0.2025  0.3712
    4FIC    C2315427   0.594   3.509   9.280 -0.3280 -0.3372  0.6132
    4FIC    C2415428   0.511   3.587   9.201 -0.1108 -0.3518  0.3708
    4FIC    C2515429   0.500   3.725   9.223  0.3243 -0.2349 -0.0991
    4FIC    C2615430   0.570   3.790   9.325  0.5573 -0.1003 -0.3428
    4FIC    C2715431   0.654   3.712   9.406  0.3429 -0.0833 -0.1032
    4FIC    C2815432   0.741   3.749   9.521  0.4946  0.0435 -0.2580
    4FIC    C2915433   0.758   3.875   9.573  0.9023  0.1787 -0.6952
    4FIC    C3015434   0.691   3.990   9.522  1.2429  0.2148 -1.0691
    4FIC    C3115435   0.844   3.901   9.684  1.0195  0.2948 -0.8128
    5FIC     F115436   0.814   2.197   8.736  0.7307 -0.2529 -0.2420
    5FIC     F215437   0.818   1.926   8.760 -0.1234 -0.2371  0.1426
    5FIC     O115438   1.048   2.344   9.202  0.5228 -0.3129 -0.1183
    5FIC     N515439   0.990   1.641   9.126 -1.4995 -0.2570  0.7839
    5FIC     N615440   1.172   1.811   9.485 -1.4897 -0.3072  0.8035
    5FIC    C1915441   1.134   2.138   9.390 -0.3670 -0.3191  0.2935
    5FIC    C2015442   1.075   2.111   9.272 -0.2814 -0.3046  0.2470
    5FIC    C2115443   1.034   2.223   9.180  0.1851 -0.3024  0.0319
    5FIC    C2215444   0.973   2.159   9.062  0.1598 -0.2854  0.0355
    5FIC    C2315445   0.920   2.222   8.950  0.5078 -0.2777 -0.1283
    5FIC    C2415446   0.869   2.141   8.850  0.4027 -0.2614 -0.0876
    5FIC    C2515447   0.871   2.002   8.862 -0.0376 -0.2532  0.1109
    5FIC    C2615448   0.924   1.938   8.974 -0.3864 -0.2609  0.2747
    5FIC    C2715449   0.976   2.019   9.076 -0.2865 -0.2773  0.2365
    5FIC    C2815450   1.039   1.983   9.206 -0.5752 -0.2889  0.3743
    5FIC    C2915451   1.060   1.857   9.255 -1.0281 -0.2855  0.5808
    5FIC    C3015452   1.021   1.739   9.184 -1.2857 -0.2699  0.6917
    5FIC    C3115453   1.121   1.832   9.381 -1.2795 -0.2975  0.7026
    1BTD     S215454   4.744   9.073   2.215  0.4359  0.1015 -0.2143
    1BTD     N115455   4.688   9.007   2.372  0.5811  0.2518 -0.0978
    1BTD     N215456   4.875   8.952   2.194  0.1527 -0.1712 -0.4238
    1BTD     N315457   5.041   8.584   2.435 -0.1625 -0.4566 -0.6403
    1BTD     N415458   4.810   8.652   2.655  0.3653  0.0646 -0.2385
    1BTD     C515459   4.754   8.820   2.517  0.4621  0.1478 -0.1761
    1BTD     C615460   4.766   8.903   2.400  0.4195  0.0987 -0.2149
    1BTD     C715461   4.871   8.872   2.300  0.1798 -0.1380 -0.3976
    1BTD     C815462   4.959   8.761   2.323 -0.0054 -0.3135 -0.5322
    1BTD    C1515463   4.944   8.683   2.439  0.0446 -0.2578 -0.4879
    1BTD    C1615464   4.843   8.713   2.535  0.2756 -0.0296 -0.3121
    1BTD    C4315465   4.882   8.564   2.755 -0.5620 -0.2456 -0.6354
    1BTD    C4415466   4.976   8.636   2.858 -0.9486  0.0110  1.1162
    1BTD    C4515467   4.920   8.629   3.003 -0.7677  0.4022  0.5869
    1BTD    C4615468   4.853   8.499   3.066 -1.5715 -0.0500 -0.2034
    1BTD    C4715469   5.054   8.768   2.813  0.1130  0.2228 -0.2680
    1BTD    C4815470   5.165   8.783   2.711  0.0861 -0.0661 -0.0208
    1BTD    C4915471   5.286   8.686   2.740  0.3802 -0.5094  0.6788
    1BTD    C5015472   5.417   8.759   2.782  0.1693  0.0156  0.3767
    1BTD    C7515473   5.042   8.449   2.472 -0.6202  1.0074 -0.7410
    1BTD    C7615474   4.919   8.335   2.483 -0.9869 -0.7796  0.4567
    1BTD    C7715475   4.866   8.284   2.349 -0.6335  0.3554  0.8435
    1BTD    C7815476   4.784   8.393   2.274  0.2582  0.3680  1.5321
    1BTD    C7915477   4.965   8.196   2.533 -0.1342 -1.4011 -0.3555
    1BTD    C8015478   5.023   8.205   2.679 -0.0099  1.4174  2.0912
    1BTD    C8115479   4.926   8.153   2.791  0.0953  0.9125 -0.6772
    1BTD    C8215480   4.781   8.209   2.790 -0.1819  0.3629 -0.4098
    2TTP     S115481   4.479   8.879   2.645 -0.0965 -0.6894 -0.2010
    2TTP     S515482   4.539   8.531   2.890  0.3409  0.0849  0.8086
    2TTP     C115483   4.366   8.585   2.908  0.2602 -0.1027  0.6156
    2TTP     C215484   4.338   8.696   2.834  0.1204 -0.3529  0.2924
    2TTP     C315485   4.451   8.742   2.759  0.0718 -0.4055  0.1856
    2TTP     C415486   4.651   8.825   2.627 -0.0159 -0.5023 -0.0081
    2TTP    C1715487   4.680   8.714   2.701  0.1240 -0.2520  0.3151
    2TTP    C1815488   4.567   8.668   2.775  0.1725 -0.1993  0.4219
    2TTP    C3215489   4.211   8.787   2.838 -0.4956 -0.4037  0.9346
    2TTP    C3315490   4.233   8.934   2.899 -0.8174  0.0897  1.0573
    2TTP    C3415491   4.192   8.940   3.041 -1.5219 -1.3226  1.1827
    2TTP    C3515492   4.083   9.046   3.051 -0.6000  0.7749  0.3666
    2TTP    C3615493   3.949   8.995   3.028 -0.0748  0.0185  0.5553
    2TTP    C3715494   3.832   9.077   3.094  0.1933 -0.6050 -0.4593
    2TTP    C3815495   3.821   9.115   3.240  0.4208  0.9267 -0.4279
    2TTP    C3915496   3.855   9.003   3.350 -0.3540 -0.0165  0.8911
    2TTP    C4015497   3.771   8.871   3.357 -0.7304 -0.6252  0.9504
    2TTP    C4115498   3.623   8.898   3.388  0.9300 -0.3428 -0.4213
    2TTP    C4215499   3.616   8.902   3.546 -0.8626  0.7685 -0.1346
    3TTP     S115500   5.168   8.786   2.129  0.2071  0.1712 -0.1547
    3TTP     S515501   5.401   8.513   2.365  0.2226 -0.1290 -0.5171
    3TTP     C115502   5.512   8.601   2.251  0.2059 -0.0334 -0.4592
    3TTP     C215503   5.447   8.691   2.172  0.2002  0.0648 -0.3439
    3TTP     C315504   5.306   8.693   2.198  0.2087  0.0684 -0.2971
    3TTP     C415505   5.056   8.698   2.242  0.2238  0.0756 -0.2125
    3TTP    C1715506   5.121   8.608   2.322  0.2297 -0.0225 -0.3279
    3TTP    C1815507   5.262   8.606   2.296  0.2210 -0.0262 -0.3747
    3TTP    C3215508   5.467   8.790   2.054  0.3679  0.6601  0.1867
    3TTP    C3315509   5.588   8.884   2.030  0.8630 -0.8544  0.1217
    3TTP    C3415510   5.624   8.974   2.147 -0.9599 -0.7210  0.5494
    3TTP    C3515511   5.755   9.063   2.133 -0.2785 -0.9503  0.6609
    3TTP    C3615512   5.885   8.999   2.112 -0.1301  0.3810 -1.2079
    3TTP    C3715513   5.989   9.115   2.112 -0.4963 -0.0503 -1.2800
    3TTP    C3815514   6.020   9.179   1.968 -0.7527  0.3092 -0.1868
    3TTP    C3915515   6.160   9.150   1.948 -0.9350 -0.0330 -0.2110
    3TTP    C4015516   6.210   9.224   1.821 -0.1777  0.4371 -0.1160
    3TTP    C4115517   6.222   9.133   1.698  0.5706 -0.4658 -0.9976
    3TTP    C4215518   6.352   9.060   1.655 -0.2828  0.0114 -0.2433
    4FIC     F115519   4.286   8.087   3.562 -0.0718  0.0029  0.2469
    4FIC     F215520   4.022   8.063   3.499  0.0230 -0.0246 -0.1452
    4FIC     O115521   4.451   8.431   3.178  0.5221 -0.1936  0.3257
    4FIC     N515522   3.761   8.273   3.135  0.5824 -0.2031 -0.6529
    4FIC     N615523   3.944   8.547   2.848  1.0272 -0.3507 -0.5125
    4FIC    C1915524   4.258   8.530   2.981  0.8234 -0.2888 -0.0212
    4FIC    C2015525   4.227   8.444   3.080  0.6704 -0.2384 -0.0256
    4FIC    C2115526   4.332   8.398   3.177  0.5214 -0.1915  0.1589
    4FIC    C2215527   4.264   8.306   3.271  0.3761 -0.1431  0.1022
    4FIC    C2315528   4.320   8.238   3.379  0.2104 -0.0899  0.2231
    4FIC    C2415529   4.237   8.157   3.454  0.0943 -0.0509  0.1359
    4FIC    C2515530   4.101   8.145   3.421  0.1434 -0.0649 -0.0661
    4FIC    C2615531   4.044   8.212   3.314  0.3084 -0.1178 -0.1878
    4FIC    C2715532   4.127   8.295   3.237  0.4277 -0.1578 -0.1022
    4FIC    C2815533   4.099   8.380   3.118  0.6106 -0.2174 -0.1886
    4FIC    C2915534   3.977   8.395   3.056  0.7062 -0.2468 -0.3828
    4FIC    C3015535   3.859   8.328   3.100  0.6378 -0.2227 -0.5306
    4FIC    C3115536   3.959   8.478   2.942  0.8823 -0.3040 -0.4530
    5FIC     F115537   6.016   8.049   2.574  0.3880  0.5095  0.0855
    5FIC     F215538   6.182   8.084   2.361 -0.3110 -0.1712 -0.5834
    5FIC     O115539   5.633   8.415   2.466  0.6357  0.9837  0.8010
    5FIC     N515540   6.147   8.395   1.978 -1.1395 -0.8123 -1.0350
    5FIC     N615541   5.814   8.674   1.937 -0.8049 -0.3045 -0.3412
    5FIC    C1915542   5.655   8.579   2.225  0.0559  0.5015  0.4161
    5FIC    C2015543   5.745   8.485   2.260  0.0209  0.4089  0.2622
    5FIC    C2115544   5.727   8.405   2.386  0.3314  0.6716  0.4778
    5FIC    C2215545   5.842   8.313   2.394  0.2021  0.4854  0.2300
    5FIC    C2315546   5.868   8.219   2.493  0.3940  0.6206  0.3071
    5FIC    C2415547   5.984   8.143   2.480  0.2146  0.3932  0.0281
    5FIC    C2515548   6.069   8.162   2.370 -0.1458  0.0428 -0.3163
    5FIC    C2615549   6.043   8.255   2.270 -0.3384 -0.0937 -0.3951
    5FIC    C2715550   5.926   8.333   2.283 -0.1615  0.1321 -0.1161
    5FIC    C2815551   5.870   8.439   2.196 -0.2872  0.0710 -0.1100
    5FIC    C2915552   5.925   8.486   2.078 -0.6248 -0.2391 -0.3950
    5FIC    C3015553   6.047   8.436   2.024 -0.9066 -0.5531 -0.7460
    5FIC    C3115554   5.863   8.589   2.001 -0.7221 -0.2735 -0.3637
    1BTD     S215555  10.685   3.193   4.888 -0.0618  0.0878 -0.1690
    1BTD     N115556  10.525   3.154   4.959 -0.0021  0.2575  0.0595
    1BTD     N215557  10.773   3.188   5.044  0.1166  0.2127 -0.2633
    1BTD     N315558  10.663   3.107   5.493  0.5870  0.7737 -0.0435
    1BTD     N415559  10.357   3.065   5.388  0.4406  0.8290  0.3543
    1BTD     C515560  10.441   3.108   5.185  0.2306  0.5552  0.2085
    1BTD     C615561  10.544   3.140   5.090  0.1397  0.3917  0.0538
    1BTD     C715562  10.683   3.159   5.137  0.2065  0.3666 -0.1268
    1BTD     C815563  10.712   3.145   5.278  0.3605  0.5063 -0.1439
    1BTD    C1515564  10.608   3.114   5.367  0.4448  0.6641  0.0115
    1BTD    C1615565  10.474   3.096   5.321  0.3809  0.6884  0.1857
    1BTD    C4315566  10.359   2.971   5.501  0.2318  0.3706 -0.3782
    1BTD    C4415567  10.378   2.814   5.490 -0.0212 -0.4879  0.4430
    1BTD    C4515568  10.474   2.746   5.590 -0.5862 -1.1810 -0.6431
    1BTD    C4615569  10.552   2.789   5.714  0.1443  0.9856  0.1624
    1BTD    C4715570  10.275   2.729   5.434  0.3676  0.2871  0.3387
    1BTD    C4815571  10.291   2.579   5.378 -0.7785  1.0887 -0.8834
    1BTD    C4915572  10.163   2.501   5.343  0.0307 -0.1795 -0.4670
    1BTD    C5015573  10.090   2.584   5.246  0.6777  0.7532  0.2634
    1BTD    C7515574  10.611   3.156   5.626  1.1533 -1.1022 -0.2021
    1BTD    C7615575  10.520   3.283   5.615 -0.2269 -0.2553 -1.5666
    1BTD    C7715576  10.574   3.390   5.529  0.1791 -0.9000  0.4724
    1BTD    C7815577  10.489   3.514   5.502  0.3660  0.0576  0.3910
    1BTD    C7915578  10.417   3.291   5.726  0.5017 -1.1651  0.3534
    1BTD    C8015579  10.290   3.302   5.673  0.8583  0.7600  1.5177
    1BTD    C8115580  10.194   3.318   5.782 -0.2556  0.0452 -0.8951
    1BTD    C8215581  10.057   3.273   5.755  0.1781 -0.5842  0.2461
    2TTP     S115582  10.156   3.073   5.055 -0.3032  0.2497 -0.3501
    2TTP     S515583  10.003   2.958   5.440  0.0226 -0.0631 -0.3132
    2TTP     C115584   9.866   2.957   5.320 -0.0950  0.1176 -0.1791
    2TTP     C215585   9.905   2.993   5.195 -0.2029  0.2249 -0.1827
    2TTP     C315586  10.045   3.022   5.188 -0.1962  0.1682 -0.2913
    2TTP     C415587  10.293   3.073   5.174 -0.1853  0.0689 -0.4840
    2TTP    C1715588  10.254   3.038   5.300 -0.0779 -0.0383 -0.4804
    2TTP    C1815589  10.114   3.009   5.307 -0.0849  0.0184 -0.3718
    2TTP    C3215590   9.817   2.981   5.069 -0.2706 -0.9192 -0.7577
    2TTP    C3315591   9.763   3.107   5.002  0.3753  0.6879 -0.0937
    2TTP    C3415592   9.692   3.070   4.885 -0.6313  0.6280  1.6018
    2TTP    C3515593   9.534   3.056   4.881 -0.0227  0.1918  0.3323
    2TTP    C3615594   9.467   3.196   4.878  0.7891  1.2744  0.3419
    2TTP    C3715595   9.314   3.182   4.886 -0.3301  0.7397 -0.7243
    2TTP    C3815596   9.262   3.118   5.016  1.6535 -0.0983 -0.4431
    2TTP    C3915597   9.120   3.063   5.021  0.8318 -0.2968  0.0178
    2TTP    C4015598   9.039   3.035   4.890 -0.3086  0.5104  0.9588
    2TTP    C4115599   8.887   3.039   4.895 -0.6635 -1.2463 -0.5976
    2TTP    C4215600   8.817   3.077   4.764 -0.2650  1.4434  1.5899
    3TTP     S115601  11.001   3.119   5.316 -0.3381 -0.0861  0.0665
    3TTP     S515602  10.930   2.984   5.718  0.5035  0.0924  0.2797
    3TTP     C115603  11.101   2.943   5.673  0.4102  0.0725 -0.0617
    3TTP     C215604  11.133   2.982   5.546  0.1445  0.0163 -0.1477
    3TTP     C315605  11.024   3.046   5.480  0.0052 -0.0132  0.0530
    3TTP     C415606  10.830   3.160   5.362 -0.2449 -0.0662  0.4078
    3TTP    C1715607  10.798   3.121   5.488  0.0209 -0.0100  0.4938
    3TTP    C1815608  10.907   3.057   5.554  0.1600  0.0195  0.2931
    3TTP    C3215609  11.264   2.934   5.473 -0.7440  0.5046  0.3305
    3TTP    C3315610  11.334   2.991   5.341 -0.0618 -2.0362  0.0542
    3TTP    C3415611  11.455   3.075   5.379  1.2309 -0.4157  0.6739
    3TTP    C3515612  11.530   3.112   5.255 -0.0874 -1.5522 -0.4712
    3TTP    C3615613  11.654   3.157   5.325  0.9543 -0.0634  0.3099
    3TTP    C3715614  11.756   3.190   5.229 -1.0961  0.9892 -0.0304
    3TTP    C3815615  11.891   3.210   5.309  0.0320 -0.0933  0.5037
    3TTP    C3915616  11.996   3.162   5.207 -0.6526  0.0399  1.0401
    3TTP    C4015617  12.030   3.225   5.066  0.1494 -0.6088  0.2854
    3TTP    C4115618  12.139   3.150   5.011 -0.0051  0.6920  0.0384
    3TTP    C4215619  12.206   3.208   4.887 -0.3114  0.8678  0.4259
    4FIC     F115620   9.322   3.006   5.932  0.0746 -0.1788  0.5972
    4FIC     F215621   9.142   2.880   5.771 -0.2270  0.5113  0.3868
    4FIC     O115622   9.749   3.040   5.601  0.0405 -0.3318  0.5370
    4FIC     N515623   9.187   2.724   5.304 -0.6852  1.3945  0.0414
    4FIC     N615624   9.557   2.776   5.078 -0.6511  1.1359  0.0368
    4FIC    C1915625   9.728   2.932   5.330 -0.2599  0.2732  0.3146
    4FIC    C2015626   9.628   2.929   5.419 -0.2394  0.2847  0.3381
    4FIC    C2115627   9.646   2.986   5.557 -0.0815 -0.0374  0.4544
    4FIC    C2215628   9.518   2.966   5.628 -0.1001  0.0663  0.4505
    4FIC    C2315629   9.487   3.003   5.758  0.0136 -0.1434  0.5382
    4FIC    C2415630   9.359   2.973   5.804 -0.0319  0.0133  0.5144
    4FIC    C2515631   9.267   2.908   5.721 -0.1877  0.3688  0.4059
    4FIC    C2615632   9.298   2.871   5.591 -0.3021  0.5797  0.3179
    4FIC    C2715633   9.426   2.900   5.543 -0.2577  0.4256  0.3405
    4FIC    C2815634   9.490   2.875   5.411 -0.3493  0.5741  0.2671
    4FIC    C2915635   9.432   2.813   5.303 -0.5059  0.9146  0.1547
    4FIC    C3015636   9.297   2.764   5.304 -0.6039  1.1773  0.0929
    4FIC    C3115637   9.501   2.793   5.180 -0.5848  1.0344  0.0905
    5FIC     F115638  11.145   2.827   6.484  0.3400  0.3373  0.2234
    5FIC     F215639  11.406   2.757   6.451  0.2162  0.0350 -0.1215
    5FIC     O115640  10.997   2.922   5.972 -0.3316  0.1267  0.3759
    5FIC     N515641  11.676   2.724   6.037 -0.4407 -0.5496 -0.5083
    5FIC     N615642  11.508   2.813   5.644 -0.9407 -0.6533 -0.3196
    5FIC    C1915643  11.194   2.889   5.758 -0.6888 -0.2370  0.1007
    5FIC    C2015644  11.221   2.868   5.888 -0.5149 -0.1721  0.0757
    5FIC    C2115645  11.115   2.887   5.993 -0.3379  0.0163  0.2238
    5FIC    C2215646  11.177   2.856   6.122 -0.1749  0.0430  0.1522
    5FIC    C2315647  11.118   2.859   6.248  0.0183  0.1966  0.2401
    5FIC    C2415648  11.197   2.825   6.357  0.1467  0.1900  0.1446
    5FIC    C2515649  11.332   2.789   6.339  0.0825  0.0343 -0.0328
    5FIC    C2615650  11.391   2.786   6.214 -0.1100 -0.1196 -0.1214
    5FIC    C2715651  11.313   2.820   6.103 -0.2422 -0.1155 -0.0269
    5FIC    C2815652  11.345   2.826   5.958 -0.4537 -0.2539 -0.0812
    5FIC    C2915653  11.467   2.797   5.900 -0.5703 -0.4250 -0.2451
    5FIC    C3015654  11.581   2.757   5.976 -0.4986 -0.4929 -0.3893
    5FIC    C3115655  11.489   2.806   5.759 -0.7734 -0.5497 -0.2851
    1BTD     S215656  10.565   0.129   8.359  0.3179  0.6036 -0.1811
    1BTD     N115657  10.582   0.224   8.511  0.2420  0.6208 -0.1831
    1BTD     N215658  10.740   0.133   8.318  0.3381  0.5961 -0.0920
    1BTD     N315659  11.129   0.312   8.511  0.2425  0.6121  0.0863
    1BTD     N415660  10.935   0.423   8.748  0.1247  0.6425 -0.0260
    1BTD     C515661  10.769   0.327   8.632  0.1819  0.6318 -0.0999
    1BTD     C615662  10.711   0.252   8.523  0.2363  0.6202 -0.1202
    1BTD     C715663  10.799   0.201   8.415  0.2897  0.6064 -0.0691
    1BTD     C815664  10.941   0.228   8.422  0.2866  0.6048 -0.0002
    1BTD    C1515665  10.992   0.302   8.530  0.2330  0.6165  0.0175
    1BTD    C1615666  10.907   0.350   8.634  0.1809  0.6298 -0.0315
    1BTD    C4315667  11.028   0.533   8.757 -0.2062 -0.8915  0.8977
    1BTD    C4415668  10.976   0.679   8.742  0.1349 -0.8990  0.9407
    1BTD    C4515669  11.008   0.808   8.825  0.3450 -1.6203 -0.2991
    1BTD    C4615670  11.022   0.809   8.974 -0.9692 -0.7415 -0.7410
    1BTD    C4715671  10.888   0.730   8.628 -0.0545 -0.1712  0.4340
    1BTD    C4815672  10.974   0.754   8.505  0.7177 -0.0393  0.0640
    1BTD    C4915673  10.887   0.779   8.385  1.0529  0.9175  2.1502
    1BTD    C5015674  10.769   0.897   8.403 -0.0776  1.0420  1.1693
    1BTD    C7515675  11.239   0.324   8.616  0.4991 -0.9075  0.2115
    1BTD    C7615676  11.353   0.426   8.584 -0.4201 -0.7897  0.0269
    1BTD    C7715677  11.328   0.555   8.498 -0.5096 -0.1628 -0.7309
    1BTD    C7815678  11.419   0.621   8.406  0.7213 -0.1217 -0.1872
    1BTD    C7915679  11.430   0.430   8.717  0.4599 -0.3538 -1.4431
    1BTD    C8015680  11.552   0.520   8.750 -0.2618 -0.6191  0.8904
    1BTD    C8115681  11.682   0.454   8.728 -0.6569  0.2487  0.1668
    1BTD    C8215682  11.796   0.549   8.697 -0.2374  0.5213 -0.8937
    2TTP     S115683  10.563   0.363   8.845 -0.0285 -0.0053  0.3477
    2TTP     S515684  10.854   0.542   9.106 -0.5400  0.2802  0.7246
    2TTP     C115685  10.694   0.536   9.193 -0.6636  0.1907  0.4916
    2TTP     C215686  10.595   0.480   9.118 -0.5131  0.0973  0.3617
    2TTP     C315687  10.642   0.440   8.989 -0.2947  0.0930  0.4411
    2TTP     C415688  10.723   0.369   8.759  0.0954  0.0842  0.5808
    2TTP    C1715689  10.822   0.425   8.834 -0.0552  0.1776  0.7107
    2TTP    C1815690  10.776   0.465   8.963 -0.2739  0.1820  0.6309
    2TTP    C3215691  10.455   0.460   9.158  1.0493  0.3670 -0.0548
    2TTP    C3315692  10.346   0.549   9.109 -0.4221 -0.7645 -0.1079
    2TTP    C3415693  10.213   0.496   9.153 -0.1237 -0.3998 -1.1005
    2TTP    C3515694  10.118   0.532   9.047 -0.3081 -0.1944 -0.5002
    2TTP    C3615695   9.986   0.448   9.045 -1.2665 -0.0168  0.6859
    2TTP    C3715696  10.006   0.300   9.060 -0.5674 -0.6629 -1.1148
    2TTP    C3815697   9.883   0.227   9.093  0.1864 -0.4381 -0.0606
    2TTP    C3915698   9.845   0.255   9.248 -0.2448  0.3634  0.9858
    2TTP    C4015699   9.743   0.359   9.285  0.5193  0.0401 -0.6351
    2TTP    C4115700   9.781   0.469   9.387  0.7928  0.7827  0.8751
    2TTP    C4215701   9.682   0.505   9.492  0.1860 -0.9611 -0.1619
    3TTP     S115702  11.078   0.101   8.190  0.0514  0.0432  0.0159
    3TTP     S515703  11.444   0.290   8.315  0.0045  0.0856  0.0906
    3TTP     C115704  11.477   0.194   8.163 -0.0284  0.3584 -0.0892
    3TTP     C215705  11.365   0.131   8.115 -0.0157  0.3614 -0.1225
    3TTP     C315706  11.251   0.155   8.197  0.0203  0.1483 -0.0079
    3TTP     C415707  11.046   0.197   8.341  0.0844 -0.2296  0.1957
    3TTP    C1715708  11.157   0.260   8.389  0.0718 -0.2326  0.2291
    3TTP    C1815709  11.271   0.236   8.307  0.0355 -0.0195  0.1144
    3TTP    C3215710  11.354   0.043   7.985 -0.2235  0.1882  0.4558
    3TTP    C3315711  11.266   0.103   7.868  0.5665 -0.1352 -1.0961
    3TTP    C3415712  11.291   0.242   7.799  0.0672  0.7125 -0.3382
    3TTP    C3515713  11.250   0.364   7.882 -0.1151 -0.6467  0.6914
    3TTP    C3615714  11.097   0.391   7.882  0.8234  0.0797  1.1343
    3TTP    C3715715  11.060   0.534   7.923 -0.4353 -1.2333 -0.6401
    3TTP    C3815716  10.919   0.544   7.967  0.4263 -0.6031  0.4943
    3TTP    C3915717  10.915   0.687   8.029  0.2879 -0.5704 -0.5367
    3TTP    C4015718  10.927   0.811   7.935  0.0627  0.7616 -0.9222
    3TTP    C4115719  10.959   0.939   8.009 -0.0631 -0.1043  0.8225
    3TTP    C4215720  11.019   1.043   7.919 -0.6624 -0.7574 -1.0224
    4FIC     F115721  11.047   1.082   9.697  0.9084 -0.6669  0.0160
    4FIC     F215722  10.872   1.004   9.890 -0.1707  0.5949 -0.4182
    4FIC     O115723  10.887   0.773   9.283  1.3857 -1.3481  0.3369
    4FIC     N515724  10.507   0.671   9.873 -1.3824  1.9232 -0.8137
    4FIC     N615725  10.417   0.445   9.510 -0.7923  1.1365 -0.4759
    4FIC    C1915726  10.663   0.588   9.320  0.5243 -0.3847  0.0357
    4FIC    C2015727  10.710   0.669   9.417  0.4463 -0.2626 -0.0279
    4FIC    C2115728  10.826   0.761   9.390  0.9096 -0.7831  0.1369
    4FIC    C2215729  10.851   0.834   9.515  0.6855 -0.4893  0.0131
    4FIC    C2315730  10.948   0.931   9.539  0.9603 -0.7833  0.0951
    4FIC    C2415731  10.953   0.986   9.666  0.6620 -0.4068 -0.0537
    4FIC    C2515732  10.863   0.946   9.766  0.1058  0.2431 -0.2774
    4FIC    C2615733  10.766   0.850   9.743 -0.1709  0.5396 -0.3605
    4FIC    C2715734  10.759   0.792   9.615  0.1242  0.1662 -0.2124
    4FIC    C2815735  10.669   0.689   9.558 -0.0448  0.3313 -0.2463
    4FIC    C2915736  10.567   0.625   9.624 -0.5584  0.9219 -0.4425
    4FIC    C3015737  10.534   0.650   9.761 -1.0099  1.4704 -0.6459
    4FIC    C3115738  10.485   0.526   9.561 -0.6840  1.0366 -0.4597
    5FIC     F115739  12.251   0.426   8.348 -0.1962  0.5452 -0.2735
    5FIC     F215740  12.328   0.328   8.106 -0.0134  0.0842 -0.0300
    5FIC     O115741  11.720   0.321   8.337 -0.1221  0.1733 -0.3123
    5FIC     N515742  12.060   0.111   7.751  0.3022 -0.8438  0.2921
    5FIC     N615743  11.629   0.048   7.792  0.3233 -1.0415  0.2126
    5FIC    C1915744  11.605   0.189   8.103  0.0789 -0.3994 -0.0935
    5FIC    C2015745  11.735   0.220   8.115  0.0531 -0.2878 -0.0937
    5FIC    C2115746  11.787   0.287   8.239 -0.0518  0.0083 -0.2096
    5FIC    C2215747  11.932   0.305   8.219 -0.0541  0.0621 -0.1771
    5FIC    C2315748  12.023   0.364   8.307 -0.1351  0.3077 -0.2542
    5FIC    C2415749  12.155   0.370   8.266 -0.1193  0.3092 -0.2026
    5FIC    C2515750  12.195   0.319   8.142 -0.0250  0.0714 -0.0770
    5FIC    C2615751  12.104   0.261   8.053  0.0561 -0.1744  0.0007
    5FIC    C2715752  11.970   0.254   8.093  0.0415 -0.1798 -0.0501
    5FIC    C2815753  11.850   0.199   8.024  0.1112 -0.4043  0.0062
    5FIC    C2915754  11.848   0.140   7.899  0.2104 -0.6694  0.1274
    5FIC    C3015755  11.964   0.124   7.818  0.2605 -0.7643  0.2174
    5FIC    C3115756  11.728   0.090   7.841  0.2719 -0.8726  0.1737
    1BTD     S215757   2.906   2.317   8.317 -0.2526 -0.0945  0.0911
    1BTD     N115758   2.845   2.458   8.410 -0.1873  0.0306 -0.0546
    1BTD     N215759   2.767   2.313   8.203 -0.3055 -0.2130  0.1602
    1BTD     N315760   2.372   2.558   8.140 -0.2954 -0.2283  0.0377
    1BTD     N415761   2.467   2.737   8.394 -0.1498  0.0718 -0.2270
    1BTD     C515762   2.647   2.602   8.399 -0.1695  0.0485 -0.1411
    1BTD     C615763   2.729   2.493   8.354 -0.2073 -0.0197 -0.0448
    1BTD     C715764   2.686   2.411   8.239 -0.2735 -0.1560  0.0756
    1BTD     C815765   2.562   2.443   8.173 -0.2985 -0.2173  0.0930
    1BTD    C1515766   2.484   2.551   8.220 -0.2598 -0.1468 -0.0041
    1BTD    C1615767   2.526   2.629   8.332 -0.1960 -0.0155 -0.1197
    1BTD    C4315768   2.328   2.768   8.401  0.9111  0.3691  0.4982
    1BTD    C4415769   2.236   2.890   8.433  0.0106 -0.1324 -0.8153
    1BTD    C4515770   2.078   2.852   8.482 -0.4559  1.4603  0.3419
    1BTD    C4615771   1.980   2.966   8.525  0.2736 -0.3909  0.5332
    1BTD    C4715772   2.268   3.008   8.334 -0.0595 -0.0355 -0.7684
    1BTD    C4815773   2.241   2.984   8.181  0.1763  0.4001  0.1878
    1BTD    C4915774   2.286   3.088   8.082 -0.1478 -0.8772 -1.2805
    1BTD    C5015775   2.304   3.033   7.943 -1.2060  0.1435 -0.2992
    1BTD    C7515776   2.235   2.579   8.184  0.0545 -0.5453 -0.1542
    1BTD    C7615777   2.156   2.471   8.267 -1.6077 -1.0388  0.5185
    1BTD    C7715778   2.069   2.532   8.381  0.9269 -1.9006  1.5013
    1BTD    C7815779   2.023   2.443   8.491  1.6382 -0.8280  0.4957
    1BTD    C7915780   2.110   2.348   8.195  0.3228 -0.6264  0.9089
    1BTD    C8015781   1.999   2.364   8.079 -0.4215  0.3673  0.2726
    1BTD    C8115782   1.856   2.349   8.142 -0.1909  0.8715 -1.2938
    1BTD    C8215783   1.753   2.459   8.124 -0.5775 -2.0869  0.5291
    2TTP     S115784   2.762   2.720   8.655  0.5146  0.4653  0.1575
    2TTP     S515785   2.404   2.954   8.704  0.2187 -0.0024  0.2391
    2TTP     C115786   2.506   2.971   8.854  0.0473 -0.1799  0.3780
    2TTP     C215787   2.622   2.900   8.848  0.1286 -0.0458  0.3605
    2TTP     C315788   2.635   2.829   8.724  0.3291  0.2018  0.2379
    2TTP     C415789   2.660   2.703   8.505  0.6860  0.6428  0.0188
    2TTP    C1715790   2.544   2.774   8.512  0.6048  0.5088  0.0363
    2TTP    C1815791   2.530   2.845   8.635  0.4042  0.2612  0.1593
    2TTP    C3215792   2.699   2.841   8.967 -0.2240 -1.2110 -0.7730
    2TTP    C3315793   2.725   2.695   8.983 -0.3475 -0.7199 -1.3987
    2TTP    C3415794   2.615   2.586   9.011  0.2234  0.7565  0.0855
    2TTP    C3515795   2.695   2.450   9.027  0.7248  0.3647 -0.1386
    2TTP    C3615796   2.589   2.326   9.023 -1.2236  0.0613  0.4602
    2TTP    C3715797   2.646   2.182   9.021 -0.1251  0.1223  0.7478
    2TTP    C3815798   2.737   2.140   8.905 -0.7227 -0.1968  0.7724
    2TTP    C3915799   2.678   2.026   8.815  0.1489  0.4884  0.0371
    2TTP    C4015800   2.745   2.021   8.673 -0.5833 -0.0558 -0.5730
    2TTP    C4115801   2.692   2.107   8.564  0.6401  0.0169  0.2120
    2TTP    C4215802   2.565   2.042   8.526 -0.4288 -0.5679 -0.6322
    3TTP     S115803   2.547   2.275   7.926 -0.0564 -0.0040  0.1546
    3TTP     S515804   2.226   2.533   7.803 -0.1116 -0.1271  0.0403
    3TTP     C115805   2.276   2.432   7.661 -0.3073 -0.4089  0.1713
    3TTP     C215806   2.378   2.346   7.690 -0.3018 -0.3874  0.2145
    3TTP     C315807   2.421   2.358   7.826 -0.1428 -0.1478  0.1453
    3TTP     C415808   2.497   2.377   8.068  0.1393  0.2778  0.0234
    3TTP    C1715809   2.395   2.463   8.038  0.1338  0.2564 -0.0195
    3TTP    C1815810   2.353   2.451   7.902 -0.0252  0.0167  0.0494
    3TTP    C3215811   2.451   2.248   7.591 -0.4050  0.9996  1.0765
    3TTP    C3315812   2.394   2.105   7.549  0.7942  0.1102 -0.0554
    3TTP    C3415813   2.502   2.012   7.503 -0.2935  0.9439 -0.1466
    3TTP    C3515814   2.596   2.040   7.390  1.5800  0.2830  0.2691
    3TTP    C3615815   2.573   1.949   7.271  0.8660 -0.4664  0.4763
    3TTP    C3715816   2.717   1.925   7.211  0.5911 -1.8640  0.1891
    3TTP    C3815817   2.784   1.784   7.211  0.1501  1.0976 -0.4111
    3TTP    C3915818   2.713   1.647   7.158 -0.8062 -0.2888  0.5495
    3TTP    C4015819   2.829   1.557   7.121 -0.3411  1.8284  0.0352
    3TTP    C4115820   2.774   1.489   7.002  1.1691 -1.4543 -0.5828
    3TTP    C4215821   2.852   1.366   6.972  0.1956  0.4003  1.5085
    4FIC     F115822   2.208   3.742   8.847 -0.1386  0.4194  0.1135
    4FIC     F215823   2.285   3.769   9.106  0.7882  0.7308 -0.1869
    4FIC     O115824   2.361   3.231   8.749 -1.0035  0.1134  0.3426
    4FIC     N515825   2.504   3.446   9.410  1.5042  0.9603 -0.4556
    4FIC     N615826   2.608   3.042   9.281  0.6416  0.6585 -0.2162
    4FIC    C1915827   2.488   3.077   8.962 -0.4253  0.3021  0.1368
    4FIC    C2015828   2.447   3.204   8.977 -0.2439  0.3669  0.0908
    4FIC    C2115829   2.382   3.277   8.862 -0.5641  0.2620  0.2034
    4FIC    C2215830   2.350   3.412   8.912 -0.2537  0.3703  0.1163
    4FIC    C2315831   2.289   3.516   8.842 -0.3886  0.3284  0.1714
    4FIC    C2415832   2.268   3.635   8.910 -0.0304  0.4521  0.0665
    4FIC    C2515833   2.308   3.649   9.044  0.4468  0.6125 -0.0878
    4FIC    C2615834   2.369   3.546   9.114  0.5839  0.6552 -0.1438
    4FIC    C2715835   2.390   3.425   9.047  0.2264  0.5316 -0.0398
    4FIC    C2815836   2.452   3.297   9.092  0.2514  0.5358 -0.0613
    4FIC    C2915837   2.503   3.271   9.217  0.6563  0.6707 -0.1965
    4FIC    C3015838   2.504   3.367   9.323  1.1211  0.8295 -0.3386
    4FIC    C3115839   2.561   3.145   9.252  0.6459  0.6632 -0.2067
    5FIC     F115840   1.950   3.095   7.303  0.4091  0.1274 -0.4935
    5FIC     F215841   1.812   2.930   7.136 -0.0035  0.0843 -0.1113
    5FIC     O115842   2.240   2.735   7.585  0.2215  0.1205 -0.3092
    5FIC     N515843   1.819   2.437   7.098 -0.7304  0.0176  0.5696
    5FIC     N615844   2.073   2.189   7.353 -0.7938  0.0209  0.6363
    5FIC    C1915845   2.210   2.450   7.527 -0.2393  0.0769  0.1211
    5FIC    C2015846   2.143   2.547   7.462 -0.1760  0.0803  0.0600
    5FIC    C2115847   2.164   2.691   7.498  0.0642  0.1032 -0.1643
    5FIC    C2215848   2.075   2.770   7.409  0.0746  0.1010 -0.1767
    5FIC    C2315849   2.060   2.908   7.405  0.2621  0.1177 -0.3525
    5FIC    C2415850   1.971   2.959   7.312  0.2309  0.1117 -0.3260
    5FIC    C2515851   1.899   2.874   7.227  0.0182  0.0895 -0.1290
    5FIC    C2615852   1.914   2.736   7.230 -0.1697  0.0727  0.0473
    5FIC    C2715853   2.004   2.682   7.323 -0.1413  0.0786  0.0232
    5FIC    C2815854   2.043   2.542   7.353 -0.3038  0.0650  0.1767
    5FIC    C2915855   1.995   2.429   7.290 -0.5294  0.0424  0.3865
    5FIC    C3015856   1.899   2.434   7.185 -0.6391  0.0288  0.4861
    5FIC    C3115857   2.038   2.298   7.325 -0.6736  0.0306  0.5226
    1BTD     S215858   2.812   0.943   9.516  0.2488  0.4016 -0.4493
    1BTD     N115859   2.680   1.038   9.592  0.6176  0.6225 -0.0758
    1BTD     N215860   2.788   0.799   9.621 -0.1971  0.1431 -0.8991
    1BTD     N315861   2.501   0.677   9.971 -0.4400  0.0151 -1.1420
    1BTD     N415862   2.367   0.972   9.936  0.5640  0.6060 -0.1276
    1BTD     C515863   2.518   1.000   9.772  0.5775  0.6068 -0.1152
    1BTD     C615864   2.627   0.962   9.687  0.4006  0.4986 -0.2944
    1BTD     C715865   2.688   0.828   9.703 -0.0556  0.2302 -0.7553
    1BTD     C815866   2.636   0.739   9.803 -0.3119  0.0833 -1.0133
    1BTD    C1515867   2.529   0.780   9.885 -0.1249  0.1972 -0.8241
    1BTD    C1615868   2.471   0.910   9.869  0.3145  0.4558 -0.3804
    1BTD    C4315869   2.232   0.900   9.946 -0.0076  0.2861  0.2391
    1BTD    C4415870   2.118   0.921  10.049  1.1837 -0.0584 -0.2837
    1BTD    C4515871   1.984   0.873   9.983 -0.6564  1.3049  0.0207
    1BTD    C4615872   1.861   0.897  10.055 -0.0143  0.3038 -0.9191
    1BTD    C4715873   2.148   0.857  10.182 -1.1205 -0.8738 -0.8897
    1BTD    C4815874   2.160   0.956  10.284  0.9405  0.2105 -0.7096
    1BTD    C4915875   2.107   0.906  10.414 -0.5249 -1.7729 -1.1111
    1BTD    C5015876   2.118   1.005  10.532 -0.1002 -1.0106  0.0137
    1BTD    C7515877   2.447   0.702  10.102 -1.1344 -0.1481 -0.3255
    1BTD    C7615878   2.412   0.585  10.206 -0.8548  0.3761 -0.7478
    1BTD    C7715879   2.301   0.479  10.172 -0.5406  0.1579 -0.6731
    1BTD    C7815880   2.162   0.523  10.142 -0.7718 -0.8794 -1.0455
    1BTD    C7915881   2.395   0.637  10.348 -0.3559 -0.2828 -0.1149
    1BTD    C8015882   2.484   0.747  10.392  0.6460 -1.3349 -0.0238
    1BTD    C8115883   2.621   0.721  10.402 -0.0594  0.5173  1.1286
    1BTD    C8215884   2.677   0.606  10.495 -0.3478 -0.1092 -0.5421
    2TTP     S115885   2.442   1.300   9.730  0.0081 -0.0517  0.0086
    2TTP     S515886   2.172   1.267  10.063 -0.0730 -0.0459 -0.0565
    2TTP     C115887   2.174   1.441  10.007 -0.0382 -0.0414 -0.0410
    2TTP     C215888   2.258   1.461   9.901 -0.0112 -0.0429 -0.0203
    2TTP     C315889   2.323   1.340   9.860 -0.0169 -0.0477 -0.0153
    2TTP     C415890   2.440   1.127   9.786 -0.0268 -0.0561 -0.0067
    2TTP    C1715891   2.356   1.107   9.892 -0.0538 -0.0546 -0.0278
    2TTP    C1815892   2.291   1.227   9.933 -0.0482 -0.0499 -0.0324
    2TTP    C3215893   2.287   1.566   9.806  0.3204 -1.4146  0.8535
    2TTP    C3315894   2.387   1.682   9.843 -1.1491  0.4492  1.2768
    2TTP    C3415895   2.539   1.634   9.847  0.8936  0.4646  0.2155
    2TTP    C3515896   2.621   1.564   9.739 -0.8627 -0.7546  0.9541
    2TTP    C3615897   2.638   1.634   9.596 -0.4049 -0.2583  0.9801
    2TTP    C3715898   2.557   1.761   9.554  0.4967  0.9690  0.1894
    2TTP    C3815899   2.585   1.826   9.417 -0.9676  0.0138 -0.7069
    2TTP    C3915900   2.458   1.897   9.362  1.0424  0.4304  1.2137
    2TTP    C4015901   2.420   2.041   9.419  0.0461  0.3570 -0.7781
    2TTP    C4115902   2.401   2.133   9.298 -0.1886  0.5267 -0.4079
    2TTP    C4215903   2.304   2.114   9.192  0.3024 -0.8514  0.0872
    3TTP     S115904   2.766   0.471   9.750 -0.1907 -0.8024  0.3818
    3TTP     S515905   2.540   0.298  10.072  0.0163 -0.3391  0.7806
    3TTP     C115906   2.640   0.167   9.995 -0.4336 -0.5606  0.5583
    3TTP     C215907   2.716   0.213   9.891 -0.5240 -0.7167  0.4222
    3TTP     C315908   2.698   0.353   9.868 -0.2413 -0.6671  0.4883
    3TTP     C415909   2.666   0.602   9.827  0.2591 -0.5809  0.6037
    3TTP    C1715910   2.590   0.556   9.931  0.3496 -0.4248  0.7398
    3TTP    C1815911   2.608   0.416   9.953  0.0669 -0.4745  0.6738
    3TTP    C3215912   2.818   0.137   9.792  0.4470 -0.0775  1.5648
    3TTP    C3315913   2.802   0.162   9.634  0.1451  1.2570 -0.8381
    3TTP    C3415914   2.878   0.065   9.552 -0.4321 -0.8788  0.0492
    3TTP    C3515915   2.801  -0.072   9.516 -0.6539 -1.3798  0.0611
    3TTP    C3615916   2.864  -0.176   9.411  0.2254 -0.8620  0.6800
    3TTP    C3715917   2.911  -0.155   9.267  0.5685 -0.4165 -1.1739
    3TTP    C3815918   2.902  -0.257   9.161 -0.9451  0.0232 -0.3735
    3TTP    C3915919   2.830  -0.383   9.203  0.4890 -0.3996  0.7283
    3TTP    C4015920   2.684  -0.399   9.189  1.2423 -0.2235  0.9814
    3TTP    C4115921   2.645  -0.544   9.231 -1.0785  0.7776  0.9667
    3TTP    C4215922   2.534  -0.606   9.158  1.1783  0.3106 -0.1177
    4FIC     F115923   1.716   1.634  10.665  0.0954  0.4542  0.1786
    4FIC     F215924   1.681   1.883  10.561 -0.0263  0.2647 -0.2367
    4FIC     O115925   2.023   1.404  10.283  0.2009 -0.0370  0.5567
    4FIC     N515926   1.850   2.077  10.138 -0.1260 -0.3580 -0.5643
    4FIC     N615927   2.097   1.847   9.861 -0.0190 -0.7035 -0.1855
    4FIC    C1915928   2.099   1.560  10.048  0.1223 -0.3925  0.2940
    4FIC    C2015929   2.023   1.609  10.148  0.1004 -0.2616  0.2151
    4FIC    C2115930   1.988   1.522  10.266  0.1438 -0.0822  0.3603
    4FIC    C2215931   1.905   1.605  10.355  0.1051  0.0278  0.2236
    4FIC    C2315932   1.849   1.568  10.477  0.1246  0.2040  0.2863
    4FIC    C2415933   1.774   1.664  10.544  0.0793  0.2803  0.1279
    4FIC    C2515934   1.757   1.792  10.490  0.0167  0.1824 -0.0862
    4FIC    C2615935   1.812   1.829  10.369 -0.0031  0.0065 -0.1497
    4FIC    C2715936   1.888   1.734  10.299  0.0420 -0.0730  0.0083
    4FIC    C2815937   1.960   1.741  10.170  0.0367 -0.2548 -0.0052
    4FIC    C2915938   1.967   1.850  10.086 -0.0171 -0.3906 -0.1876
    4FIC    C3015939   1.903   1.975  10.115 -0.0768 -0.3722 -0.3943
    4FIC    C3115940   2.038   1.848   9.962 -0.0178 -0.5620 -0.1853
    5FIC     F115941   2.259  -0.346  10.509 -0.1649 -0.1540 -0.4125
    5FIC     F215942   2.447  -0.534  10.450 -0.1125 -0.0966 -0.4299
    5FIC     O115943   2.420   0.063  10.193 -0.0365  0.0666 -0.0618
    5FIC     N515944   2.833  -0.511  10.140  0.0544  0.1438 -0.2053
    5FIC     N615945   2.921  -0.154   9.906  0.1441  0.3045  0.0722
    5FIC    C1915946   2.657   0.030  10.025  0.0591  0.1999  0.0458
    5FIC    C2015947   2.609  -0.066  10.107  0.0247  0.1421 -0.0415
    5FIC    C2115948   2.487  -0.041  10.190 -0.0236  0.0756 -0.0925
    5FIC    C2215949   2.462  -0.165  10.266 -0.0520  0.0236 -0.1850
    5FIC    C2315950   2.360  -0.190  10.357 -0.0991 -0.0458 -0.2570
    5FIC    C2415951   2.357  -0.315  10.418 -0.1185 -0.0851 -0.3384
    5FIC    C2515952   2.454  -0.411  10.387 -0.0914 -0.0549 -0.3473
    5FIC    C2615953   2.557  -0.387  10.296 -0.0445  0.0141 -0.2761
    5FIC    C2715954   2.561  -0.261  10.235 -0.0242  0.0546 -0.1929
    5FIC    C2815955   2.655  -0.204  10.135  0.0241  0.1287 -0.1049
    5FIC    C2915956   2.764  -0.268  10.080  0.0611  0.1755 -0.0861
    5FIC    C3015957   2.801  -0.401  10.113  0.0573  0.1578 -0.1516
    5FIC    C3115958   2.850  -0.204   9.985  0.1065  0.2463  0.0010
    1BTD     S215959   0.346   1.850   6.893 -0.0335  0.4074 -0.0162
    1BTD     N115960   0.261   1.979   6.986  0.6962  1.0034 -0.1608
    1BTD     N215961   0.285   1.904   6.733 -0.8374 -0.2791  0.0428
    1BTD     N315962   0.008   2.248   6.573 -1.1580 -0.6019 -0.0987
    1BTD     N415963  -0.021   2.340   6.884  0.7315  0.9785 -0.3494
    1BTD     C515964   0.114   2.166   6.929  0.6919  0.9714 -0.2563
    1BTD     C615965   0.196   2.052   6.897  0.3223  0.6769 -0.1580
    1BTD     C715966   0.209   2.010   6.755 -0.5361 -0.0409 -0.0439
    1BTD     C815967   0.140   2.085   6.653 -0.9821 -0.4285 -0.0342
    1BTD    C1515968   0.062   2.196   6.689 -0.5953 -0.1192 -0.1328
    1BTD    C1615969   0.049   2.236   6.826  0.2320  0.5726 -0.2424
    1BTD    C4315970  -0.047   2.482   6.856 -0.1695  0.8522  0.3922
    1BTD    C4415971   0.009   2.560   6.734 -0.0616  0.6602  0.1546
    1BTD    C4515972  -0.015   2.715   6.751  0.4125 -0.8770 -0.7165
    1BTD    C4615973  -0.159   2.754   6.731 -0.0555 -0.0133  0.6649
    1BTD    C4715974   0.148   2.518   6.688 -0.2418 -0.6846 -0.3060
    1BTD    C4815975   0.295   2.548   6.750 -0.9090 -0.6501  0.3476
    1BTD    C4915976   0.395   2.431   6.743  0.5978  0.2876  0.3216
    1BTD    C5015977   0.541   2.482   6.752  1.2291  0.2063 -0.6390
    1BTD    C7515978  -0.114   2.312   6.537  1.4838  0.2021 -0.1871
    1BTD    C7615979  -0.252   2.315   6.606  1.3431  0.9545 -0.7381
    1BTD    C7715980  -0.324   2.426   6.529  0.5335 -0.5985  2.0099
    1BTD    C7815981  -0.448   2.500   6.597 -0.6471  0.2786 -0.7690
    1BTD    C7915982  -0.349   2.195   6.603  0.8707  0.7100  1.1811
    1BTD    C8015983  -0.284   2.058   6.639  1.0669 -0.0980  0.3577
    1BTD    C8115984  -0.352   1.965   6.529 -0.8914 -0.4914 -0.5300
    1BTD    C8215985  -0.252   1.853   6.492  1.0022  0.5607 -0.2453
    2TTP     S115986   0.069   2.172   7.229 -0.1419  0.0710  0.0917
    2TTP     S515987  -0.251   2.451   7.161  0.4020  0.6218 -0.2285
    2TTP     C115988  -0.250   2.406   7.337  0.2877  0.7918 -0.1838
    2TTP     C215989  -0.151   2.317   7.368  0.1125  0.6317 -0.0823
    2TTP     C315990  -0.073   2.281   7.255  0.0629  0.3690 -0.0362
    2TTP     C415991   0.068   2.217   7.053 -0.0272 -0.0989  0.0470
    2TTP    C1715992  -0.031   2.306   7.021  0.1476  0.0612 -0.0545
    2TTP    C1815993  -0.109   2.342   7.135  0.1972  0.3238 -0.1006
    2TTP    C3215994  -0.128   2.259   7.495 -0.2132 -0.4556 -0.9106
    2TTP    C3315995  -0.087   2.115   7.539 -0.3747 -0.7676  1.1955
    2TTP    C3415996  -0.096   2.109   7.696  0.3332  0.6423 -0.2144
    2TTP    C3515997   0.010   2.169   7.768 -0.6275  0.7126  0.5658
    2TTP    C3615998   0.003   2.139   7.926 -0.7900  0.4178 -0.6687
    2TTP    C3715999  -0.080   2.218   8.028 -0.5128 -0.5711  1.6104
    2TTP    C3816000  -0.060   2.190   8.171  0.3331  0.1310  0.5179
    2TTP    C3916001  -0.178   2.180   8.270 -0.7940  0.6564  0.2717
    2TTP    C4016002  -0.162   2.299   8.360  0.2688 -0.5364 -1.0313
    2TTP    C4116003  -0.027   2.315   8.439  0.9370  0.6482 -0.7848
    2TTP    C4216004  -0.072   2.332   8.584  1.1747  1.2044  0.1309
    3TTP     S116005   0.175   1.953   6.379  0.0066  0.1829 -0.1347
    3TTP     S516006  -0.104   2.232   6.209  0.2143  0.6322  0.2590
    3TTP     C116007  -0.059   2.111   6.081  0.0171  0.6957  0.1278
    3TTP     C216008   0.030   2.018   6.126 -0.0587  0.5608 -0.0015
    3TTP     C316009   0.066   2.038   6.263  0.0363  0.4023 -0.0014
    3TTP     C416010   0.130   2.074   6.507  0.2037  0.1193 -0.0035
    3TTP    C1716011   0.041   2.167   6.462  0.2794  0.2544  0.1262
    3TTP    C1816012   0.005   2.147   6.325  0.1845  0.4128  0.1261
    3TTP    C3216013   0.073   1.897   6.048  0.6308  0.5481 -1.0030
    3TTP    C3316014   0.202   1.821   6.087  0.6338  0.5442  0.9119
    3TTP    C3416015   0.333   1.893   6.080  0.4438 -0.1242  1.8478
    3TTP    C3516016   0.429   1.774   6.083  0.4624  0.8441  0.8598
    3TTP    C3616017   0.546   1.794   6.005 -0.9909  1.3938  0.3221
    3TTP    C3716018   0.663   1.712   6.040  0.6348 -0.6544 -2.0019
    3TTP    C3816019   0.750   1.704   5.920 -0.7170 -0.9711 -1.0470
    3TTP    C3916020   0.846   1.588   5.915 -0.2538  0.1983 -0.9857
    3TTP    C4016021   0.864   1.515   5.779 -0.2683  0.3467  0.7893
    3TTP    C4116022   0.760   1.458   5.685 -0.4900  1.9077 -0.4991
    3TTP    C4216023   0.826   1.449   5.540 -0.6299 -0.4923  0.8391
    4FIC     F116024  -0.636   3.134   7.399 -0.3297 -0.3726 -0.2931
    4FIC     F216025  -0.726   3.059   7.645  0.6506  0.3154  0.2890
    4FIC     O116026  -0.334   2.704   7.267 -0.9449 -0.7907 -0.3456
    4FIC     N516027  -0.640   2.646   7.904  1.6229  1.0068  1.0884
    4FIC     N616028  -0.386   2.326   7.750  0.9449  0.5414  0.9300
    4FIC    C1916029  -0.313   2.481   7.454 -0.2258 -0.2818  0.1918
    4FIC    C2016030  -0.385   2.592   7.478 -0.1097 -0.2034  0.1824
    4FIC    C2116031  -0.391   2.702   7.377 -0.5000 -0.4795 -0.1024
    4FIC    C2216032  -0.478   2.807   7.434 -0.2494 -0.3071 -0.0348
    4FIC    C2316033  -0.513   2.929   7.377 -0.4592 -0.4572 -0.2288
    4FIC    C2416034  -0.597   3.012   7.450 -0.1469 -0.2414 -0.1138
    4FIC    C2516035  -0.643   2.973   7.577  0.3578  0.1131  0.1863
    4FIC    C2616036  -0.608   2.852   7.634  0.5698  0.2644  0.3810
    4FIC    C2716037  -0.524   2.766   7.562  0.2601  0.0502  0.2687
    4FIC    C2816038  -0.469   2.633   7.594  0.3657  0.1279  0.4139
    4FIC    C2916039  -0.491   2.560   7.709  0.8183  0.4464  0.7071
    4FIC    C3016040  -0.573   2.608   7.816  1.2593  0.7533  0.9158
    4FIC    C3116041  -0.433   2.432   7.731  0.8852  0.4968  0.8280
    5FIC     F116042  -0.787   2.290   5.728 -0.3119 -0.5680  0.0732
    5FIC     F216043  -0.669   2.252   5.485 -0.1895  0.2241  0.0031
    5FIC     O116044  -0.374   2.177   6.060 -0.1347 -0.4733 -0.1141
    5FIC     N516045  -0.207   2.116   5.373  0.1130  1.4302 -0.2313
    5FIC     N616046   0.092   2.036   5.681  0.2267  1.3446 -0.3637
    5FIC    C1916047  -0.116   2.101   5.946  0.0453  0.3170 -0.2477
    5FIC    C2016048  -0.224   2.130   5.872 -0.0041  0.2623 -0.1979
    5FIC    C2116049  -0.354   2.169   5.938 -0.0963 -0.1535 -0.1307
    5FIC    C2216050  -0.450   2.195   5.829 -0.1304 -0.1047 -0.0883
    5FIC    C2316051  -0.583   2.233   5.841 -0.2134 -0.4055 -0.0219
    5FIC    C2416052  -0.654   2.252   5.723 -0.2311 -0.2861  0.0076
    5FIC    C2516053  -0.594   2.232   5.598 -0.1681  0.1222 -0.0286
    5FIC    C2616054  -0.461   2.193   5.586 -0.0854  0.4238 -0.0950
    5FIC    C2716055  -0.387   2.174   5.704 -0.0660  0.3088 -0.1256
    5FIC    C2816056  -0.246   2.134   5.725  0.0141  0.5506 -0.1945
    5FIC    C2916057  -0.153   2.106   5.628  0.0906  0.9628 -0.2451
    5FIC    C3016058  -0.183   2.112   5.488  0.1025  1.2183 -0.2375
    5FIC    C3116059  -0.019   2.068   5.658  0.1652  1.1705 -0.3101
    1BTD     S216060   2.604   2.248  10.347 -0.2130 -0.0040 -0.2348
    1BTD     N116061   2.683   2.252  10.185 -0.5363 -0.3067 -0.4025
    1BTD     N216062   2.523   2.407  10.327  0.2791  0.2716 -0.0942
    1BTD     N316063   2.499   2.738   9.994  0.6980  0.2862 -0.1109
    1BTD     N416064   2.697   2.546   9.820 -0.3067 -0.4265 -0.4911
    1BTD     C516065   2.688   2.408   9.996 -0.4043 -0.3606 -0.4444
    1BTD     C616066   2.647   2.366  10.128 -0.2744 -0.1928 -0.3481
    1BTD     C716067   2.557   2.453  10.207  0.1820  0.1310 -0.1752
    1BTD     C816068   2.512   2.578  10.151  0.4857  0.2706 -0.1075
    1BTD    C1516069   2.556   2.615  10.022  0.3439  0.0974 -0.2061
    1BTD    C1616070   2.642   2.531   9.946 -0.0959 -0.2145 -0.3727
    1BTD    C4316071   2.605   2.597   9.720 -0.4712 -0.4990 -0.6578
    1BTD    C4416072   2.640   2.607   9.572 -0.3625  1.1696 -0.7235
    1BTD    C4516073   2.745   2.713   9.561  0.0293  1.3620  0.2907
    1BTD    C4616074   2.767   2.791   9.425 -0.9633  1.6288  0.7405
    1BTD    C4716075   2.506   2.610   9.490  0.5368 -0.6951  0.8019
    1BTD    C4816076   2.401   2.713   9.513  0.8491 -0.1706  1.2198
    1BTD    C4916077   2.299   2.696   9.620  0.5793  0.5621 -0.5405
    1BTD    C5016078   2.190   2.794   9.612 -0.3727  0.6533  0.4910
    1BTD    C7516079   2.516   2.842   9.891 -0.0467  1.0240 -0.3493
    1BTD    C7616080   2.607   2.947   9.918  0.9292 -1.2255  0.3672
    1BTD    C7716081   2.741   2.925   9.986 -0.3472  1.9051 -0.5374
    1BTD    C7816082   2.784   2.846  10.113 -0.0721  0.3421  0.8864
    1BTD    C7916083   2.641   3.002   9.779  0.3104 -1.5540  1.7823
    1BTD    C8016084   2.710   3.147   9.769  0.7512  0.8110  0.2140
    1BTD    C8116085   2.755   3.166   9.626  0.2434 -0.4752  0.6694
    1BTD    C8216086   2.887   3.256   9.636 -0.3444  0.6260 -0.5634
    2TTP     S116087   2.873   2.194   9.879  0.2764 -0.2313 -0.3299
    2TTP     S516088   2.942   2.453   9.543  0.3550 -0.0880 -0.2031
    2TTP     C116089   3.053   2.309   9.528  0.3951 -0.0566 -0.2120
    2TTP     C216090   3.038   2.221   9.631  0.3731 -0.0991 -0.2513
    2TTP     C316091   2.939   2.264   9.725  0.3239 -0.1578 -0.2763
    2TTP     C416092   2.763   2.338   9.893  0.2364 -0.2627 -0.3209
    2TTP    C1716093   2.778   2.427   9.790  0.2583 -0.2203 -0.2817
    2TTP    C1816094   2.877   2.384   9.696  0.3075 -0.1615 -0.2568
    2TTP    C3216095   3.123   2.103   9.665  0.5935  0.5516 -1.1562
    2TTP    C3316096   3.096   1.957   9.617  0.4313 -0.4511 -1.0385
    2TTP    C3416097   2.948   1.911   9.639 -0.6984 -0.4728 -1.2164
    2TTP    C3516098   2.896   1.864   9.782 -0.5219 -0.4040  1.1059
    2TTP    C3616099   2.972   1.775   9.873 -0.0254  0.8919  0.7658
    2TTP    C3716100   3.113   1.835   9.915  0.3690  0.9636  0.6388
    2TTP    C3816101   3.173   1.724  10.001 -0.6098 -1.5692  1.2351
    2TTP    C3916102   3.305   1.774  10.062  1.8339  0.4094 -0.2701
    2TTP    C4016103   3.429   1.694  10.020 -0.6997 -0.8618  0.9017
    2TTP    C4116104   3.414   1.546   9.992 -0.9346 -0.7599  0.5366
    2TTP    C4216105   3.559   1.484  10.028  0.7939  0.1968  0.1529
    3TTP     S116106   2.315   2.724  10.346 -0.7064 -0.0525  0.2924
    3TTP     S516107   2.284   3.042  10.058  0.3431  0.3550  0.6196
    3TTP     C116108   2.180   3.084  10.202 -0.5606 -0.0697  0.1125
    3TTP     C216109   2.184   2.988  10.299 -0.9380 -0.2208 -0.0186
    3TTP     C316110   2.268   2.878  10.264 -0.5270 -0.0063  0.2773
    3TTP     C416111   2.418   2.682  10.202  0.1974  0.3723  0.7994
    3TTP    C1716112   2.414   2.778  10.105  0.5747  0.5232  0.9306
    3TTP    C1816113   2.330   2.888  10.140  0.1637  0.3087  0.6349
    3TTP    C3216114   2.121   2.990  10.442 -0.7092  0.9676 -1.8616
    3TTP    C3316115   2.196   3.009  10.577 -0.1053 -0.0019 -1.1768
    3TTP    C3416116   2.193   3.161  10.613 -1.8166  0.4146  1.4610
    3TTP    C3516117   2.294   3.248  10.536  0.3265  0.0816 -0.4411
    3TTP    C3616118   2.277   3.390  10.557  0.8090 -0.6099 -0.4072
    3TTP    C3716119   2.378   3.482  10.497  0.1981 -0.1910 -0.0861
    3TTP    C3816120   2.353   3.632  10.506 -0.8196 -0.4152  0.1805
    3TTP    C3916121   2.469   3.711  10.445 -1.6412  1.3765 -0.1167
    3TTP    C4016122   2.393   3.825  10.378  0.4088  0.1526  1.3407
    3TTP    C4116123   2.472   3.917  10.291  0.0097  0.4651 -0.4668
    3TTP    C4216124   2.429   3.918  10.140 -0.6120 -0.6974 -0.9527
    4FIC     F116125   3.053   2.528   8.724 -0.1164 -0.1369  0.2377
    4FIC     F216126   3.244   2.339   8.679 -0.0517 -0.0556  0.1664
    4FIC     O116127   2.974   2.471   9.256  0.2732 -0.0158  0.3099
    4FIC     N516128   3.460   2.025   8.995  0.3189  0.1476  0.1154
    4FIC     N616129   3.360   2.019   9.420  0.6103  0.2258  0.1864
    4FIC    C1916130   3.128   2.269   9.403  0.4735  0.1049  0.2675
    4FIC    C2016131   3.140   2.291   9.271  0.3729  0.0713  0.2520
    4FIC    C2116132   3.058   2.397   9.202  0.2739  0.0097  0.2759
    4FIC    C2216133   3.096   2.394   9.060  0.1787 -0.0142  0.2506
    4FIC    C2316134   3.046   2.474   8.957  0.0692 -0.0699  0.2594
    4FIC    C2416135   3.098   2.453   8.830 -0.0066 -0.0826  0.2306
    4FIC    C2516136   3.196   2.355   8.807  0.0269 -0.0407  0.1943
    4FIC    C2616137   3.246   2.275   8.910  0.1360  0.0150  0.1845
    4FIC    C2716138   3.195   2.295   9.039  0.2139  0.0286  0.2134
    4FIC    C2816139   3.226   2.228   9.167  0.3346  0.0829  0.2131
    4FIC    C2916140   3.317   2.126   9.187  0.3985  0.1339  0.1824
    4FIC    C3016141   3.395   2.071   9.081  0.3545  0.1413  0.1457
    4FIC    C3116142   3.340   2.068   9.315  0.5147  0.1842  0.1848
    5FIC     F116143   2.141   3.842   9.874 -0.7474  0.0207 -0.5512
    5FIC     F216144   1.977   3.913  10.079 -0.3211  0.0793 -0.2279
    5FIC     O116145   2.226   3.319   9.986 -0.6512  0.0094 -0.6752
    5FIC     N516146   1.801   3.642  10.454  0.3606  0.1556  0.1490
    5FIC     N616147   1.900   3.219  10.500  0.3499  0.1351 -0.0131
    5FIC    C1916148   2.099   3.201  10.222 -0.2096  0.0615 -0.4100
    5FIC    C2016149   2.084   3.330  10.186 -0.2505  0.0620 -0.3915
    5FIC    C2116150   2.153   3.383  10.063 -0.4821  0.0343 -0.5336
    5FIC    C2216151   2.115   3.525  10.053 -0.4675  0.0427 -0.4714
    5FIC    C2316152   2.154   3.617   9.955 -0.6396  0.0244 -0.5581
    5FIC    C2416153   2.106   3.746   9.967 -0.5855  0.0374 -0.4731
    5FIC    C2516154   2.022   3.783  10.073 -0.3656  0.0676 -0.3063
    5FIC    C2616155   1.982   3.692  10.170 -0.1931  0.0860 -0.2193
    5FIC    C2716156   2.030   3.560  10.160 -0.2447  0.0733 -0.3035
    5FIC    C2816157   2.007   3.441  10.246 -0.1026  0.0864 -0.2477
    5FIC    C2916158   1.930   3.436  10.360  0.1230  0.1154 -0.0920
    5FIC    C3016159   1.859   3.549  10.411  0.2528  0.1374  0.0403
    5FIC    C3116160   1.914   3.317  10.436  0.2465  0.1261 -0.0496
    1BTD     S216161   8.187   6.079   7.111  0.4864  0.6479  0.5678
    1BTD     N116162   8.093   6.197   7.209  0.1383  0.5844  0.3129
    1BTD     N216163   8.075   5.942   7.141  0.7167  0.4653  0.5975
    1BTD     N316164   7.677   5.874   7.380  0.5574 -0.0216  0.1979
    1BTD     N416165   7.698   6.188   7.464 -0.1554  0.1251 -0.1527
    1BTD     C516166   7.887   6.189   7.341 -0.0067  0.3428  0.0740
    1BTD     C616167   7.988   6.131   7.257  0.2081  0.4380  0.2657
    1BTD     C716168   7.978   5.988   7.219  0.5318  0.3712  0.4247
    1BTD     C816169   7.867   5.910   7.267  0.6250  0.2128  0.3846
    1BTD    C1516170   7.770   5.971   7.349  0.4072  0.1241  0.1948
    1BTD    C1616171   7.780   6.108   7.386  0.0950  0.1883  0.0415
    1BTD    C4316172   7.607   6.156   7.577  1.0388  0.7088 -0.3156
    1BTD    C4416173   7.670   6.082   7.691  0.7734 -0.6012  0.3117
    1BTD    C4516174   7.827   6.094   7.697 -0.8508  0.0125 -0.7381
    1BTD    C4616175   7.891   5.972   7.757  0.0814 -0.5112  0.8891
    1BTD    C4716176   7.593   6.089   7.820  0.8185  0.0957  0.6977
    1BTD    C4816177   7.542   6.219   7.904 -0.7690  0.8782 -0.2222
    1BTD    C4916178   7.597   6.351   7.892 -0.2744 -1.7497 -0.9174
    1BTD    C5016179   7.530   6.428   8.007 -0.2242 -0.5496  0.4172
    1BTD    C7516180   7.537   5.903   7.418  0.6645 -0.9861 -0.3471
    1BTD    C7616181   7.398   5.919   7.349 -0.4390 -0.6633  1.3707
    1BTD    C7716182   7.403   6.001   7.211  0.3187  0.1645 -0.3356
    1BTD    C7816183   7.456   5.889   7.109  0.8710  0.0369 -0.2910
    1BTD    C7916184   7.292   5.973   7.439  0.5230 -0.1709 -0.4200
    1BTD    C8016185   7.246   5.862   7.531  1.1429 -0.2726  0.8089
    1BTD    C8116186   7.103   5.873   7.609  0.0070 -0.3853  1.0688
    1BTD    C8216187   6.958   5.861   7.534 -0.8524 -0.2337  0.5554
    2TTP     S116188   7.922   6.485   7.354 -0.2746  0.2556  0.2065
    2TTP     S516189   7.550   6.523   7.568 -0.4625 -0.3386 -0.0119
    2TTP     C116190   7.608   6.689   7.522 -0.6523 -0.2399  0.1057
    2TTP     C216191   7.725   6.687   7.453 -0.6055 -0.0507  0.1801
    2TTP     C316192   7.775   6.554   7.434 -0.4178  0.0234  0.1469
    2TTP     C416193   7.864   6.319   7.400 -0.0849  0.1570  0.0888
    2TTP    C1716194   7.747   6.321   7.469 -0.1316 -0.0324  0.0144
    2TTP    C1816195   7.697   6.453   7.488 -0.3189 -0.1063  0.0477
    2TTP    C3216196   7.787   6.800   7.369 -0.4338  0.8884 -0.0955
    2TTP    C3316197   7.773   6.798   7.212  1.4513  0.6802 -0.4377
    2TTP    C3416198   7.820   6.928   7.150 -0.8335  0.2059  2.3565
    2TTP    C3516199   7.767   6.929   6.997 -0.2639 -2.1531  0.8608
    2TTP    C3616200   7.839   7.023   6.899 -0.6114 -1.2248 -0.9923
    2TTP    C3716201   7.775   7.047   6.766  0.3251  1.1506 -1.5334
    2TTP    C3816202   7.828   6.950   6.666 -0.0358 -0.8174  0.1244
    2TTP    C3916203   7.850   6.807   6.669 -0.0364  0.2649 -0.2202
    2TTP    C4016204   7.865   6.741   6.534  0.7434  0.6897  0.7763
    2TTP    C4116205   7.827   6.602   6.557 -0.9590  0.5718  1.5081
    2TTP    C4216206   7.729   6.556   6.454 -0.3289 -0.0455 -0.5361
    3TTP     S116207   7.930   5.626   7.235 -0.1890 -0.3936 -0.0967
    3TTP     S516208   7.560   5.536   7.435 -0.0813  0.4357  0.4842
    3TTP     C116209   7.656   5.383   7.420 -0.2480  0.3041  0.7446
    3TTP     C216210   7.776   5.402   7.357 -0.2910  0.0405  0.5805
    3TTP     C316211   7.796   5.538   7.319 -0.1940 -0.0675  0.2433
    3TTP     C416212   7.833   5.780   7.249 -0.0223 -0.2621 -0.3572
    3TTP    C1716213   7.713   5.761   7.312  0.0207  0.0016 -0.1930
    3TTP    C1816214   7.693   5.625   7.351 -0.0764  0.1094  0.1442
    3TTP    C3216215   7.907   5.311   7.348 -0.6183  0.5640  0.2755
    3TTP    C3316216   7.966   5.299   7.206 -0.1493  0.1126  0.0217
    3TTP    C3416217   7.878   5.292   7.074  1.2019  1.4837 -1.2619
    3TTP    C3516218   7.731   5.223   7.095  1.1831  0.3445 -0.5904
    3TTP    C3616219   7.600   5.294   7.063 -0.0780 -0.7153 -0.4716
    3TTP    C3716220   7.575   5.303   6.919 -0.0465 -0.2483  0.6140
    3TTP    C3816221   7.456   5.331   6.850  0.4666  1.0360  0.4551
    3TTP    C3916222   7.311   5.366   6.895 -0.5593 -0.8100 -0.0426
    3TTP    C4016223   7.183   5.333   6.811  0.1077 -0.0890 -0.7782
    3TTP    C4116224   7.191   5.346   6.663 -0.4449 -0.5585  0.0687
    3TTP    C4216225   7.074   5.345   6.571  0.2289  0.4344 -0.4013
    4FIC     F116226   6.890   6.910   7.847  0.3483  0.1756  0.0565
    4FIC     F216227   6.989   7.161   7.883  0.2301  0.2507 -0.1365
    4FIC     O116228   7.312   6.666   7.612  0.3922  0.2486  0.0591
    4FIC     N516229   7.432   7.347   7.767  0.0908  0.4107 -0.4123
    4FIC     N616230   7.742   7.106   7.576  0.1493  0.4526 -0.3716
    4FIC    C1916231   7.557   6.818   7.563  0.2948  0.3463 -0.1245
    4FIC    C2016232   7.447   6.870   7.620  0.2884  0.3248 -0.1177
    4FIC    C2116233   7.325   6.785   7.642  0.3405  0.2748 -0.0206
    4FIC    C2216234   7.224   6.872   7.707  0.3181  0.2627 -0.0392
    4FIC    C2316235   7.095   6.838   7.746  0.3504  0.2198  0.0285
    4FIC    C2416236   7.018   6.937   7.805  0.3192  0.2169 -0.0063
    4FIC    C2516237   7.070   7.066   7.823  0.2583  0.2555 -0.1060
    4FIC    C2616238   7.198   7.101   7.784  0.2261  0.2983 -0.1738
    4FIC    C2716239   7.278   7.002   7.724  0.2564  0.3022 -0.1398
    4FIC    C2816240   7.416   7.006   7.672  0.2358  0.3420 -0.1920
    4FIC    C2916241   7.500   7.115   7.672  0.1788  0.3861 -0.2906
    4FIC    C3016242   7.463   7.242   7.724  0.1309  0.3995 -0.3574
    4FIC    C3116243   7.633   7.109   7.619  0.1627  0.4225 -0.3346
    5FIC     F116244   7.044   5.068   7.876 -0.2373 -0.1067 -0.0107
    5FIC     F216245   7.201   4.851   7.927 -0.2927 -0.1674 -0.0989
    5FIC     O116246   7.366   5.352   7.546 -0.1864 -0.0788  0.0627
    5FIC     N516247   7.656   4.742   7.765 -0.3359 -0.2346 -0.1739
    5FIC     N616248   7.876   5.008   7.497 -0.2851 -0.2005 -0.0989
    5FIC    C1916249   7.630   5.246   7.478 -0.2213 -0.1266  0.0041
    5FIC    C2016250   7.543   5.183   7.559 -0.2320 -0.1315 -0.0107
    5FIC    C2116251   7.409   5.244   7.589 -0.2128 -0.1056  0.0213
    5FIC    C2216252   7.340   5.150   7.680 -0.2310 -0.1185 -0.0060
    5FIC    C2316253   7.213   5.163   7.735 -0.2229 -0.1034  0.0089
    5FIC    C2416254   7.169   5.061   7.818 -0.2441 -0.1202 -0.0229
    5FIC    C2516255   7.250   4.950   7.844 -0.2726 -0.1517 -0.0686
    5FIC    C2616256   7.377   4.936   7.789 -0.2807 -0.1669 -0.0837
    5FIC    C2716257   7.423   5.038   7.705 -0.2596 -0.1498 -0.0517
    5FIC    C2816258   7.551   5.054   7.631 -0.2612 -0.1591 -0.0566
    5FIC    C2916259   7.657   4.966   7.631 -0.2855 -0.1880 -0.0960
    5FIC    C3016260   7.656   4.843   7.705 -0.3133 -0.2134 -0.1388
    5FIC    C3116261   7.777   4.990   7.557 -0.2853 -0.1947 -0.0974
    1BTD     S216262   2.628   4.290   5.619 -0.5281 -0.0294 -0.0163
    1BTD     N116263   2.621   4.418   5.493 -0.0466 -0.0373 -0.0565
    1BTD     N216264   2.555   4.163   5.514 -0.8195  0.1591 -0.0415
    1BTD     N316265   2.392   4.139   5.074 -0.5441  0.5289 -0.1655
    1BTD     N416266   2.473   4.453   5.049  0.4083  0.2869 -0.1841
    1BTD     C516267   2.543   4.433   5.262  0.1795  0.1348 -0.1228
    1BTD     C616268   2.567   4.364   5.386 -0.1239  0.0942 -0.0852
    1BTD     C716269   2.530   4.221   5.397 -0.5565  0.2042 -0.0768
    1BTD     C816270   2.471   4.154   5.284 -0.6642  0.3494 -0.1065
    1BTD    C1516271   2.449   4.226   5.165 -0.3570  0.3845 -0.1429
    1BTD    C1616272   2.485   4.364   5.154  0.0599  0.2782 -0.1512
    1BTD    C4316273   2.424   4.436   4.913 -0.4647  0.4636  0.6730
    1BTD    C4416274   2.531   4.448   4.791  1.2385 -0.6889 -0.1025
    1BTD    C4516275   2.444   4.468   4.666 -0.7753 -0.5198 -0.5594
    1BTD    C4616276   2.498   4.564   4.566  0.3129 -0.5132 -0.8524
    1BTD    C4716277   2.657   4.371   4.787 -0.6207 -0.9300 -0.5186
    1BTD    C4816278   2.779   4.439   4.860  1.6257  0.9745  1.4070
    1BTD    C4916279   2.900   4.356   4.815  2.3386  0.7122  0.3921
    1BTD    C5016280   2.989   4.418   4.909 -0.0469 -0.2997 -0.6172
    1BTD    C7516281   2.293   4.169   4.974  1.9799  0.2197 -0.1586
    1BTD    C7616282   2.145   4.203   4.995  0.7524 -0.3381 -0.9978
    1BTD    C7716283   2.048   4.098   5.066 -1.2700  0.2075  0.4316
    1BTD    C7816284   2.079   4.052   5.206 -0.5819  1.2062  0.5327
    1BTD    C7916285   2.082   4.272   4.877  0.4037 -0.0856  0.1670
    1BTD    C8016286   1.953   4.372   4.904  0.8942  2.6869  0.8397
    1BTD    C8116287   1.969   4.484   5.001  0.7670 -1.0366 -0.0403
    1BTD    C8216288   1.840   4.566   4.994 -0.4392 -0.1120 -0.2684
    2TTP     S116289   2.651   4.716   5.285 -0.1640 -0.0706 -0.1007
    2TTP     S516290   2.462   4.800   4.908 -0.1791 -0.1620 -0.1137
    2TTP     C116291   2.532   4.955   4.974 -0.3818 -0.1005 -0.0405
    2TTP     C216292   2.595   4.938   5.094 -0.3891 -0.0687 -0.0321
    2TTP     C316293   2.590   4.802   5.139 -0.2348 -0.0918 -0.0833
    2TTP     C416294   2.581   4.561   5.219  0.0387 -0.1321 -0.1738
    2TTP    C1716295   2.519   4.578   5.099  0.0461 -0.1641 -0.1822
    2TTP    C1816296   2.524   4.714   5.055 -0.1082 -0.1409 -0.1311
    2TTP    C3216297   2.662   5.057   5.186 -0.3191 -0.6316  0.7576
    2TTP    C3316298   2.777   5.008   5.255  0.6089 -0.1251  0.8422
    2TTP    C3416299   2.878   5.124   5.273 -0.0009  1.4273 -0.1481
    2TTP    C3516300   3.008   5.072   5.353 -0.8990 -0.3526 -1.2248
    2TTP    C3616301   3.125   5.167   5.367 -0.9305 -0.7039  0.6934
    2TTP    C3716302   3.287   5.126   5.369  0.5832 -0.0210 -0.2133
    2TTP    C3816303   3.302   5.041   5.493  0.3746  0.1265  0.2002
    2TTP    C3916304   3.282   5.101   5.636  0.2693  0.6176  0.4272
    2TTP    C4016305   3.425   5.150   5.685  0.0335 -1.1867  0.0298
    2TTP    C4116306   3.426   5.239   5.824 -0.1826  0.4238  0.3137
    2TTP    C4216307   3.537   5.185   5.912 -0.5470  0.2312  0.9434
    3TTP     S116308   2.468   3.857   5.335  0.0862  0.2241  0.1383
    3TTP     S516309   2.338   3.791   4.930 -0.3154  0.0378  0.2964
    3TTP     C116310   2.363   3.629   5.010 -0.2129  0.0744  0.3393
    3TTP     C216311   2.404   3.640   5.140 -0.0829  0.1341  0.2929
    3TTP     C316312   2.418   3.776   5.181 -0.0595  0.1531  0.2220
    3TTP     C416313   2.444   4.018   5.255 -0.0162  0.1875  0.0955
    3TTP    C1716314   2.402   4.007   5.126 -0.1463  0.1278  0.1417
    3TTP    C1816315   2.388   3.871   5.085 -0.1697  0.1089  0.2128
    3TTP    C3216316   2.457   3.522   5.218 -0.5376  0.2931 -0.8802
    3TTP    C3316317   2.548   3.506   5.350 -0.9780  0.2020  0.8917
    3TTP    C3416318   2.494   3.435   5.479  1.7139 -0.5954 -0.2653
    3TTP    C3516319   2.569   3.390   5.599 -0.0015 -0.0336 -0.9630
    3TTP    C3616320   2.705   3.333   5.590 -0.8238  0.6750 -0.2614
    3TTP    C3716321   2.722   3.171   5.595 -0.6485 -1.2765  0.2733
    3TTP    C3816322   2.641   3.086   5.504  0.5756  0.9558  0.8076
    3TTP    C3916323   2.476   3.057   5.520 -1.3591 -0.1341  1.3048
    3TTP    C4016324   2.392   2.937   5.453 -0.9043 -0.6905  0.8031
    3TTP    C4116325   2.458   2.880   5.327 -1.5097  0.1231  1.0489
    3TTP    C4216326   2.464   2.732   5.322 -0.1245  1.5852 -0.4640
    4FIC     F116327   2.122   5.263   4.329 -0.1094 -0.2071  0.0329
    4FIC     F216328   2.291   5.477   4.335 -0.4460  0.0540  0.2270
    4FIC     O116329   2.293   4.985   4.760  0.2342 -0.2565 -0.1346
    4FIC     N516330   2.655   5.585   4.652 -0.6849  0.3942  0.3865
    4FIC     N616331   2.755   5.324   4.988 -0.3486  0.3031  0.2164
    4FIC    C1916332   2.515   5.090   4.919  0.0347 -0.0246 -0.0088
    4FIC    C2016333   2.465   5.151   4.811 -0.0386 -0.0223  0.0257
    4FIC    C2116334   2.351   5.091   4.734  0.0727 -0.1457 -0.0434
    4FIC    C2216335   2.322   5.183   4.622 -0.0477 -0.1087  0.0178
    4FIC    C2316336   2.225   5.170   4.524 -0.0054 -0.1899 -0.0134
    4FIC    C2416337   2.216   5.270   4.429 -0.1420 -0.1324  0.0587
    4FIC    C2516338   2.303   5.380   4.432 -0.3153  0.0021  0.1586
    4FIC    C2616339   2.401   5.394   4.530 -0.3585  0.0838  0.1903
    4FIC    C2716340   2.411   5.294   4.628 -0.2220  0.0274  0.1185
    4FIC    C2816341   2.502   5.278   4.743 -0.2232  0.0858  0.1273
    4FIC    C2916342   2.602   5.365   4.781 -0.3678  0.2153  0.2130
    4FIC    C3016343   2.631   5.486   4.710 -0.5417  0.3134  0.3082
    4FIC    C3116344   2.685   5.342   4.895 -0.3564  0.2629  0.2145
    5FIC     F116345   2.130   3.328   4.277 -0.2628 -0.0425 -0.0471
    5FIC     F216346   2.072   3.093   4.402  0.5932 -0.3584 -0.2253
    5FIC     O116347   2.321   3.619   4.692 -0.6343  0.0880  0.0328
    5FIC     N516348   2.123   2.963   4.876  1.5591 -0.7198 -0.4245
    5FIC     N616349   2.284   3.238   5.175  1.0962 -0.5542 -0.3262
    5FIC    C1916350   2.333   3.498   4.958  0.0516 -0.1676 -0.1090
    5FIC    C2016351   2.287   3.434   4.849  0.1115 -0.1880 -0.1222
    5FIC    C2116352   2.284   3.503   4.716 -0.2570 -0.0508 -0.0458
    5FIC    C2216353   2.229   3.406   4.619 -0.0812 -0.1140 -0.0833
    5FIC    C2316354   2.208   3.424   4.483 -0.3009 -0.0314 -0.0381
    5FIC    C2416355   2.154   3.317   4.412 -0.0657 -0.1167 -0.0876
    5FIC    C2516356   2.124   3.196   4.477  0.3752 -0.2795 -0.1796
    5FIC    C2616357   2.146   3.177   4.613  0.5964 -0.3626 -0.2249
    5FIC    C2716358   2.199   3.284   4.686  0.3639 -0.2782 -0.1758
    5FIC    C2816359   2.234   3.297   4.830  0.4999 -0.3303 -0.2034
    5FIC    C2916360   2.219   3.200   4.926  0.9077 -0.4814 -0.2881
    5FIC    C3016361   2.166   3.070   4.898  1.2644 -0.6118 -0.3628
    5FIC    C3116362   2.255   3.221   5.063  1.0091 -0.5205 -0.3086
    1BTD     S216363   6.779   2.582   4.450  0.5808 -0.0350  0.1675
    1BTD     N116364   6.875   2.449   4.524  0.3306 -0.2826  0.0486
    1BTD     N216365   6.629   2.485   4.434  0.3682  0.2909  0.1675
    1BTD     N316366   6.495   2.046   4.535 -0.5168  0.5079 -0.0477
    1BTD     N416367   6.798   2.002   4.645 -0.5634 -0.1987 -0.1944
    1BTD     C516368   6.831   2.216   4.586 -0.1357 -0.2303 -0.0765
    1BTD     C616369   6.794   2.344   4.533  0.1127 -0.1181  0.0166
    1BTD     C716370   6.656   2.364   4.482  0.1339  0.2029  0.0831
    1BTD     C816371   6.563   2.255   4.488 -0.0943  0.3957  0.0533
    1BTD    C1516372   6.603   2.132   4.541 -0.3334  0.2760 -0.0383
    1BTD    C1616373   6.736   2.112   4.590 -0.3538 -0.0333 -0.1026
    1BTD    C4316374   6.800   1.853   4.637  1.1181 -0.2261  1.1607
    1BTD    C4416375   6.885   1.778   4.531 -0.6760 -0.1326 -0.7261
    1BTD    C4516376   6.834   1.637   4.560 -0.9330 -0.2754  0.5089
    1BTD    C4616377   6.926   1.514   4.527  0.5804 -0.0388  0.4179
    1BTD    C4716378   6.886   1.817   4.385 -1.0346 -0.4387 -0.0199
    1BTD    C4816379   6.930   1.968   4.363 -0.0932  0.3068  0.2414
    1BTD    C4916380   6.946   2.028   4.221  0.8900  0.1204  0.4377
    1BTD    C5016381   6.813   2.062   4.159  0.9744  1.2438  0.0989
    1BTD    C7516382   6.510   1.913   4.580  0.3791  0.4535 -0.0164
    1BTD    C7616383   6.419   1.792   4.560 -0.5484  1.0556  0.2859
    1BTD    C7716384   6.426   1.654   4.641  0.2814 -0.2767 -0.4465
    1BTD    C7816385   6.430   1.674   4.794  0.1118  1.7130  0.4429
    1BTD    C7916386   6.415   1.738   4.420  0.6073  0.2662 -0.3096
    1BTD    C8016387   6.292   1.664   4.366  1.4820 -0.4423  0.4867
    1BTD    C8116388   6.288   1.564   4.246 -0.7032 -1.1177  0.5047
    1BTD    C8216389   6.412   1.477   4.239  0.3225 -0.1053  0.7000
    2TTP     S116390   7.103   2.242   4.719  0.2613 -0.1600  0.2880
    2TTP     S516391   7.025   1.874   4.928 -0.0153 -0.3092 -0.0741
    2TTP     C116392   7.164   1.959   5.009  0.0797 -0.5169 -0.0194
    2TTP     C216393   7.197   2.077   4.949  0.1707 -0.4830  0.0955
    2TTP     C316394   7.112   2.105   4.837  0.1686 -0.2919  0.1448
    2TTP     C416395   6.964   2.157   4.638  0.1663  0.0477  0.2332
    2TTP    C1716396   6.931   2.039   4.698  0.0752  0.0139  0.1184
    2TTP    C1816397   7.015   2.010   4.810  0.0774 -0.1773  0.0693
    2TTP    C3216398   7.300   2.189   4.981  0.9175 -0.8268 -0.5541
    2TTP    C3316399   7.432   2.157   4.908  0.0175  0.3574 -2.0540
    2TTP    C3416400   7.542   2.261   4.937 -0.6167  0.3684 -0.6370
    2TTP    C3516401   7.677   2.171   4.949 -0.3693  1.4153  0.9687
    2TTP    C3616402   7.807   2.248   4.973  0.0615  1.0872  0.5439
    2TTP    C3716403   7.811   2.311   5.113 -0.7637  0.4323  0.4657
    2TTP    C3816404   7.955   2.376   5.130 -0.7152  0.3010 -0.4075
    2TTP    C3916405   8.007   2.485   5.033  1.6195 -0.0889  0.0476
    2TTP    C4016406   8.154   2.533   5.044  1.4391 -1.2634 -1.1505
    2TTP    C4116407   8.197   2.555   5.186  1.8556  0.3943 -1.1721
    2TTP    C4216408   8.122   2.653   5.267 -0.4469 -1.5529  1.3536
    3TTP     S116409   6.302   2.336   4.364  0.0857  0.2643  0.4686
    3TTP     S516410   6.138   1.954   4.472  0.2186  0.4013  1.1623
    3TTP     C116411   6.008   2.051   4.390 -0.0351  0.4905  1.6624
    3TTP     C216412   6.051   2.175   4.352 -0.0912  0.4535  1.4776
    3TTP     C316413   6.188   2.197   4.386  0.0644  0.3533  0.9345
    3TTP     C416414   6.432   2.238   4.446  0.3395  0.1751 -0.0315
    3TTP    C1716415   6.389   2.114   4.484  0.3956  0.2121  0.1532
    3TTP    C1816416   6.252   2.092   4.450  0.2401  0.3123  0.6965
    3TTP    C3216417   5.971   2.275   4.262 -0.5197  0.5160 -0.1805
    3TTP    C3316418   5.916   2.385   4.354 -0.3800 -0.3478 -0.8642
    3TTP    C3416419   5.766   2.388   4.389 -0.2281  0.4449 -1.0776
    3TTP    C3516420   5.682   2.273   4.456  0.9173 -0.1899  0.7680
    3TTP    C3616421   5.532   2.308   4.431 -1.0115  0.7471  1.4264
    3TTP    C3716422   5.414   2.219   4.451 -1.1334  0.6864  0.7661
    3TTP    C3816423   5.422   2.154   4.588  0.1563  0.4102 -1.3375
    3TTP    C3916424   5.308   2.058   4.625 -0.5982 -0.1280  0.7242
    3TTP    C4016425   5.344   1.974   4.746  0.2596  0.3143 -1.2291
    3TTP    C4116426   5.245   1.868   4.805 -0.5327 -0.9758 -0.0095
    3TTP    C4216427   5.181   1.772   4.703  0.6155 -0.6791 -0.5773
    4FIC     F116428   6.856   1.672   5.702  0.3002  0.1382  0.0819
    4FIC     F216429   7.109   1.625   5.790  0.4226  0.7481  0.0645
    4FIC     O116430   6.956   1.891   5.217 -0.2792 -0.1350 -0.1627
    4FIC     N516431   7.544   1.714   5.571  0.1857  1.4302 -0.1347
    4FIC     N616432   7.571   1.895   5.174 -0.2917  1.0937 -0.3221
    4FIC    C1916433   7.233   1.925   5.129 -0.3681  0.3506 -0.2662
    4FIC    C2016434   7.198   1.871   5.247 -0.2271  0.3955 -0.2040
    4FIC    C2116435   7.053   1.857   5.286 -0.1900  0.1344 -0.1534
    4FIC    C2216436   7.051   1.796   5.420 -0.0284  0.2618 -0.0916
    4FIC    C2316437   6.939   1.764   5.496  0.0572  0.1072 -0.0311
    4FIC    C2416438   6.962   1.706   5.620  0.2088  0.2766  0.0206
    4FIC    C2516439   7.092   1.682   5.666  0.2714  0.5908  0.0116
    4FIC    C2616440   7.204   1.714   5.590  0.1867  0.7466 -0.0488
    4FIC    C2716441   7.183   1.773   5.464  0.0333  0.5789 -0.1016
    4FIC    C2816442   7.279   1.818   5.360 -0.0863  0.6736 -0.1709
    4FIC    C2916443   7.416   1.811   5.366 -0.0696  0.9634 -0.1992
    4FIC    C3016444   7.486   1.758   5.479  0.0707  1.2191 -0.1636
    4FIC    C3116445   7.500   1.857   5.261 -0.1919  1.0335 -0.2668
    5FIC     F116446   5.491   1.500   4.731 -0.0685 -0.3752 -0.2046
    5FIC     F216447   5.338   1.516   4.506 -0.3805 -0.1436  0.0223
    5FIC     O116448   5.875   1.866   4.620 -0.1971 -0.2932 -0.3802
    5FIC     N516449   5.393   1.800   4.104 -0.9210  0.2480  0.2233
    5FIC     N616450   5.723   2.082   4.063 -0.9586  0.2654  0.0404
    5FIC    C1916451   5.865   2.011   4.366 -0.5409 -0.0428 -0.2259
    5FIC    C2016452   5.775   1.918   4.403 -0.4964 -0.0724 -0.1905
    5FIC    C2116453   5.786   1.848   4.535 -0.3171 -0.2033 -0.2750
    5FIC    C2216454   5.673   1.755   4.543 -0.3124 -0.2032 -0.2083
    5FIC    C2316455   5.641   1.668   4.647 -0.1736 -0.3032 -0.2495
    5FIC    C2416456   5.528   1.589   4.632 -0.2003 -0.2805 -0.1698
    5FIC    C2516457   5.450   1.597   4.516 -0.3612 -0.1609 -0.0529
    5FIC    C2616458   5.480   1.684   4.412 -0.5002 -0.0607 -0.0113
    5FIC    C2716459   5.595   1.764   4.425 -0.4759 -0.0819 -0.0907
    5FIC    C2816460   5.654   1.865   4.335 -0.5952  0.0031 -0.0750
    5FIC    C2916461   5.607   1.902   4.211 -0.7650  0.1280  0.0269
    5FIC    C3016462   5.489   1.846   4.153 -0.8502  0.1935  0.1346
    5FIC    C3116463   5.671   2.001   4.130 -0.8705  0.2029  0.0336
    1BTD     S216464   2.324   0.444   9.628  0.1703 -0.1685  0.2259
    1BTD     N116465   2.260   0.612   9.618 -0.3869 -0.4113 -0.4475
    1BTD     N216466   2.457   0.472   9.510  0.5865  0.0127  0.7284
    1BTD     N316467   2.611   0.832   9.251  0.4285 -0.0564  0.5374
    1BTD     N416468   2.369   1.005   9.385 -0.7709 -0.5789 -0.9115
    1BTD     C516469   2.320   0.815   9.494 -0.5730 -0.4925 -0.6721
    1BTD     C616470   2.337   0.677   9.532 -0.2415 -0.3481 -0.2718
    1BTD     C716471   2.447   0.599   9.471  0.3033 -0.1107  0.3865
    1BTD     C816472   2.534   0.662   9.376  0.4896 -0.0297  0.6113
    1BTD    C1516473   2.514   0.798   9.343  0.1512 -0.1771  0.2022
    1BTD    C1616474   2.408   0.873   9.401 -0.3738 -0.4058 -0.4317
    1BTD    C4316475   2.394   1.113   9.277  0.2691 -0.3622 -1.1065
    1BTD    C4416476   2.314   1.167   9.165  0.9526 -0.6212 -0.2300
    1BTD    C4516477   2.154   1.173   9.174 -0.7858  0.8389  0.2802
    1BTD    C4616478   2.080   1.259   9.085 -0.0362  0.0168  1.4396
    1BTD    C4716479   2.395   1.304   9.137  0.0236 -0.1136 -0.8355
    1BTD    C4816480   2.393   1.440   9.211  0.4794  0.2280 -0.3483
    1BTD    C4916481   2.462   1.571   9.162  0.5558 -0.0675  0.3958
    1BTD    C5016482   2.612   1.575   9.123  0.3995  0.7498 -0.3267
    1BTD    C7516483   2.653   0.978   9.217  1.2373 -0.1403  0.2450
    1BTD    C7616484   2.741   1.019   9.101  0.0866  0.9113 -0.5031
    1BTD    C7716485   2.737   1.177   9.131 -0.5341  0.4623 -0.1930
    1BTD    C7816486   2.824   1.262   9.051 -0.1100 -0.5132 -0.3369
    1BTD    C7916487   2.651   1.001   8.969 -0.2329 -0.0593  0.5354
    1BTD    C8016488   2.671   0.870   8.908  0.1840  0.4956 -0.4148
    1BTD    C8116489   2.815   0.835   8.865  0.5986 -1.8795  1.0350
    1BTD    C8216490   2.832   0.692   8.838 -0.2647 -1.4457  0.3845
    2TTP     S116491   2.081   0.943   9.645  0.2459 -0.1673 -0.2368
    2TTP     S516492   2.185   1.320   9.466 -0.0501 -0.1420 -0.3550
    2TTP     C116493   2.035   1.343   9.567 -0.3007 -0.3152 -0.6823
    2TTP     C216494   1.994   1.228   9.628 -0.2240 -0.3332 -0.6649
    2TTP     C316495   2.080   1.118   9.598  0.0353 -0.2109 -0.3927
    2TTP     C416496   2.231   0.920   9.544  0.4964  0.0058  0.0908
    2TTP    C1716497   2.272   1.035   9.483  0.4198  0.0239  0.0737
    2TTP    C1816498   2.186   1.146   9.513  0.1604 -0.0985 -0.1988
    2TTP    C3216499   1.878   1.188   9.733  0.0007 -1.0844  0.5232
    2TTP    C3316500   1.764   1.094   9.679  0.3259 -0.2808  0.2416
    2TTP    C3416501   1.628   1.165   9.646  0.3628  0.0408 -2.2460
    2TTP    C3516502   1.563   1.211   9.794 -1.1196  1.9677  1.6887
    2TTP    C3616503   1.489   1.107   9.876  0.5195  0.7527 -0.9877
    2TTP    C3716504   1.360   1.068   9.807 -0.7114 -0.0431  0.4871
    2TTP    C3816505   1.297   0.954   9.889 -0.0572  0.3228  0.8481
    2TTP    C3916506   1.165   0.987   9.970 -0.8241 -0.5944  0.5340
    2TTP    C4016507   1.088   0.859   9.973  1.0584  0.3475 -0.5152
    2TTP    C4116508   1.109   0.775  10.083  0.4966  0.9618 -0.2880
    2TTP    C4216509   1.070   0.633  10.057 -0.2089 -0.4209 -0.0696
    3TTP     S116510   2.781   0.515   9.387 -0.3015  0.3744  0.4040
    3TTP     S516511   2.972   0.814   9.144 -0.3210 -0.2359 -0.3695
    3TTP     C116512   3.100   0.703   9.210 -0.3402 -0.2242 -0.3126
    3TTP     C216513   3.048   0.604   9.289 -0.3354 -0.0351 -0.0706
    3TTP     C316514   2.906   0.612   9.300 -0.3163  0.1074  0.0789
    3TTP     C416515   2.653   0.626   9.320 -0.2822  0.3626  0.3469
    3TTP    C1716516   2.704   0.725   9.241 -0.2871  0.1735  0.1048
    3TTP    C1816517   2.846   0.716   9.230 -0.3062  0.0310 -0.0446
    3TTP    C3216518   3.105   0.502   9.383 -0.1435 -0.7613 -0.5814
    3TTP    C3316519   3.204   0.534   9.501  0.5848 -0.7165 -0.9244
    3TTP    C3416520   3.354   0.564   9.471  0.8467  0.1151 -1.0460
    3TTP    C3516521   3.452   0.500   9.556 -0.2377 -0.2251  0.1444
    3TTP    C3616522   3.562   0.474   9.466 -1.2684  0.2445  1.1338
    3TTP    C3716523   3.697   0.463   9.538  0.6911 -0.7826  0.2070
    3TTP    C3816524   3.762   0.321   9.494  0.3368  0.7130 -0.5868
    3TTP    C3916525   3.884   0.314   9.405  1.3445  0.3533 -0.7371
    3TTP    C4016526   4.000   0.329   9.490 -0.0363  0.4584 -1.4556
    3TTP    C4116527   4.146   0.316   9.427  0.6266 -0.7741  0.6769
    3TTP    C4216528   4.173   0.406   9.306  0.3693 -0.0916 -0.1522
    4FIC     F116529   1.903   2.005   9.102 -0.3177  0.0685  0.1130
    4FIC     F216530   1.791   2.129   9.317 -0.8897 -0.0405 -0.1190
    4FIC     O116531   2.017   1.519   9.312  0.1079  0.3201  0.4675
    4FIC     N516532   1.711   1.961   9.776 -1.4086 -0.0178 -0.1998
    4FIC     N616533   1.823   1.556   9.896 -0.9608  0.2007  0.1237
    4FIC    C1916534   1.950   1.465   9.592 -0.2873  0.3053  0.3721
    4FIC    C2016535   1.926   1.583   9.531 -0.3721  0.2463  0.2918
    4FIC    C2116536   1.963   1.603   9.387 -0.1560  0.2584  0.3486
    4FIC    C2216537   1.923   1.740   9.352 -0.3195  0.1830  0.2348
    4FIC    C2316538   1.937   1.805   9.229 -0.2122  0.1655  0.2379
    4FIC    C2416539   1.892   1.936   9.221 -0.4091  0.0898  0.1174
    4FIC    C2516540   1.834   1.999   9.331 -0.7036  0.0338 -0.0024
    4FIC    C2616541   1.820   1.936   9.454 -0.8122  0.0508 -0.0057
    4FIC    C2716542   1.865   1.803   9.465 -0.6162  0.1271  0.1152
    4FIC    C2816543   1.865   1.709   9.579 -0.6602  0.1638  0.1454
    4FIC    C2916544   1.816   1.733   9.706 -0.9187  0.1281  0.0551
    4FIC    C3016545   1.759   1.858   9.744 -1.1872  0.0480 -0.0849
    4FIC    C3116546   1.820   1.636   9.810 -0.9403  0.1683  0.0932
    5FIC     F116547   3.637   1.184   8.817 -0.0885  0.0366 -0.4568
    5FIC     F216548   3.812   0.977   8.812  0.3096  0.3434  0.3905
    5FIC     O116549   3.219   0.958   9.077 -0.1425 -0.0776 -0.6430
    5FIC     N516550   3.767   0.517   8.990  0.8436  0.7033  1.4768
    5FIC     N616551   3.406   0.382   9.193  0.7212  0.5522  1.1604
    5FIC    C1916552   3.238   0.679   9.164  0.2187  0.1751  0.1006
    5FIC    C2016553   3.337   0.745   9.099  0.2168  0.1918  0.1144
    5FIC    C2116554   3.319   0.888   9.057  0.0251  0.0564 -0.2816
    5FIC    C2216555   3.444   0.927   8.989  0.0759  0.1145 -0.1547
    5FIC    C2316556   3.475   1.051   8.933 -0.0526  0.0315 -0.4129
    5FIC    C2416557   3.599   1.065   8.874  0.0300  0.1115 -0.2205
    5FIC    C2516558   3.690   0.958   8.872  0.2353  0.2696  0.2163
    5FIC    C2616559   3.660   0.834   8.927  0.3644  0.3531  0.4756
    5FIC    C2716560   3.534   0.818   8.988  0.2834  0.2741  0.2868
    5FIC    C2816561   3.472   0.702   9.055  0.3781  0.3279  0.4697
    5FIC    C2916562   3.528   0.577   9.073  0.5773  0.4756  0.8879
    5FIC    C3016563   3.660   0.545   9.027  0.7229  0.6003  1.2102
    5FIC    C3116564   3.460   0.471   9.139  0.6552  0.5169  1.0352
    1BTD     S216565   0.186  10.906   5.193 -0.1091 -0.1090  0.2705
    1BTD     N116566   0.321  10.942   5.080 -0.4006  0.0887 -0.0213
    1BTD     N216567   0.192  11.066   5.275  0.1727 -0.2921  0.6135
    1BTD     N316568   0.449  11.458   5.238  0.2207 -0.3073  0.7848
    1BTD     N416569   0.608  11.305   4.999 -0.4857  0.1614  0.0025
    1BTD     C516570   0.469  11.133   5.041 -0.4365  0.1211  0.0006
    1BTD     C616571   0.362  11.065   5.108 -0.2791  0.0122  0.1432
    1BTD     C716572   0.289  11.135   5.217  0.0418 -0.2010  0.4985
    1BTD     C816573   0.328  11.269   5.253  0.1893 -0.2944  0.6934
    1BTD    C1516574   0.433  11.331   5.184  0.0262 -0.1818  0.5432
    1BTD    C1616575   0.503  11.264   5.079 -0.2830  0.0233  0.2008
    1BTD    C4316576   0.713  11.407   5.036  1.1141  0.8346 -0.0357
    1BTD    C4416577   0.751  11.513   4.931 -1.7155 -0.5539 -0.1515
    1BTD    C4516578   0.898  11.573   4.969 -0.7765  0.5547  0.3579
    1BTD    C4616579   0.904  11.650   5.098  0.1807 -0.4222  1.0357
    1BTD    C4716580   0.657  11.581   4.843 -0.6968 -0.3009  0.1022
    1BTD    C4816581   0.720  11.674   4.724 -0.2604  0.6958 -0.1297
    1BTD    C4916582   0.615  11.758   4.673  0.9047 -1.1566 -0.0774
    1BTD    C5016583   0.636  11.899   4.688  0.3142  0.2402  1.1721
    1BTD    C7516584   0.503  11.564   5.180 -0.1236 -0.7619  0.4817
    1BTD    C7616585   0.456  11.703   5.220 -0.0537 -1.0652  0.6716
    1BTD    C7716586   0.573  11.809   5.175 -0.5604 -0.4606  1.2033
    1BTD    C7816587   0.529  11.908   5.071 -0.2606 -0.1281  1.4598
    1BTD    C7916588   0.314  11.754   5.224  0.5158 -0.4532  0.6750
    1BTD    C8016589   0.259  11.882   5.306  0.0024  0.3748 -0.8394
    1BTD    C8116590   0.309  11.846   5.463  1.0962 -0.2278  0.8016
    1BTD    C8216591   0.183  11.806   5.540 -0.3651  0.0371  0.5972
    2TTP     S116592   0.590  10.962   4.806 -0.1708 -0.0411 -0.4206
    2TTP     S516593   0.800  11.315   4.678  0.5014 -0.4807 -0.5385
    2TTP     C116594   0.827  11.183   4.555  0.0588 -0.5031 -0.6139
    2TTP     C216595   0.763  11.067   4.587 -0.1749 -0.3684 -0.5822
    2TTP     C316596   0.691  11.077   4.711 -0.0128 -0.2432 -0.4967
    2TTP     C416597   0.563  11.093   4.929  0.2718 -0.0186 -0.3452
    2TTP    C1716598   0.627  11.210   4.897  0.5055 -0.1534 -0.3771
    2TTP    C1816599   0.698  11.200   4.774  0.3434 -0.2789 -0.4624
    2TTP    C3216600   0.803  10.922   4.534  0.3160 -0.5209 -0.0952
    2TTP    C3316601   0.759  10.877   4.393 -0.8838  0.3456 -2.2306
    2TTP    C3416602   0.808  10.732   4.397 -0.9875 -0.8463  0.3302
    2TTP    C3516603   0.695  10.634   4.430  0.4145 -1.0273 -0.3324
    2TTP    C3616604   0.739  10.540   4.540  0.6842  0.5584  0.9290
    2TTP    C3716605   0.634  10.444   4.593 -0.6506  0.2599  0.9586
    2TTP    C3816606   0.693  10.359   4.699 -0.6047  0.2414  0.7448
    2TTP    C3916607   0.823  10.280   4.683 -0.3228 -0.3721  1.1718
    2TTP    C4016608   0.828  10.150   4.615 -0.4774  1.5449 -1.4232
    2TTP    C4116609   0.716  10.047   4.661  1.0176 -0.3965 -0.9408
    2TTP    C4216610   0.736   9.922   4.589  0.6687  1.2631 -1.7265
    3TTP     S116611   0.241  11.280   5.521 -0.4569  0.2835 -0.3489
    3TTP     S516612   0.549  11.572   5.587  0.0361 -0.3754  0.2931
    3TTP     C116613   0.505  11.498   5.747 -0.2991 -0.4398  0.1710
    3TTP     C216614   0.407  11.403   5.736 -0.4710 -0.2401 -0.0343
    3TTP     C316615   0.363  11.386   5.600 -0.3443 -0.0291 -0.1028
    3TTP     C416616   0.285  11.355   5.361 -0.1217  0.3480 -0.2266
    3TTP    C1716617   0.383  11.449   5.372  0.0503  0.1483 -0.0214
    3TTP    C1816618   0.427  11.466   5.507 -0.0765 -0.0628  0.0471
    3TTP    C3216619   0.313  11.341   5.835  0.2953  0.6893 -0.9095
    3TTP    C3316620   0.345  11.341   5.986  0.0039 -0.0538 -1.8881
    3TTP    C3416621   0.298  11.200   6.029 -0.0034 -0.8751 -0.6453
    3TTP    C3516622   0.276  11.157   6.167  0.4055  0.1939  0.2780
    3TTP    C3616623   0.406  11.122   6.238 -1.1747  0.2461  0.2066
    3TTP    C3716624   0.401  11.009   6.346 -1.7460 -0.2723 -0.7883
    3TTP    C3816625   0.302  10.995   6.460  0.7641  0.2756  0.3851
    3TTP    C3916626   0.314  10.864   6.537  1.1711  0.2377 -0.3322
    3TTP    C4016627   0.312  10.742   6.441 -0.1257  0.3906 -2.0586
    3TTP    C4116628   0.451  10.672   6.463  0.3806  0.0530 -0.9405
    3TTP    C4216629   0.465  10.579   6.339  0.2867  1.5351  1.5812
    4FIC     F116630   0.920  11.846   4.086 -0.6068 -0.4536 -0.1916
    4FIC     F216631   1.138  11.728   3.973 -0.4188 -0.1520 -0.1460
    4FIC     O116632   0.762  11.460   4.432 -0.0294 -0.5949 -0.0840
    4FIC     N516633   1.339  11.283   4.058  0.2630  0.1810 -0.0042
    4FIC     N616634   1.172  11.006   4.351  0.6764  0.0098  0.0707
    4FIC    C1916635   0.915  11.211   4.448  0.3554 -0.3570 -0.0025
    4FIC    C2016636   0.946  11.312   4.365  0.2028 -0.3332 -0.0314
    4FIC    C2116637   0.863  11.438   4.363  0.0095 -0.4613 -0.0725
    4FIC    C2216638   0.924  11.527   4.262 -0.1230 -0.3966 -0.0962
    4FIC    C2316639   0.882  11.654   4.225 -0.3179 -0.4717 -0.1361
    4FIC    C2416640   0.956  11.719   4.128 -0.4139 -0.3865 -0.1521
    4FIC    C2516641   1.068  11.658   4.070 -0.3167 -0.2312 -0.1287
    4FIC    C2616642   1.110  11.531   4.106 -0.1222 -0.1555 -0.0888
    4FIC    C2716643   1.037  11.464   4.205 -0.0227 -0.2398 -0.0720
    4FIC    C2816644   1.055  11.329   4.266  0.1813 -0.1947 -0.0312
    4FIC    C2916645   1.153  11.239   4.236  0.3233 -0.0518  0.0005
    4FIC    C3016646   1.255  11.264   4.138  0.2896  0.0757 -0.0023
    4FIC    C3116647   1.163  11.111   4.300  0.5167 -0.0188  0.0387
    5FIC     F116648   0.825  12.215   5.999  0.2629  0.0124 -0.0122
    5FIC     F216649   0.941  12.080   6.205 -0.0153 -0.0553  0.1023
    5FIC     O116650   0.546  11.816   5.761 -0.0028  0.2416 -0.0864
    5FIC     N516651   0.911  11.603   6.331 -0.6045  0.0107  0.2139
    5FIC     N616652   0.669  11.318   6.104 -0.7560  0.2035  0.1329
    5FIC    C1916653   0.559  11.546   5.874 -0.3629  0.2583 -0.0035
    5FIC    C2016654   0.624  11.652   5.925 -0.2852  0.2033  0.0107
    5FIC    C2116655   0.613  11.787   5.862 -0.0996  0.1984 -0.0342
    5FIC    C2216656   0.696  11.878   5.943 -0.0564  0.1326 -0.0045
    5FIC    C2316657   0.717  12.015   5.923  0.1010  0.1055 -0.0284
    5FIC    C2416658   0.800  12.080   6.013  0.1111  0.0422  0.0088
    5FIC    C2516659   0.860  12.011   6.119 -0.0324  0.0074  0.0677
    5FIC    C2616660   0.840  11.875   6.139 -0.1898  0.0341  0.0917
    5FIC    C2716661   0.756  11.807   6.049 -0.2025  0.0982  0.0550
    5FIC    C2816662   0.714  11.665   6.043 -0.3488  0.1403  0.0668
    5FIC    C2916663   0.752  11.564   6.129 -0.5120  0.1239  0.1192
    5FIC    C3016664   0.839  11.586   6.240 -0.5622  0.0617  0.1711
    5FIC    C3116665   0.706  11.430   6.115 -0.6453  0.1678  0.1262
    1BTD     S216666   3.771   8.700   1.930  0.1158 -0.7746  0.1302
    1BTD     N116667   3.725   8.566   2.040  0.2978 -0.5674  0.4627
    1BTD     N216668   3.686   8.827   2.025 -0.1249 -0.6642 -0.2267
    1BTD     N316669   3.429   8.842   2.418 -0.2866 -0.0670 -0.3539
    1BTD     N416670   3.477   8.521   2.436  0.2341  0.0527  0.4957
    1BTD     C516671   3.595   8.546   2.247  0.2582 -0.2453  0.4697
    1BTD     C616672   3.652   8.620   2.137  0.1761 -0.4342  0.2990
    1BTD     C716673   3.630   8.766   2.129 -0.0606 -0.4885 -0.0870
    1BTD     C816674   3.552   8.831   2.230 -0.2031 -0.3510 -0.2829
    1BTD    C1516675   3.498   8.755   2.336 -0.1154 -0.1679 -0.1046
    1BTD    C1616676   3.519   8.614   2.344  0.1126 -0.1156  0.2673
    1BTD    C4316677   3.364   8.490   2.532  0.6676 -0.7870  0.6022
    1BTD    C4416678   3.239   8.416   2.506 -0.4080  1.1343  0.6150
    1BTD    C4516679   3.232   8.281   2.597  0.4453  0.8587  0.6228
    1BTD    C4616680   3.099   8.210   2.594  0.3463 -0.6291  1.0486
    1BTD    C4716681   3.171   8.430   2.352 -0.0311  0.5769 -1.5109
    1BTD    C4816682   3.130   8.567   2.313  0.1955 -0.9601  0.2942
    1BTD    C4916683   3.014   8.555   2.207  0.0838 -0.0995 -1.1950
    1BTD    C5016684   2.938   8.686   2.227 -0.3312  0.7347  0.1733
    1BTD    C7516685   3.441   8.810   2.562  0.7535 -1.2993 -0.7301
    1BTD    C7616686   3.534   8.884   2.658  0.3651 -0.4716  0.9007
    1BTD    C7716687   3.674   8.852   2.622  0.0828  1.4466  0.2683
    1BTD    C7816688   3.767   8.863   2.501 -0.6187  0.0817  1.0692
    1BTD    C7916689   3.526   8.848   2.801  0.3155  0.0986 -0.7816
    1BTD    C8016690   3.531   8.709   2.866  0.5650 -0.3246 -1.3804
    1BTD    C8116691   3.395   8.650   2.864  1.1128 -0.4685 -0.5433
    1BTD    C8216692   3.367   8.532   2.950  0.4793 -0.6721 -0.0032
    2TTP     S116693   3.731   8.290   2.262  0.1572 -0.1128 -0.0784
    2TTP     S516694   3.596   8.261   2.669  0.0169  0.1025 -0.1090
    2TTP     C116695   3.735   8.145   2.646 -0.0553  0.0002 -0.0334
    2TTP     C216696   3.784   8.147   2.519 -0.0163 -0.0722 -0.0196
    2TTP     C316697   3.715   8.240   2.435  0.0722 -0.0498 -0.0680
    2TTP     C416698   3.593   8.406   2.286  0.2294 -0.0105 -0.1540
    2TTP    C1716699   3.543   8.404   2.413  0.1904  0.0620 -0.1677
    2TTP    C1816700   3.612   8.310   2.496  0.1020  0.0393 -0.1192
    2TTP    C3216701   3.908   8.095   2.466 -0.2580  0.1358  0.4942
    2TTP    C3316702   4.029   8.182   2.499 -0.4468 -0.9992 -0.4088
    2TTP    C3416703   4.171   8.132   2.479 -0.2875  0.9435  0.5984
    2TTP    C3516704   4.276   8.233   2.545  0.6600  0.5223  0.3108
    2TTP    C3616705   4.425   8.230   2.502  0.7148 -0.2097  0.3540
    2TTP    C3716706   4.485   8.101   2.536  0.0187  0.1870 -0.2256
    2TTP    C3816707   4.489   7.994   2.432 -0.3150  0.6394  0.1881
    2TTP    C3916708   4.560   7.842   2.461 -0.5620 -0.0480 -0.9559
    2TTP    C4016709   4.608   7.760   2.352  0.5619 -1.0368  0.6327
    2TTP    C4116710   4.732   7.701   2.406 -0.6055  0.8404 -1.4399
    2TTP    C4216711   4.771   7.594   2.312 -0.2182 -0.6449  0.1784
    3TTP     S116712   3.525   9.131   2.181  0.0678  0.1336  0.2316
    3TTP     S516713   3.289   9.165   2.539 -0.7065 -0.2718 -0.2356
    3TTP     C116714   3.297   9.328   2.459 -0.6542 -0.2127 -0.1107
    3TTP     C216715   3.371   9.327   2.344 -0.4122 -0.0839  0.0409
    3TTP     C316716   3.423   9.197   2.314 -0.2590 -0.0277  0.0639
    3TTP     C416717   3.518   8.968   2.261  0.0156  0.0746  0.1068
    3TTP    C1716718   3.444   8.968   2.376 -0.2265 -0.0542 -0.0450
    3TTP    C1816719   3.391   9.098   2.405 -0.3796 -0.1106 -0.0679
    3TTP    C3216720   3.373   9.445   2.258 -1.0173  0.5621 -1.1819
    3TTP    C3316721   3.278   9.448   2.147  0.6152 -0.7479  1.0965
    3TTP    C3416722   3.131   9.438   2.194  0.6389  0.1879 -1.0412
    3TTP    C3516723   3.041   9.347   2.103  1.2691  1.5770 -0.6514
    3TTP    C3616724   2.886   9.324   2.150 -0.5171 -0.6949  0.2669
    3TTP    C3716725   2.847   9.315   2.300 -0.0901  0.6062 -0.0898
    3TTP    C3816726   2.742   9.210   2.332  0.5920  0.4794  0.3059
    3TTP    C3916727   2.804   9.161   2.457 -0.1471  1.5698  0.3251
    3TTP    C4016728   2.731   9.046   2.531  0.0280  0.2929  0.1506
    3TTP    C4116729   2.761   8.900   2.458  1.0652 -1.8114 -0.1079
    3TTP    C4216730   2.680   8.807   2.534 -0.4557 -0.3564 -0.6139
    4FIC     F116731   3.306   7.732   3.190 -0.1487  0.3315 -0.1030
    4FIC     F216732   3.535   7.692   3.331 -0.1262 -0.3359 -0.3184
    4FIC     O116733   3.496   8.001   2.760  0.1096  0.4723  0.0992
    4FIC     N516734   4.000   7.827   3.229  0.0903 -1.1951 -0.4840
    4FIC     N616735   4.103   8.045   2.865  0.2877 -0.9506 -0.2826
    4FIC    C1916736   3.783   8.059   2.743  0.2227 -0.1153 -0.0349
    4FIC    C2016737   3.726   7.992   2.845  0.1569 -0.1246 -0.0772
    4FIC    C2116738   3.578   7.966   2.847  0.1015  0.1882 -0.0030
    4FIC    C2216739   3.550   7.893   2.972  0.0366  0.0898 -0.0755
    4FIC    C2316740   3.426   7.847   3.017 -0.0288  0.2942 -0.0445
    4FIC    C2416741   3.424   7.780   3.139 -0.0826  0.1440 -0.1279
    4FIC    C2516742   3.543   7.760   3.211 -0.0709 -0.1998 -0.2388
    4FIC    C2616743   3.666   7.805   3.167 -0.0058 -0.4052 -0.2705
    4FIC    C2716744   3.670   7.873   3.044  0.0494 -0.2581 -0.1871
    4FIC    C2816745   3.783   7.934   2.969  0.1239 -0.4033 -0.1926
    4FIC    C2916746   3.915   7.935   3.008  0.1558 -0.7330 -0.2866
    4FIC    C3016747   3.961   7.876   3.129  0.1196 -0.9860 -0.3948
    4FIC    C3116748   4.017   7.996   2.929  0.2280 -0.8508 -0.2839
    5FIC     F116749   2.890   9.552   3.136  0.0818 -0.0997  0.5903
    5FIC     F216750   3.017   9.793   3.123 -0.9763  0.4411  0.0252
    5FIC     O116751   3.083   9.309   2.693  0.4142  0.0792  0.6363
    5FIC     N516752   3.337   9.965   2.787 -2.2609  1.3459 -0.7545
    5FIC     N616753   3.462   9.726   2.443 -1.7880  1.3766 -0.6046
    5FIC    C1916754   3.273   9.452   2.523 -0.4787  0.6596  0.1127
    5FIC    C2016755   3.220   9.504   2.635 -0.5210  0.5937  0.1233
    5FIC    C2116756   3.123   9.424   2.717 -0.0437  0.2899  0.4006
    5FIC    C2216757   3.084   9.510   2.831 -0.2281  0.2940  0.3362
    5FIC    C2316758   2.996   9.479   2.934  0.0717  0.0629  0.5256
    5FIC    C2416759   2.975   9.576   3.031 -0.1906  0.1190  0.4149
    5FIC    C2516760   3.041   9.700   3.024 -0.7358  0.3971  0.1238
    5FIC    C2616761   3.129   9.731   2.921 -1.0374  0.6287 -0.0665
    5FIC    C2716762   3.151   9.634   2.822 -0.7789  0.5763  0.0416
    5FIC    C2816763   3.237   9.636   2.701 -0.9805  0.7715 -0.1009
    5FIC    C2916764   3.317   9.739   2.659 -1.4948  1.0622 -0.3860
    5FIC    C3016765   3.328   9.863   2.729 -1.9142  1.2169 -0.5876
    5FIC    C3116766   3.397   9.731   2.541 -1.6530  1.2336 -0.5046
    1BTD     S216767   8.559   3.432   9.843 -0.0875 -0.0837  0.1461
    1BTD     N116768   8.458   3.303   9.917 -0.3633  0.3632  0.5612
    1BTD     N216769   8.422   3.508   9.754  0.1085 -0.1889 -0.2513
    1BTD     N316770   7.961   3.428   9.708  0.0101  0.4038 -0.3104
    1BTD     N416771   8.007   3.176   9.909 -0.5713  1.0840  0.6907
    1BTD     C516772   8.222   3.240   9.911 -0.4649  0.7313  0.6168
    1BTD     C616773   8.334   3.322   9.875 -0.2985  0.4086  0.3915
    1BTD     C716774   8.314   3.436   9.783 -0.0343  0.0997 -0.0634
    1BTD     C816775   8.182   3.463   9.733  0.0503  0.1287 -0.2699
    1BTD    C1516776   8.075   3.380   9.771 -0.1196  0.4500 -0.0369
    1BTD    C1616777   8.095   3.270   9.859 -0.3743  0.7477  0.4013
    1BTD    C4316778   7.871   3.202   9.951 -0.5097 -0.1378  0.1593
    1BTD    C4416779   7.748   3.100   9.975 -0.8916  0.5753  0.2323
    1BTD    C4516780   7.635   3.157  10.075 -0.4731 -0.3691  0.8371
    1BTD    C4616781   7.515   3.083  10.102 -0.7083 -0.8730  0.7157
    1BTD    C4716782   7.691   3.056   9.835 -0.2203 -1.1680  0.1473
    1BTD    C4816783   7.763   2.949   9.758 -0.7603 -0.2464 -1.0369
    1BTD    C4916784   7.689   2.819   9.736 -0.7741 -0.1860 -0.4348
    1BTD    C5016785   7.683   2.773   9.593 -0.4776 -1.2614 -1.1063
    1BTD    C7516786   7.861   3.340   9.651 -1.1027 -0.4054 -0.6314
    1BTD    C7616787   7.715   3.390   9.621  1.1844  1.3500 -0.8809
    1BTD    C7716788   7.614   3.456   9.731 -0.4592 -0.8530  0.0206
    1BTD    C7816789   7.483   3.502   9.672 -0.4829  0.3839 -0.6525
    1BTD    C7916790   7.664   3.303   9.500 -0.2021 -0.1968 -0.6652
    1BTD    C8016791   7.671   3.380   9.369 -0.1870 -0.2972  0.2201
    1BTD    C8116792   7.607   3.530   9.361 -1.1435  0.9585 -0.1853
    1BTD    C8216793   7.562   3.585   9.223 -0.5786 -0.8285  1.4967
    2TTP     S116794   8.318   2.987  10.031  0.0654 -0.4312 -0.4121
    2TTP     S516795   7.919   2.826  10.024 -0.2340  0.2821 -0.0255
    2TTP     C116796   8.035   2.693  10.071 -0.4057  0.0367 -0.2889
    2TTP     C216797   8.164   2.735  10.076 -0.3235 -0.1981 -0.4237
    2TTP     C316798   8.178   2.874  10.042 -0.1218 -0.1925 -0.3240
    2TTP     C416799   8.202   3.120   9.984  0.2372 -0.1857 -0.1490
    2TTP    C1716800   8.073   3.078   9.979  0.1549  0.0490 -0.0140
    2TTP    C1816801   8.059   2.939  10.012 -0.0470  0.0435 -0.1137
    2TTP    C3216802   8.297   2.663  10.117 -0.5071  0.1766 -1.5925
    2TTP    C3316803   8.344   2.565  10.012  0.5465 -1.1732  0.2232
    2TTP    C3416804   8.471   2.475  10.025  0.9760  0.8694  0.9170
    2TTP    C3516805   8.443   2.347  10.098  0.1679  0.3947 -0.2748
    2TTP    C3616806   8.337   2.250  10.044  0.3570 -0.5747 -0.7073
    2TTP    C3716807   8.337   2.209   9.893  0.6255  0.8275 -1.5179
    2TTP    C3816808   8.256   2.073   9.879  0.8631 -0.4318  0.3891
    2TTP    C3916809   8.110   2.103   9.845  0.3197 -0.4831 -0.4249
    2TTP    C4016810   8.085   2.170   9.716 -0.5099  1.2748  0.5247
    2TTP    C4116811   7.943   2.156   9.686 -1.6179 -0.4556  0.8164
    2TTP    C4216812   7.880   2.251   9.586  0.3013 -1.1721  0.0947
    3TTP     S116813   8.171   3.744   9.614 -0.3993  0.0896  0.1628
    3TTP     S516814   7.744   3.701   9.599 -0.3943  0.1180 -0.0625
    3TTP     C116815   7.786   3.875   9.563 -0.3452  0.0412 -0.3805
    3TTP     C216816   7.920   3.898   9.565 -0.3438  0.0280 -0.3300
    3TTP     C316817   7.995   3.780   9.596 -0.3816  0.0778 -0.0377
    3TTP     C416818   8.129   3.571   9.650 -0.4482  0.1662  0.4809
    3TTP    C1716819   7.995   3.547   9.647 -0.4496  0.1795  0.4304
    3TTP    C1816820   7.920   3.665   9.617 -0.4121  0.1296  0.1383
    3TTP    C3216821   7.988   4.040   9.564 -2.0087  1.0168 -0.5993
    3TTP    C3316822   7.987   4.100   9.420 -0.0233 -0.7921  1.4723
    3TTP    C3416823   8.046   4.247   9.440  0.6340  0.1580 -0.1024
    3TTP    C3516824   8.051   4.320   9.308 -0.0389  0.8637 -0.0331
    3TTP    C3616825   7.993   4.455   9.282  0.5715  0.3368 -0.2268
    3TTP    C3716826   7.843   4.495   9.321 -0.3677  1.7309 -0.1497
    3TTP    C3816827   7.752   4.481   9.205 -0.3253  0.1460 -0.5350
    3TTP    C3916828   7.613   4.551   9.194  1.2553  0.4280  0.5083
    3TTP    C4016829   7.617   4.713   9.210  1.0383 -0.4686 -0.9940
    3TTP    C4116830   7.512   4.813   9.149 -0.1374  0.7506  0.4253
    3TTP    C4216831   7.510   4.812   8.988 -0.1449  0.1449  1.1748
    4FIC     F116832   7.420   2.212   9.835  0.3601 -0.3585 -0.8779
    4FIC     F216833   7.514   2.019  10.001 -1.0900  0.1066  0.5336
    4FIC     O116834   7.789   2.601   9.911  1.1762 -1.1424 -0.7982
    4FIC     N516835   7.912   2.017  10.295 -2.5935  0.2162  2.6197
    4FIC     N616836   8.182   2.360  10.321 -1.6632 -0.4900  2.3975
    4FIC    C1916837   8.010   2.554  10.097  0.0805 -0.9767  0.5790
    4FIC    C2016838   7.913   2.464  10.071 -0.0681 -0.7976  0.5038
    4FIC    C2116839   7.803   2.495   9.974  0.5246 -0.8986 -0.2222
    4FIC    C2216840   7.716   2.376   9.970  0.1785 -0.6520 -0.1121
    4FIC    C2316841   7.601   2.358   9.894  0.5089 -0.6418 -0.6285
    4FIC    C2416842   7.535   2.237   9.907  0.0687 -0.3836 -0.3955
    4FIC    C2516843   7.583   2.137   9.993 -0.6781 -0.1444  0.3319
    4FIC    C2616844   7.698   2.155  10.069 -1.0117 -0.1531  0.8500
    4FIC    C2716845   7.766   2.277  10.057 -0.5748 -0.4125  0.6247
    4FIC    C2816846   7.890   2.327  10.123 -0.7560 -0.4925  1.0319
    4FIC    C2916847   7.967   2.259  10.214 -1.4324 -0.3172  1.7595
    4FIC    C3016848   7.937   2.126  10.258 -2.0682 -0.0244  2.2297
    4FIC    C3116849   8.085   2.315  10.272 -1.5554 -0.4133  2.1062
    5FIC     F116850   7.058   3.903   9.916  0.1333  0.0721  0.0010
    5FIC     F216851   6.983   4.093   9.736 -0.3145 -0.6554 -0.5877
    5FIC     O116852   7.572   3.820   9.769  0.2161  0.5499  0.0167
    5FIC     N516853   7.241   4.306   9.371 -0.8997 -1.3610 -1.4231
    5FIC     N616854   7.658   4.202   9.293 -0.7445 -0.8410 -1.2925
    5FIC    C1916855   7.683   3.971   9.544 -0.1824  0.0245 -0.5403
    5FIC    C2016856   7.557   3.985   9.588 -0.1856 -0.0674 -0.5212
    5FIC    C2116857   7.507   3.904   9.704  0.0263  0.2185 -0.2267
    5FIC    C2216858   7.367   3.943   9.726 -0.0367  0.0269 -0.2854
    5FIC    C2316859   7.279   3.894   9.822  0.1029  0.1776 -0.0806
    5FIC    C2416860   7.150   3.947   9.823  0.0050 -0.0586 -0.1888
    5FIC    C2516861   7.112   4.044   9.730 -0.2261 -0.4334 -0.4923
    5FIC    C2616862   7.199   4.093   9.634 -0.3663 -0.5856 -0.6979
    5FIC    C2716863   7.329   4.041   9.631 -0.2702 -0.3508 -0.5925
    5FIC    C2816864   7.445   4.071   9.543 -0.3707 -0.4236 -0.7493
    5FIC    C2916865   7.447   4.161   9.439 -0.5932 -0.7573 -1.0493
    5FIC    C3016866   7.334   4.240   9.402 -0.7606 -1.0883 -1.2536
    5FIC    C3116867   7.563   4.183   9.359 -0.6753 -0.8014 -1.1811
    1BTD     S216868   9.123   7.578   3.323  0.1711 -0.3563 -0.2062
    1BTD     N116869   9.264   7.644   3.233  0.2627 -0.2608  0.0053
    1BTD     N216870   9.211   7.434   3.384  0.1154 -0.4092 -0.2514
    1BTD     N316871   9.645   7.259   3.346  0.1671 -0.3452  0.0385
    1BTD     N416872   9.710   7.518   3.159  0.3488 -0.1622  0.3546
    1BTD     C516873   9.496   7.575   3.197  0.3057 -0.2116  0.1839
    1BTD     C616874   9.364   7.560   3.252  0.2480 -0.2729  0.0300
    1BTD     C716875   9.335   7.442   3.336  0.1657 -0.3560 -0.1136
    1BTD     C816876   9.438   7.346   3.362  0.1450 -0.3737 -0.0961
    1BTD    C1516877   9.566   7.365   3.306  0.2033 -0.3118  0.0568
    1BTD    C1616878   9.595   7.479   3.224  0.2825 -0.2316  0.1952
    1BTD    C4316879   9.862   7.483   3.167  0.6105 -0.0021 -0.6713
    1BTD    C4416880   9.948   7.588   3.234  1.1646 -0.2207  0.6789
    1BTD    C4516881  10.096   7.586   3.196  0.0512 -0.7493 -0.0839
    1BTD    C4616882  10.178   7.498   3.104  0.1189  0.9280  0.3135
    1BTD    C4716883   9.890   7.637   3.359  0.0715 -0.6776 -0.6945
    1BTD    C4816884   9.935   7.561   3.483 -0.0617 -0.8078  0.0205
    1BTD    C4916885  10.021   7.639   3.569  0.3625  0.4026  0.3523
    1BTD    C5016886  10.089   7.590   3.689 -0.7168 -0.0416 -0.2210
    1BTD    C7516887   9.759   7.197   3.272 -0.1645 -0.8198  0.4178
    1BTD    C7616888   9.883   7.115   3.319  1.2389 -0.6530 -1.3459
    1BTD    C7716889   9.972   7.050   3.207 -0.7135 -0.6685  0.7640
    1BTD    C7816890   9.915   7.009   3.077 -0.4139  0.8824  0.4598
    1BTD    C7916891   9.948   7.157   3.445  1.4123 -0.9948  0.3849
    1BTD    C8016892  10.050   7.080   3.527 -0.2692  0.5137 -0.3348
    1BTD    C8116893  10.192   7.096   3.493  0.2884 -0.4885 -0.5761
    1BTD    C8216894  10.248   7.176   3.610 -0.4024  0.9824  0.4031
    2TTP     S116895   9.493   7.808   2.999  0.4410  0.2008  0.1174
    2TTP     S516896   9.878   7.679   2.858 -0.0260 -0.8749 -0.1963
    2TTP     C116897   9.818   7.813   2.750  0.0966 -0.9598 -0.3703
    2TTP     C216898   9.696   7.861   2.787  0.2480 -0.6326 -0.2837
    2TTP     C316899   9.645   7.793   2.903  0.2730 -0.3029 -0.0768
    2TTP     C416900   9.552   7.674   3.107  0.3185  0.2859  0.2915
    2TTP    C1716901   9.675   7.626   3.070  0.1671 -0.0413  0.2049
    2TTP    C1816902   9.726   7.694   2.955  0.1423 -0.3710 -0.0021
    2TTP    C3216903   9.626   7.969   2.696  1.6131 -0.6844  0.2446
    2TTP    C3316904   9.470   7.975   2.726 -1.2345  1.2701 -0.5270
    2TTP    C3416905   9.392   8.098   2.733 -2.2095 -0.3056 -0.5488
    2TTP    C3516906   9.357   8.180   2.605 -1.3177 -0.6928  0.7808
    2TTP    C3616907   9.228   8.124   2.550  0.9757  0.8749  0.4757
    2TTP    C3716908   9.092   8.193   2.561 -0.5685  0.9499 -0.5995
    2TTP    C3816909   9.059   8.339   2.535  0.7794 -0.5956  0.0501
    2TTP    C3916910   8.902   8.381   2.541 -0.0547  0.6761 -0.4818
    2TTP    C4016911   8.811   8.388   2.665  0.8182 -1.0643 -0.1795
    2TTP    C4116912   8.717   8.270   2.680 -0.3942  0.0953  1.4876
    2TTP    C4216913   8.597   8.254   2.761  0.9606  0.5933 -1.6003
    3TTP     S116914   9.339   7.133   3.545 -0.3636  0.1785 -0.3028
    3TTP     S516915   9.732   6.958   3.560 -0.5612 -0.2716 -0.3595
    3TTP     C116916   9.628   6.878   3.687 -0.6252 -0.1318 -0.3244
    3TTP     C216917   9.501   6.928   3.690 -0.5682  0.0154 -0.3048
    3TTP     C316918   9.481   7.030   3.592 -0.4716  0.0231 -0.3168
    3TTP     C416919   9.443   7.212   3.418 -0.2995  0.0389 -0.3380
    3TTP    C1716920   9.571   7.163   3.415 -0.3566 -0.1084 -0.3574
    3TTP    C1816921   9.591   7.060   3.513 -0.4535 -0.1161 -0.3455
    3TTP    C3216922   9.371   6.874   3.757 -1.0417  0.4684 -0.5514
    3TTP    C3316923   9.353   6.914   3.904 -1.0786 -0.5437  0.1872
    3TTP    C3416924   9.238   6.843   3.973 -0.2669 -0.5525 -0.1154
    3TTP    C3516925   9.105   6.910   3.996  0.5809 -0.3957 -0.6195
    3TTP    C3616926   9.110   7.036   4.090  0.5723 -0.1731 -0.0837
    3TTP    C3716927   8.976   7.102   4.095 -0.3376  0.3648  0.2920
    3TTP    C3816928   8.921   7.141   4.236 -1.5320  1.1179  0.4198
    3TTP    C3916929   8.797   7.215   4.271 -0.7970  0.2942 -0.2735
    3TTP    C4016930   8.696   7.158   4.360  0.9797 -0.7672  0.0673
    3TTP    C4116931   8.580   7.255   4.339 -1.1271  0.2702  0.9882
    3TTP    C4216932   8.444   7.221   4.405 -1.0414 -0.0653 -0.2971
    4FIC     F116933  10.601   7.770   2.521  0.1895  0.9058  0.4774
    4FIC     F216934  10.540   7.914   2.299 -0.1583 -0.7207 -0.5152
    4FIC     O116935  10.116   7.740   2.760  0.2980  1.5157  0.7774
    4FIC     N516936  10.107   8.101   2.149 -0.5815 -2.6245 -1.7286
    4FIC     N616937   9.740   8.049   2.380 -0.4265 -1.8203 -1.2940
    4FIC    C1916938   9.885   7.868   2.632  0.0040  0.1782 -0.0645
    4FIC    C2016939  10.010   7.870   2.581 -0.0098  0.0885 -0.1011
    4FIC    C2116940  10.123   7.802   2.652  0.1478  0.8053  0.3486
    4FIC    C2216941  10.243   7.823   2.570  0.0870  0.4961  0.1788
    4FIC    C2316942  10.373   7.779   2.595  0.1860  0.9348  0.4627
    4FIC    C2416943  10.471   7.811   2.502  0.0999  0.5095  0.2193
    4FIC    C2516944  10.439   7.885   2.388 -0.0794 -0.3284 -0.2922
    4FIC    C2616945  10.310   7.930   2.361 -0.1786 -0.7701 -0.5777
    4FIC    C2716946  10.210   7.898   2.454 -0.0942 -0.3500 -0.3380
    4FIC    C2816947  10.065   7.930   2.457 -0.1607 -0.6337 -0.5302
    4FIC    C2916948   9.995   8.001   2.362 -0.3297 -1.4164 -1.0135
    4FIC    C3016949  10.057   8.056   2.245 -0.4675 -2.0781 -1.4051
    4FIC    C3116950   9.855   8.027   2.372 -0.3819 -1.6341 -1.1650
    5FIC     F116951  10.326   6.689   4.080  0.1101 -0.0008 -0.1684
    5FIC     F216952  10.195   6.479   4.194  0.0944  0.2004  0.1861
    5FIC     O116953   9.930   6.909   3.784  0.0165 -0.2197 -0.2062
    5FIC     N516954   9.724   6.334   4.146  0.0041  0.3337  0.6685
    5FIC     N616955   9.441   6.548   3.892 -0.0658  0.1222  0.5675
    5FIC    C1916956   9.664   6.786   3.787 -0.0323 -0.1052  0.1189
    5FIC    C2016957   9.769   6.739   3.857 -0.0079 -0.0579  0.1146
    5FIC    C2116958   9.903   6.808   3.850  0.0162 -0.1222 -0.0578
    5FIC    C2216959   9.993   6.731   3.938  0.0391 -0.0466 -0.0151
    5FIC    C2316960  10.128   6.756   3.964  0.0653 -0.0691 -0.1318
    5FIC    C2416961  10.193   6.670   4.050  0.0837  0.0158 -0.0604
    5FIC    C2516962  10.126   6.562   4.109  0.0753  0.1191  0.1222
    5FIC    C2616963   9.991   6.536   4.083  0.0491  0.1421  0.2394
    5FIC    C2716964   9.923   6.623   3.996  0.0303  0.0573  0.1696
    5FIC    C2816965   9.783   6.623   3.949  0.0010  0.0546  0.2565
    5FIC    C2916966   9.684   6.534   3.983 -0.0145  0.1401  0.4346
    5FIC    C3016967   9.707   6.424   4.073 -0.0043  0.2463  0.5625
    5FIC    C3116968   9.551   6.542   3.933 -0.0427  0.1298  0.5067
    1BTD     S216969   5.265   8.479   1.201  0.3873  0.0050 -0.3318
    1BTD     N116970   5.398   8.410   1.102 -0.0280 -0.4022 -0.6099
    1BTD     N216971   5.260   8.342   1.317  0.6070  0.2987  0.0342
    1BTD     N316972   5.488   7.935   1.373  0.3043  0.1611  0.2782
    1BTD     N416973   5.659   8.019   1.108 -0.4783 -0.7026 -0.5155
    1BTD     C516974   5.532   8.205   1.108 -0.2537 -0.5488 -0.5510
    1BTD     C616975   5.430   8.294   1.157  0.0161 -0.3037 -0.4251
    1BTD     C716976   5.352   8.255   1.277  0.3713  0.0887 -0.0645
    1BTD     C816977   5.381   8.130   1.343  0.4395  0.2165  0.1520
    1BTD    C1516978   5.482   8.047   1.291  0.1675 -0.0333  0.0177
    1BTD    C1616979   5.557   8.084   1.176 -0.1750 -0.4115 -0.3297
    1BTD    C4316980   5.678   7.890   1.068 -1.5399  1.9292 -1.2689
    1BTD    C4416981   5.554   7.789   1.051 -1.9890  1.2815 -0.1452
    1BTD    C4516982   5.604   7.650   1.079 -0.4057  1.1188 -0.3065
    1BTD    C4616983   5.516   7.536   1.064  1.4642  1.1161 -0.7851
    1BTD    C4716984   5.452   7.817   0.943 -1.4528 -0.5485 -0.0885
    1BTD    C4816985   5.388   7.947   0.935 -0.5728  0.9610 -1.0990
    1BTD    C4916986   5.235   7.959   0.930  0.5500  0.1226 -0.2644
    1BTD    C5016987   5.163   8.045   1.038 -0.5829 -0.6966  0.4636
    1BTD    C7516988   5.592   7.838   1.395 -1.7357  0.0660 -0.3945
    1BTD    C7616989   5.710   7.872   1.484  0.2664  0.8501 -0.4974
    1BTD    C7716990   5.663   7.887   1.633  0.5412 -0.2704  0.1571
    1BTD    C7816991   5.614   7.765   1.713 -0.4084 -0.2235 -1.0543
    1BTD    C7916992   5.813   7.754   1.484  0.7614 -0.2043 -0.3253
    1BTD    C8016993   5.960   7.780   1.534 -0.2606 -0.2931  0.5731
    1BTD    C8116994   6.028   7.638   1.524  0.4835 -0.9294  0.2992
    1BTD    C8216995   6.152   7.629   1.608 -0.4738 -0.4098  0.1585
    2TTP     S116996   5.653   8.318   0.861 -0.3003 -0.3464 -0.0706
    2TTP     S516997   5.919   7.982   0.835 -0.0830 -0.1997  0.2519
    2TTP     C116998   5.951   8.092   0.694  0.2368 -0.0301  0.4548
    2TTP     C216999   5.871   8.203   0.694  0.1887 -0.0656  0.3672
    2TTP     C317000   5.781   8.204   0.805 -0.1026 -0.2275  0.1366
    2TTP     C417001   5.621   8.208   1.002 -0.6201 -0.5162 -0.2735
    2TTP    C1717002   5.701   8.097   1.002 -0.5719 -0.4808 -0.1859
    2TTP    C1817003   5.791   8.096   0.891 -0.2806 -0.3183  0.0447
    2TTP    C3217004   5.868   8.308   0.596 -0.9444 -0.3156  1.6082
    2TTP    C3317005   5.836   8.457   0.607 -0.4913 -0.1436  0.0736
    2TTP    C3417006   5.815   8.522   0.478 -0.0331 -0.5258  1.1505
    2TTP    C3517007   5.737   8.661   0.487  0.4997  0.4344  1.4202
    2TTP    C3617008   5.752   8.770   0.380 -1.7382  0.7209  0.1368
    2TTP    C3717009   5.650   8.881   0.374  1.0608 -0.5279 -1.3229
    2TTP    C3817010   5.598   8.962   0.512  0.2044  0.3660  0.4399
    2TTP    C3917011   5.645   9.115   0.533  0.8943  0.7914  0.7731
    2TTP    C4017012   5.579   9.236   0.474  0.2788  0.8314  0.2302
    2TTP    C4117013   5.438   9.271   0.518  0.7871 -0.0095  0.0650
    2TTP    C4217014   5.463   9.320   0.662  1.1151  0.3930 -1.4287
    3TTP     S117015   5.146   8.063   1.520  0.0010 -0.1571 -0.5459
    3TTP     S517016   5.304   7.668   1.580 -0.1030 -0.1726 -0.3702
    3TTP     C117017   5.142   7.678   1.661  0.0127 -0.0157 -0.1572
    3TTP     C217018   5.084   7.801   1.647  0.0517 -0.0018 -0.1989
    3TTP     C317019   5.165   7.891   1.572 -0.0086 -0.1144 -0.4006
    3TTP     C417020   5.308   8.053   1.439 -0.1148 -0.3138 -0.7590
    3TTP    C1717021   5.367   7.930   1.452 -0.1537 -0.3279 -0.7173
    3TTP    C1817022   5.286   7.840   1.527 -0.0937 -0.2153 -0.5155
    3TTP    C3217023   4.956   7.852   1.708 -0.2983 -0.4947 -0.6782
    3TTP    C3317024   4.855   7.830   1.605  0.2109 -1.1564  1.4246
    3TTP    C3417025   4.709   7.873   1.633 -0.0130  1.0048  0.1610
    3TTP    C3517026   4.679   8.021   1.663  0.1179 -0.5251 -1.1143
    3TTP    C3617027   4.561   8.076   1.592 -0.9304  0.5476  1.0037
    3TTP    C3717028   4.548   8.231   1.598  0.8008  0.7488  0.1177
    3TTP    C3817029   4.608   8.329   1.493  0.1456  0.1061  0.6446
    3TTP    C3917030   4.574   8.470   1.422 -0.4252 -0.1562  0.4684
    3TTP    C4017031   4.697   8.506   1.339 -0.5836 -0.6407  1.5249
    3TTP    C4117032   4.791   8.586   1.421 -0.9186  0.3525 -0.3214
    3TTP    C4217033   4.948   8.566   1.406  0.4455 -0.3432  0.3540
    4FIC     F117034   6.255   7.387   0.380  0.2890  0.0237 -0.0159
    4FIC     F217035   6.429   7.537   0.235  0.1047  0.1756 -0.0816
    4FIC     O117036   5.973   7.774   0.633 -0.2420 -0.2085 -0.2487
    4FIC     N517037   6.480   8.029   0.207 -0.5386  0.2289 -0.3420
    4FIC     N617038   6.224   8.301   0.434 -0.9162  0.0165 -0.5107
    4FIC    C1917039   6.040   8.055   0.585 -0.6065 -0.1461 -0.3942
    4FIC    C2017040   6.104   7.952   0.527 -0.4658 -0.0932 -0.3331
    4FIC    C2117041   6.064   7.810   0.557 -0.2824 -0.1304 -0.2602
    4FIC    C2217042   6.153   7.724   0.477 -0.1615 -0.0560 -0.2058
    4FIC    C2317043   6.154   7.585   0.472  0.0216 -0.0581 -0.1308
    4FIC    C2417044   6.248   7.525   0.390  0.1078  0.0209 -0.0904
    4FIC    C2517045   6.338   7.602   0.315  0.0125  0.0992 -0.1244
    4FIC    C2617046   6.338   7.741   0.320 -0.1702  0.1017 -0.1992
    4FIC    C2717047   6.243   7.804   0.403 -0.2598  0.0224 -0.2410
    4FIC    C2817048   6.216   7.947   0.430 -0.4506  0.0025 -0.3206
    4FIC    C2917049   6.283   8.054   0.376 -0.5869  0.0615 -0.3726
    4FIC    C3017050   6.391   8.040   0.283 -0.5599  0.1533 -0.3556
    4FIC    C3117051   6.251   8.189   0.408 -0.7675  0.0362 -0.4483
    5FIC     F117052   5.466   7.086   2.093 -0.2675 -0.0825  0.1296
    5FIC     F217053   5.240   6.938   2.057 -0.1134 -0.1918 -0.4023
    5FIC     O117054   5.331   7.545   1.842 -0.2428  0.1926  0.6169
    5FIC     N517055   4.819   7.055   1.825  0.1260 -0.1528 -0.8197
    5FIC     N617056   4.759   7.444   1.636  0.1141  0.0843 -0.3318
    5FIC    C1917057   5.067   7.568   1.718 -0.0870  0.1861  0.2818
    5FIC    C2017058   5.110   7.458   1.782 -0.0992  0.1210  0.1800
    5FIC    C2117059   5.247   7.454   1.844 -0.1811  0.1295  0.3653
    5FIC    C2217060   5.261   7.321   1.906 -0.1732  0.0477  0.1895
    5FIC    C2317061   5.371   7.271   1.974 -0.2333  0.0252  0.2689
    5FIC    C2417062   5.361   7.142   2.024 -0.2112 -0.0559  0.0654
    5FIC    C2517063   5.245   7.066   2.005 -0.1317 -0.1120 -0.2084
    5FIC    C2617064   5.135   7.116   1.937 -0.0716 -0.0900 -0.2892
    5FIC    C2717065   5.143   7.246   1.886 -0.0926 -0.0083 -0.0860
    5FIC    C2817066   5.045   7.327   1.809 -0.0440  0.0347 -0.1028
    5FIC    C2917067   4.919   7.289   1.770  0.0368  0.0004 -0.3359
    5FIC    C3017068   4.864   7.160   1.801  0.0856 -0.0836 -0.6011
    5FIC    C3117069   4.831   7.374   1.697  0.0789  0.0471 -0.3323
    1BTD     S217070   4.490   9.607   2.676 -0.3044 -0.4027  0.2523
    1BTD     N117071   4.464   9.785   2.677  0.4517 -0.2861  0.5695
    1BTD     N217072   4.564   9.605   2.512 -0.7110 -0.4907  0.0674
    1BTD     N317073   4.667   9.921   2.180 -0.1739 -0.4587  0.2635
    1BTD     N417074   4.544  10.143   2.384  1.2586 -0.2062  0.8822
    1BTD     C517075   4.507   9.970   2.522  0.8557 -0.2475  0.7253
    1BTD     C617076   4.509   9.831   2.561  0.3667 -0.3169  0.5236
    1BTD     C717077   4.565   9.730   2.469 -0.2842 -0.4313  0.2427
    1BTD     C817078   4.616   9.773   2.341 -0.4134 -0.4706  0.1773
    1BTD    C1517079   4.612   9.909   2.307  0.0804 -0.4001  0.3813
    1BTD    C1617080   4.558  10.006   2.396  0.7074 -0.2897  0.6520
    1BTD    C4317081   4.636  10.239   2.311  0.4337  0.1921 -0.7251
    1BTD    C4417082   4.769  10.263   2.383 -0.0117  0.2719 -0.3567
    1BTD    C4517083   4.809  10.369   2.280 -0.6294 -0.1023  0.5367
    1BTD    C4617084   4.942  10.448   2.287 -0.9249  0.9299 -0.2203
    1BTD    C4717085   4.866  10.146   2.419  0.4303  0.5150 -0.6849
    1BTD    C4817086   4.939  10.157   2.547 -0.7241  0.1606 -0.2177
    1BTD    C4917087   4.974  10.026   2.628  0.1000  0.5281  1.2418
    1BTD    C5017088   4.880   9.960   2.725 -0.5719 -0.8483  0.4460
    1BTD    C7517089   4.654  10.039   2.077 -0.5847  1.7423  0.8271
    1BTD    C7617090   4.690  10.050   1.931 -0.2011  0.8789 -0.5698
    1BTD    C7717091   4.682  10.196   1.889 -0.2889  1.2578  0.7084
    1BTD    C7817092   4.752  10.236   1.757 -0.1402 -0.5110 -1.1366
    1BTD    C7917093   4.655   9.937   1.824  0.3860 -0.2493  0.9236
    1BTD    C8017094   4.513   9.919   1.789  0.6547  1.8339  0.2566
    1BTD    C8117095   4.400   9.930   1.884  0.3405  1.8855  1.0443
    1BTD    C8217096   4.275   9.892   1.799 -0.8036 -0.8691  1.0756
    2TTP     S117097   4.417  10.139   2.755  0.2896 -0.1173 -0.3103
    2TTP     S517098   4.392  10.482   2.496 -0.2525 -0.1364 -0.2841
    2TTP     C117099   4.337  10.531   2.663  0.3439 -0.0583 -0.1061
    2TTP     C217100   4.342  10.428   2.752  0.5463 -0.0477 -0.1037
    2TTP     C317101   4.389  10.307   2.693  0.2378 -0.1013 -0.2424
    2TTP     C417102   4.472  10.090   2.588 -0.3067 -0.1955 -0.4884
    2TTP    C1717103   4.467  10.193   2.499 -0.5092 -0.2061 -0.4909
    2TTP    C1817104   4.421  10.314   2.558 -0.2007 -0.1528 -0.3521
    2TTP    C3217105   4.280  10.421   2.895  0.3640 -1.2888  1.4178
    2TTP    C3317106   4.325  10.539   2.979  0.4331 -1.3178 -0.4086
    2TTP    C3417107   4.457  10.515   3.068 -0.6794 -0.2915  0.6030
    2TTP    C3517108   4.502  10.619   3.180  0.3394 -1.0485  0.3458
    2TTP    C3617109   4.556  10.757   3.132 -1.7326  1.1028  0.7952
    2TTP    C3717110   4.706  10.779   3.131 -0.2974  0.5314  0.1097
    2TTP    C3817111   4.780  10.667   3.067 -0.7333 -0.3522  0.4989
    2TTP    C3917112   4.798  10.655   2.923  0.4617 -0.2456 -0.2147
    2TTP    C4017113   4.863  10.780   2.847  1.4637  0.5973  0.1435
    2TTP    C4117114   4.851  10.759   2.702  1.7570 -1.4335 -0.0704
    2TTP    C4217115   4.912  10.875   2.618 -0.4767 -0.5185 -0.3039
    3TTP     S117116   4.755   9.549   2.235  0.1627  0.2490  0.2508
    3TTP     S517117   4.963   9.811   1.964  0.2301  0.2441  0.2975
    3TTP     C117118   5.050   9.651   1.968  0.5079  0.4012  0.6874
    3TTP     C217119   4.991   9.560   2.052  0.5033  0.4117  0.6959
    3TTP     C317120   4.875   9.614   2.116  0.2804  0.2966  0.3949
    3TTP     C417121   4.669   9.709   2.231 -0.1150  0.0920 -0.1391
    3TTP    C1717122   4.728   9.799   2.147 -0.1105  0.0812 -0.1476
    3TTP    C1817123   4.844   9.745   2.083  0.1124  0.1967  0.1535
    3TTP    C3217124   4.993   9.418   2.038 -0.0698 -0.3323  0.4497
    3TTP    C3317125   5.101   9.353   2.149  0.3812 -0.5020  0.8019
    3TTP    C3417126   5.121   9.215   2.083 -0.4139 -0.8404 -1.3879
    3TTP    C3517127   5.175   9.131   2.192 -0.5079 -0.3924 -1.1350
    3TTP    C3617128   5.323   9.162   2.239 -0.0263  0.3120  0.1273
    3TTP    C3717129   5.353   9.097   2.372  1.1704  0.8112 -0.1937
    3TTP    C3817130   5.397   9.171   2.491 -0.4170 -0.0432 -0.4434
    3TTP    C3917131   5.288   9.233   2.577  0.0417 -0.3313  0.7702
    3TTP    C4017132   5.216   9.151   2.670 -0.1623 -0.5323 -0.4156
    3TTP    C4117133   5.072   9.173   2.649 -0.7954  0.3228 -0.1376
    3TTP    C4217134   5.000   9.155   2.517  0.0935 -0.2439  0.5139
    4FIC     F117135   4.430  11.262   2.290  0.3011  0.0455  0.2840
    4FIC     F217136   4.242  11.362   2.461  0.0908 -0.1614  0.1753
    4FIC     O117137   4.475  10.754   2.473  0.3643 -0.0620 -0.0287
    4FIC     N517138   4.006  11.143   2.836 -0.1664 -0.5362 -0.2040
    4FIC     N617139   4.079  10.726   2.945 -0.0747 -0.5784 -0.4264
    4FIC    C1917140   4.313  10.669   2.701  0.1859 -0.2981 -0.2437
    4FIC    C2017141   4.308  10.793   2.648  0.1781 -0.2630 -0.1608
    4FIC    C2117142   4.395  10.829   2.531  0.2735 -0.1400 -0.0526
    4FIC    C2217143   4.366  10.970   2.499  0.2375 -0.1314  0.0185
    4FIC    C2317144   4.422  11.048   2.398  0.2977 -0.0343  0.1266
    4FIC    C2417145   4.378  11.180   2.388  0.2461 -0.0469  0.1772
    4FIC    C2517146   4.282  11.231   2.476  0.1379 -0.1538  0.1210
    4FIC    C2617147   4.226  11.154   2.577  0.0774 -0.2511  0.0133
    4FIC    C2717148   4.268  11.020   2.589  0.1281 -0.2398 -0.0394
    4FIC    C2817149   4.229  10.913   2.684  0.0873 -0.3250 -0.1518
    4FIC    C2917150   4.137  10.924   2.786 -0.0151 -0.4392 -0.2322
    4FIC    C3017151   4.065  11.044   2.813 -0.0981 -0.4921 -0.2164
    4FIC    C3117152   4.106  10.815   2.873 -0.0473 -0.5150 -0.3386
    5FIC     F117153   5.407  10.012   1.334  0.1488 -0.3872 -0.0664
    5FIC     F217154   5.644   9.905   1.415  0.2820  0.2751  0.4410
    5FIC     O117155   5.068   9.801   1.699  0.0625 -0.7918 -0.3783
    5FIC     N517156   5.742   9.600   1.792  0.4122  0.9391  0.9481
    5FIC     N617157   5.429   9.457   2.061  0.3179  0.4897  0.6021
    5FIC    C1917158   5.173   9.624   1.907  0.1591 -0.3026 -0.0043
    5FIC    C2017159   5.250   9.681   1.812  0.1757 -0.2265  0.0543
    5FIC    C2117160   5.188   9.771   1.708  0.1230 -0.4919 -0.1485
    5FIC    C2217161   5.298   9.816   1.621  0.1578 -0.3254 -0.0205
    5FIC    C2317162   5.290   9.901   1.511  0.1299 -0.4694 -0.1303
    5FIC    C2417163   5.408   9.929   1.443  0.1729 -0.2614  0.0296
    5FIC    C2517164   5.530   9.873   1.485  0.2417  0.0798  0.2909
    5FIC    C2617165   5.538   9.789   1.595  0.2698  0.2251  0.4017
    5FIC    C2717166   5.420   9.759   1.665  0.2271  0.0184  0.2429
    5FIC    C2817167   5.395   9.674   1.783  0.2408  0.0927  0.2993
    5FIC    C2917168   5.489   9.602   1.854  0.3021  0.3991  0.5338
    5FIC    C3017169   5.628   9.601   1.820  0.3624  0.6950  0.7608
    5FIC    C3117170   5.456   9.523   1.968  0.3104  0.4470  0.5701
    1BTD     S217171   3.965   2.313   3.565  0.1335 -0.3840 -0.2684
    1BTD     N117172   4.118   2.218   3.577  0.1793 -0.3274 -0.4010
    1BTD     N217173   4.045   2.463   3.507  0.0693 -0.2415  0.0108
    1BTD     N317174   4.485   2.599   3.412  0.0207  0.1515  0.3403
    1BTD     N417175   4.574   2.297   3.497  0.1565  0.0455 -0.1672
    1BTD     C517176   4.355   2.263   3.534  0.1657 -0.1315 -0.2728
    1BTD     C617177   4.216   2.299   3.539  0.1459 -0.2112 -0.2388
    1BTD     C717178   4.175   2.436   3.500  0.0845 -0.1629 -0.0082
    1BTD     C817179   4.276   2.530   3.459  0.0457 -0.0376  0.1766
    1BTD    C1517180   4.411   2.490   3.455  0.0669  0.0371  0.1354
    1BTD    C1617181   4.450   2.358   3.493  0.1263 -0.0092 -0.0867
    1BTD    C4317182   4.698   2.339   3.429  0.0341 -0.7193  0.8936
    1BTD    C4417183   4.734   2.259   3.296 -0.0516 -0.1208 -2.2523
    1BTD    C4517184   4.884   2.217   3.280  1.5200  1.3909  0.8751
    1BTD    C4617185   4.986   2.319   3.264 -0.6887 -0.1066 -0.2885
    1BTD    C4717186   4.662   2.334   3.186 -0.1182 -0.3070 -0.5318
    1BTD    C4817187   4.652   2.271   3.049  0.3446 -0.4194 -0.2743
    1BTD    C4917188   4.644   2.373   2.948 -0.8926 -0.9005  0.5103
    1BTD    C5017189   4.661   2.325   2.809  1.1054 -1.4581  0.2239
    1BTD    C7517190   4.620   2.632   3.464 -0.2503 -0.0678  1.0998
    1BTD    C7617191   4.700   2.727   3.374 -0.2641 -0.2740  0.4463
    1BTD    C7717192   4.825   2.796   3.431 -0.4081 -1.0523 -0.4695
    1BTD    C7817193   4.971   2.772   3.397  0.1806  0.0309 -0.7575
    1BTD    C7917194   4.683   2.690   3.222 -0.3180 -0.3817 -0.0153
    1BTD    C8017195   4.745   2.796   3.111  0.4353 -0.3964  0.0022
    1BTD    C8117196   4.732   2.735   2.972  1.1743  1.6813 -0.8909
    1BTD    C8217197   4.812   2.805   2.866 -0.2072 -0.2159 -0.6956
    2TTP     S117198   4.409   1.988   3.683  0.2097  0.1145  0.2853
    2TTP     S517199   4.823   2.046   3.581 -0.1472 -0.2139 -1.4002
    2TTP     C117200   4.809   1.899   3.687  0.1972 -0.0401 -1.1107
    2TTP     C217201   4.681   1.872   3.724  0.3276  0.0716 -0.5732
    2TTP     C317202   4.588   1.967   3.671  0.1603  0.0239 -0.3705
    2TTP     C417203   4.423   2.136   3.577 -0.1348 -0.0594 -0.0043
    2TTP    C1717204   4.551   2.162   3.539 -0.2652 -0.1710 -0.5418
    2TTP    C1817205   4.644   2.067   3.592 -0.0980 -0.1233 -0.7443
    2TTP    C3217206   4.632   1.747   3.817  1.2617 -1.0829 -0.9868
    2TTP    C3317207   4.510   1.695   3.893  0.7986 -0.4966 -0.9393
    2TTP    C3417208   4.381   1.703   3.830 -0.3911  0.6150  1.2624
    2TTP    C3517209   4.272   1.632   3.912 -0.5368 -1.7348  0.6109
    2TTP    C3617210   4.294   1.484   3.926  0.3168 -1.0973  0.2663
    2TTP    C3717211   4.182   1.403   4.009 -0.0731  0.9828 -0.0442
    2TTP    C3817212   4.180   1.249   4.053  0.7628  0.4703 -0.4009
    2TTP    C3917213   4.247   1.157   3.952  0.1602 -0.9324  1.5866
    2TTP    C4017214   4.253   1.014   3.977 -0.1026  0.1331 -0.0773
    2TTP    C4117215   4.368   0.942   4.065  0.3825  0.4952  0.4419
    2TTP    C4217216   4.416   1.016   4.184  0.0150  0.4357  1.6171
    3TTP     S117217   4.146   2.793   3.389 -0.4007  0.1842 -0.3814
    3TTP     S517218   4.529   2.986   3.424 -0.1891 -0.4567  0.9462
    3TTP     C117219   4.401   3.114   3.410  0.0781 -0.2416  0.3950
    3TTP     C217220   4.275   3.062   3.399  0.0284 -0.0311 -0.0474
    3TTP     C317221   4.276   2.919   3.400 -0.2224 -0.0319  0.0329
    3TTP     C417222   4.275   2.665   3.402 -0.6677 -0.0307  0.1698
    3TTP    C1717223   4.401   2.717   3.414 -0.6181 -0.2413  0.6122
    3TTP    C1817224   4.400   2.860   3.413 -0.3674 -0.2404  0.5319
    3TTP    C3217225   4.139   3.126   3.399  0.2083  0.5971  0.5396
    3TTP    C3317226   4.037   3.105   3.282 -0.7014 -0.9518  0.4778
    3TTP    C3417227   3.905   3.163   3.296 -0.3378 -0.3277 -0.6414
    3TTP    C3517228   3.892   3.312   3.342  0.5870  0.6456  0.9405
    3TTP    C3617229   3.759   3.389   3.287 -0.8755  0.7055 -0.3066
    3TTP    C3717230   3.741   3.533   3.331  0.9500 -1.1050  0.3801
    3TTP    C3817231   3.734   3.639   3.207  0.2889 -0.8119  0.0976
    3TTP    C3917232   3.870   3.720   3.185  0.4371 -0.6248  0.0043
    3TTP    C4017233   3.859   3.868   3.130  0.5912 -1.5825  0.1019
    3TTP    C4117234   3.766   3.906   3.016  0.7151  0.9672  0.2265
    3TTP    C4217235   3.785   4.056   2.978 -0.0217  0.0713  0.9092
    4FIC     F117236   5.613   1.846   3.563 -0.1273 -0.0425 -0.1391
    4FIC     F217237   5.617   1.622   3.718 -0.0334  0.3321  0.4019
    4FIC     O117238   5.088   1.975   3.582 -0.1376 -0.0695 -0.2406
    4FIC     N517239   5.247   1.394   3.956  0.0944  0.8513  1.1072
    4FIC     N617240   4.836   1.540   3.939  0.0674  0.7547  0.9188
    4FIC    C1917241   4.904   1.808   3.737 -0.0516  0.2787  0.2402
    4FIC    C2017242   5.036   1.784   3.726 -0.0526  0.2709  0.2446
    4FIC    C2117243   5.124   1.875   3.645 -0.0982  0.0865 -0.0111
    4FIC    C2217244   5.261   1.820   3.654 -0.0868  0.1282  0.0654
    4FIC    C2317245   5.376   1.870   3.595 -0.1175  0.0020 -0.1031
    4FIC    C2417246   5.495   1.802   3.618 -0.0986  0.0745  0.0158
    4FIC    C2517247   5.496   1.687   3.699 -0.0503  0.2675  0.2945
    4FIC    C2617248   5.381   1.636   3.758 -0.0193  0.3943  0.4638
    4FIC    C2717249   5.261   1.704   3.735 -0.0378  0.3236  0.3473
    4FIC    C2817250   5.123   1.678   3.783 -0.0149  0.4189  0.4683
    4FIC    C2917251   5.083   1.574   3.864  0.0322  0.6081  0.7367
    4FIC    C3017252   5.174   1.475   3.914  0.0662  0.7412  0.9394
    4FIC    C3117253   4.947   1.556   3.905  0.0514  0.6877  0.8354
    5FIC     F117254   5.002   3.668   3.267  0.3742 -0.2247  0.6894
    5FIC     F217255   4.842   3.857   3.381 -0.2748  0.0209 -0.5905
    5FIC     O117256   4.684   3.231   3.299  0.7322 -0.4597  1.0512
    5FIC     N517257   4.385   3.816   3.567 -0.9527  0.2064 -2.1729
    5FIC     N617258   4.169   3.437   3.570 -0.5420 -0.0267 -1.6322
    5FIC    C1917259   4.418   3.256   3.419  0.2393 -0.3085 -0.0432
    5FIC    C2017260   4.504   3.359   3.407  0.1746 -0.2590 -0.0842
    5FIC    C2117261   4.639   3.338   3.344  0.4408 -0.3428  0.5000
    5FIC    C2217262   4.707   3.469   3.346  0.2880 -0.2590  0.2875
    5FIC    C2317263   4.834   3.500   3.299  0.4375 -0.2935  0.6590
    5FIC    C2417264   4.877   3.631   3.312  0.2420 -0.1973  0.3508
    5FIC    C2517265   4.794   3.728   3.370 -0.0921 -0.0709 -0.3088
    5FIC    C2617266   4.667   3.698   3.418 -0.2429 -0.0358 -0.6824
    5FIC    C2717267   4.622   3.566   3.406 -0.0492 -0.1319 -0.3788
    5FIC    C2817268   4.495   3.502   3.445 -0.1323 -0.1268 -0.6334
    5FIC    C2917269   4.388   3.563   3.506 -0.4354 -0.0201 -1.2587
    5FIC    C3017270   4.387   3.702   3.539 -0.7188  0.1042 -1.7591
    5FIC    C3117271   4.268   3.493   3.541 -0.4925 -0.0244 -1.4606
    1BTD     S217272   1.841   8.653   9.637 -0.3611  0.2279 -0.4605
    1BTD     N117273   2.008   8.587   9.626 -0.1532  0.5777  0.3819
    1BTD     N217274   1.869   8.784   9.518 -0.2601 -0.1602 -0.8690
    1BTD     N317275   2.226   8.933   9.253  0.3210 -0.3214 -0.1814
    1BTD     N417276   2.398   8.690   9.386  0.4528  0.5884  1.3604
    1BTD     C517277   2.209   8.644   9.499  0.1615  0.5722  0.8743
    1BTD     C617278   2.072   8.663   9.538 -0.0259  0.3960  0.3185
    1BTD     C717279   1.994   8.773   9.477 -0.0857 -0.0172 -0.3819
    1BTD     C817280   2.058   8.859   9.381  0.0448 -0.2334 -0.4914
    1BTD    C1517281   2.192   8.837   9.346  0.2268 -0.0489  0.0682
    1BTD    C1617282   2.267   8.731   9.404  0.2846  0.3491  0.7428
    1BTD    C4317283   2.467   8.689   9.254  0.1110 -0.1428 -0.3617
    1BTD    C4417284   2.611   8.658   9.218 -0.7062  0.3589  0.4605
    1BTD    C4517285   2.706   8.758   9.267  1.2965 -1.3561 -0.5151
    1BTD    C4617286   2.844   8.718   9.273 -0.5358  0.1953  0.1831
    1BTD    C4717287   2.613   8.651   9.063 -1.4273  0.8736  0.0558
    1BTD    C4817288   2.723   8.563   8.991  0.1357 -0.4070 -0.2229
    1BTD    C4917289   2.685   8.533   8.839  1.5298 -1.1660 -0.5005
    1BTD    C5017290   2.797   8.461   8.785  0.2520  0.3779 -0.1220
    1BTD    C7517291   2.355   8.969   9.212 -0.8449  0.6348 -0.2833
    1BTD    C7617292   2.408   9.111   9.256 -0.5070  2.1044 -0.6712
    1BTD    C7717293   2.528   9.167   9.188  1.5001 -0.1024 -0.3683
    1BTD    C7817294   2.536   9.176   9.035  1.1017  0.4012  1.3355
    1BTD    C7917295   2.425   9.110   9.414  0.9103 -0.8117 -1.2026
    1BTD    C8017296   2.305   9.130   9.508  1.1277 -0.1626  0.5942
    1BTD    C8117297   2.301   9.110   9.653  0.2172  0.2893 -0.2145
    1BTD    C8217298   2.286   8.966   9.706 -0.2432 -0.1985  1.2734
    2TTP     S117299   2.318   8.396   9.628  0.4196 -0.1995 -0.1080
    2TTP     S517300   2.703   8.469   9.451  0.6719  0.1371  0.5691
    2TTP     C117301   2.709   8.311   9.540  0.5619 -0.0048  0.3273
    2TTP     C217302   2.591   8.279   9.600  0.4776 -0.1173  0.1037
    2TTP     C317303   2.491   8.378   9.578  0.4967 -0.0954  0.1159
    2TTP     C417304   2.311   8.554   9.539  0.5295 -0.0577  0.1340
    2TTP    C1717305   2.430   8.586   9.479  0.6140  0.0549  0.3572
    2TTP    C1817306   2.530   8.487   9.501  0.5948  0.0329  0.3452
    2TTP    C3217307   2.561   8.153   9.678  0.4862 -0.8397 -0.0361
    2TTP    C3317308   2.519   8.188   9.824 -1.2152  0.2843  0.0770
    2TTP    C3417309   2.463   8.066   9.906 -1.7516 -0.6126  0.0861
    2TTP    C3517310   2.488   8.124  10.051 -0.4760  0.3738 -1.2969
    2TTP    C3617311   2.625   8.102  10.119 -0.8804  0.4023 -0.3502
    2TTP    C3717312   2.722   8.210  10.150 -0.3124  0.7923  0.0489
    2TTP    C3817313   2.849   8.147  10.219 -0.1630 -2.9186  0.3901
    2TTP    C3917314   2.920   8.259  10.295  0.8580 -1.8747 -0.4415
    2TTP    C4017315   2.899   8.276  10.445  0.2850  0.0129  0.4526
    2TTP    C4117316   2.992   8.226  10.560 -0.2312  0.8489 -0.7837
    2TTP    C4217317   3.054   8.085  10.574  0.1750 -0.0597 -0.2707
    3TTP     S117318   1.854   9.046   9.294 -0.2581  0.0639 -0.0661
    3TTP     S517319   2.155   9.257   9.073  0.2427 -0.2396  0.3211
    3TTP     C117320   1.999   9.349   9.059  0.3460 -0.0940  0.0983
    3TTP     C217321   1.896   9.289   9.127  0.1974  0.0083 -0.0343
    3TTP     C317322   1.938   9.168   9.192 -0.0034 -0.0248  0.0353
    3TTP     C417323   2.010   8.954   9.308 -0.3614 -0.0815  0.1564
    3TTP    C1717324   2.113   9.014   9.241 -0.2129 -0.1841  0.2889
    3TTP    C1817325   2.071   9.135   9.175 -0.0120 -0.1512  0.2198
    3TTP    C3217326   1.746   9.314   9.152  0.4488  0.0217  0.9487
    3TTP    C3317327   1.719   9.456   9.194  0.5786  0.5660 -0.5254
    3TTP    C3417328   1.731   9.471   9.361  1.4649  0.9835  0.8305
    3TTP    C3517329   1.830   9.553   9.445 -0.2704  0.9163  0.3767
    3TTP    C3617330   1.748   9.583   9.570  0.5874  1.0128  0.1750
    3TTP    C3717331   1.812   9.642   9.700 -0.4911  0.1298 -0.1695
    3TTP    C3817332   1.902   9.764   9.674 -0.8162  0.2119 -0.7476
    3TTP    C3917333   2.013   9.784   9.780 -0.9875 -1.0661 -0.6364
    3TTP    C4017334   2.044   9.938   9.819  1.7035 -0.4083  0.8676
    3TTP    C4117335   2.151   9.977   9.924  0.3436 -0.6734  1.4561
    3TTP    C4217336   2.154   9.929  10.057  0.2609  0.8312 -0.9733
    4FIC     F117337   3.374   8.232   9.062  0.4292  0.6025  0.4835
    4FIC     F217338   3.461   8.029   9.221 -0.4308 -0.9172 -0.9210
    4FIC     O117339   2.903   8.355   9.299  0.8111  0.7625  1.1642
    4FIC     N517340   3.250   7.825   9.619 -1.3948 -2.9883 -2.4552
    4FIC     N617341   2.864   7.961   9.773 -0.9230 -2.5574 -1.6403
    4FIC    C1917342   2.819   8.204   9.536  0.1252 -0.6329  0.0640
    4FIC    C2017343   2.934   8.181   9.470  0.0627 -0.6139 -0.0522
    4FIC    C2117344   2.970   8.263   9.349  0.4315  0.1259  0.5405
    4FIC    C2217345   3.101   8.212   9.302  0.2527 -0.0567  0.2332
    4FIC    C2317346   3.175   8.256   9.193  0.4714  0.4449  0.5784
    4FIC    C2417347   3.296   8.193   9.168  0.2332  0.1392  0.1766
    4FIC    C2517348   3.340   8.088   9.250 -0.2098 -0.6442 -0.5472
    4FIC    C2617349   3.267   8.044   9.359 -0.4302 -1.1475 -0.8943
    4FIC    C2717350   3.144   8.107   9.386 -0.1944 -0.8485 -0.4966
    4FIC    C2817351   3.043   8.084   9.492 -0.3287 -1.2221 -0.7010
    4FIC    C2917352   3.050   7.990   9.593 -0.7378 -1.9863 -1.3647
    4FIC    C3017353   3.160   7.899   9.607 -1.0976 -2.5346 -1.9619
    4FIC    C3117354   2.948   7.975   9.691 -0.8373 -2.2962 -1.5123
    5FIC     F117355   2.491   9.971   8.873  0.1304  0.3688  0.6077
    5FIC     F217356   2.308  10.056   8.691  0.5219  0.2480  0.1557
    5FIC     O117357   2.233   9.546   9.087 -0.3642  0.5596  0.3908
    5FIC     N517358   1.861   9.875   8.580  0.7323  0.2098 -0.6483
    5FIC     N617359   1.696   9.526   8.784  0.2669  0.3829 -0.7265
    5FIC    C1917360   1.966   9.476   8.989 -0.1658  0.5114 -0.1179
    5FIC    C2017361   2.038   9.580   8.942 -0.0567  0.4683 -0.0458
    5FIC    C2117362   2.175   9.610   8.998 -0.1700  0.4966  0.2193
    5FIC    C2217363   2.225   9.728   8.925 -0.0052  0.4361  0.2334
    5FIC    C2317364   2.347   9.792   8.942 -0.0334  0.4368  0.4413
    5FIC    C2417365   2.372   9.902   8.862  0.1468  0.3723  0.4099
    5FIC    C2517366   2.278   9.946   8.768  0.3483  0.3103  0.1765
    5FIC    C2617367   2.156   9.882   8.750  0.3777  0.3095 -0.0315
    5FIC    C2717368   2.128   9.770   8.831  0.1971  0.3741 -0.0029
    5FIC    C2817369   2.010   9.681   8.837  0.1734  0.3910 -0.1838
    5FIC    C2917370   1.896   9.691   8.761  0.3342  0.3445 -0.4318
    5FIC    C3017371   1.877   9.792   8.662  0.5525  0.2704 -0.5498
    5FIC    C3117372   1.786   9.600   8.774  0.2962  0.3660 -0.5925
    1BTD     S217373   2.358   2.257   9.738 -0.4262  0.4806 -0.1705
    1BTD     N117374   2.256   2.384   9.816 -0.0646  0.4454  0.3736
    1BTD     N217375   2.360   2.150   9.883 -0.5879 -0.0696 -0.5698
    1BTD     N317376   2.181   2.160  10.316 -0.2643 -1.2546 -0.4020
    1BTD     N417377   2.053   2.448  10.234  0.3806 -0.6202  0.7606
    1BTD     C517378   2.151   2.414  10.035  0.1601 -0.1186  0.5615
    1BTD     C617379   2.230   2.342   9.939 -0.0820  0.0460  0.2363
    1BTD     C717380   2.288   2.211   9.976 -0.3750 -0.2423 -0.2918
    1BTD     C817381   2.265   2.159  10.108 -0.4112 -0.6806 -0.4683
    1BTD    C1517382   2.187   2.233  10.199 -0.1679 -0.8276 -0.1365
    1BTD    C1617383   2.131   2.359  10.163  0.1144 -0.5499  0.3723
    1BTD    C4317384   2.067   2.460  10.378 -0.4741 -1.3690 -1.4642
    1BTD    C4417385   1.950   2.525  10.456 -1.7098 -0.3632  0.4596
    1BTD    C4517386   1.846   2.413  10.454 -1.7312 -1.0257  0.8335
    1BTD    C4617387   1.725   2.462  10.379  0.7991  0.2662  0.0995
    1BTD    C4717388   1.985   2.598  10.589 -0.1802  0.7933  0.1698
    1BTD    C4817389   1.857   2.654  10.669 -0.4656  0.5393 -0.1044
    1BTD    C4917390   1.861   2.808  10.703 -0.3798  0.6175  0.5253
    1BTD    C5017391   1.746   2.867  10.770 -0.0448 -0.9354 -0.2631
    1BTD    C7517392   2.071   2.150  10.414 -0.5984 -0.3846  0.6448
    1BTD    C7617393   2.103   2.120  10.558  0.3038 -0.2163 -0.4671
    1BTD    C7717394   1.973   2.084  10.633  0.5040  0.0773  0.7076
    1BTD    C7817395   1.979   2.041  10.789 -1.7953 -0.2467  0.5845
    1BTD    C7917396   2.191   2.213  10.647  0.3395  0.0597  0.5169
    1BTD    C8017397   2.320   2.288  10.616  0.5179 -1.3770  0.1360
    1BTD    C8117398   2.374   2.385  10.714 -0.0250 -0.4272 -0.8733
    1BTD    C8217399   2.388   2.524  10.649 -0.0097  0.6752 -0.7197
    2TTP     S117400   2.034   2.664   9.912 -0.2545  0.1231 -0.1305
    2TTP     S517401   1.862   2.768  10.292  0.0250  0.1064  0.0010
    2TTP     C117402   1.813   2.894  10.170 -0.2965 -0.0400 -0.0212
    2TTP     C217403   1.863   2.869  10.046 -0.4017 -0.0434 -0.0627
    2TTP     C317404   1.942   2.750  10.042 -0.2322  0.0694 -0.0796
    2TTP     C417405   2.083   2.539  10.034  0.0670  0.2694 -0.1085
    2TTP    C1717406   2.033   2.564  10.159  0.1722  0.2729 -0.0670
    2TTP    C1817407   1.954   2.682  10.162  0.0028  0.1601 -0.0508
    2TTP    C3217408   1.859   2.921   9.901  1.4601  0.8691  0.8179
    2TTP    C3317409   1.934   3.038   9.884 -1.0302 -0.6469 -0.2984
    2TTP    C3417410   1.967   3.081   9.751 -0.7487  1.5506  0.3222
    2TTP    C3517411   2.066   3.199   9.729  0.0352  0.2844 -0.5307
    2TTP    C3617412   2.044   3.236   9.583  0.4224  0.1807  0.5515
    2TTP    C3717413   2.118   3.342   9.519 -0.5114 -0.5793 -0.3823
    2TTP    C3817414   2.148   3.351   9.366 -0.8463  0.1794  0.6539
    2TTP    C3917415   2.052   3.313   9.256 -0.5994  1.0621  0.5461
    2TTP    C4017416   1.945   3.410   9.236  0.1884 -1.1720  0.0727
    2TTP    C4117417   1.972   3.570   9.232  0.5324 -0.4197 -0.1613
    2TTP    C4217418   2.013   3.659   9.339  0.2004 -0.9077 -1.2903
    3TTP     S117419   2.417   1.911  10.142  0.1353 -0.2069  0.3448
    3TTP     S517420   2.312   1.899  10.559  0.2587  0.3196  0.3932
    3TTP     C117421   2.439   1.772  10.527 -0.0092  0.0375  0.4419
    3TTP     C217422   2.479   1.768  10.396 -0.0631 -0.1416  0.4296
    3TTP     C317423   2.411   1.866  10.317  0.1052 -0.0627  0.3817
    3TTP     C417424   2.291   2.038  10.174  0.4032  0.0751  0.2956
    3TTP    C1717425   2.251   2.042  10.305  0.4571  0.2543  0.3081
    3TTP    C1817426   2.319   1.944  10.384  0.2887  0.1753  0.3564
    3TTP    C3217427   2.572   1.672  10.327  0.8018  0.7522  0.8876
    3TTP    C3317428   2.510   1.549  10.269  0.2638 -0.1372 -0.1208
    3TTP    C3417429   2.451   1.427  10.345  1.0380 -0.3077  1.1003
    3TTP    C3517430   2.486   1.279  10.334  0.3895 -0.6464  0.3364
    3TTP    C3617431   2.636   1.276  10.341 -0.9775 -0.4318  0.9837
    3TTP    C3717432   2.705   1.196  10.231 -0.7739 -0.7837  0.3175
    3TTP    C3817433   2.735   1.263  10.104 -2.0688 -0.8298  0.5409
    3TTP    C3917434   2.778   1.143  10.009  0.2626  1.2477  0.6546
    3TTP    C4017435   2.897   1.148   9.915 -0.2210 -0.0003  0.0235
    3TTP    C4117436   2.875   1.197   9.781  0.6558 -1.8420  0.0543
    3TTP    C4217437   3.000   1.230   9.708  0.3033 -0.1475 -0.4692
    4FIC     F117438   1.345   3.202  10.765  0.6629  0.2320  0.1121
    4FIC     F217439   1.253   3.388  10.588 -0.0072 -0.0340  0.1764
    4FIC     O117440   1.694   2.929  10.453  0.6478  0.7475 -0.3603
    4FIC     N517441   1.369   3.460  10.113 -0.9815 -0.0491 -0.0677
    4FIC     N617442   1.660   3.209   9.905 -0.8581  0.4075 -0.4497
    4FIC    C1917443   1.730   3.009  10.174  0.0023  0.6766 -0.4663
    4FIC    C2017444   1.645   3.071  10.259  0.0322  0.5572 -0.3505
    4FIC    C2117445   1.633   3.024  10.401  0.3729  0.6037 -0.3023
    4FIC    C2217446   1.534   3.112  10.466  0.3147  0.4451 -0.1736
    4FIC    C2317447   1.489   3.107  10.598  0.5548  0.4243 -0.0913
    4FIC    C2417448   1.394   3.201  10.636  0.4391  0.2616  0.0258
    4FIC    C2517449   1.347   3.297  10.545  0.0938  0.1248  0.0585
    4FIC    C2617450   1.391   3.302  10.413 -0.1471  0.1447 -0.0231
    4FIC    C2717451   1.487   3.208  10.373 -0.0350  0.3083 -0.1419
    4FIC    C2817452   1.554   3.186  10.242 -0.2222  0.3718 -0.2494
    4FIC    C2917453   1.534   3.259  10.127 -0.5658  0.2768 -0.2539
    4FIC    C3017454   1.443   3.369  10.120 -0.7931  0.0980 -0.1516
    4FIC    C3117455   1.603   3.231  10.006 -0.7246  0.3492 -0.3617
    5FIC     F117456   2.030   1.325  11.078  0.0100 -0.0291 -0.1173
    5FIC     F217457   2.270   1.247  11.179 -0.0231 -0.1705 -0.1476
    5FIC     O117458   2.190   1.635  10.664  0.1422  0.2023  0.1063
    5FIC     N517459   2.729   1.355  11.030  0.0236 -0.2090 -0.0317
    5FIC     N617460   2.806   1.613  10.686  0.1336  0.0002  0.1495
    5FIC    C1917461   2.476   1.670  10.614  0.1576  0.1493  0.1569
    5FIC    C2017462   2.427   1.595  10.714  0.1256  0.0966  0.1018
    5FIC    C2117463   2.278   1.582  10.733  0.1197  0.1286  0.0789
    5FIC    C2217464   2.259   1.494  10.850  0.0823  0.0554  0.0181
    5FIC    C2317465   2.139   1.453  10.906  0.0647  0.0539 -0.0212
    5FIC    C2417466   2.145   1.370  11.017  0.0292 -0.0230 -0.0765
    5FIC    C2517467   2.269   1.329  11.069  0.0121 -0.0958 -0.0921
    5FIC    C2617468   2.390   1.370  11.013  0.0297 -0.0948 -0.0532
    5FIC    C2717469   2.385   1.455  10.901  0.0656 -0.0175  0.0031
    5FIC    C2817470   2.493   1.515  10.820  0.0916  0.0049  0.0541
    5FIC    C2917471   2.628   1.500  10.839  0.0851 -0.0489  0.0565
    5FIC    C3017472   2.683   1.420  10.944  0.0513 -0.1368  0.0079
    5FIC    C3117473   2.725   1.562  10.755  0.1118 -0.0215  0.1075
    1BTD     S217474   2.074   7.908   5.591  0.3225 -0.5183 -0.1560
    1BTD     N117475   2.062   7.876   5.767  0.5619 -0.2770 -0.0955
    1BTD     N217476   2.122   7.739   5.549 -0.1878 -0.6956 -0.0461
    1BTD     N317477   2.199   7.340   5.783 -0.7952 -0.6210  0.2862
    1BTD     N417478   2.126   7.508   6.052  0.1286 -0.1051  0.2255
    1BTD     C517479   2.096   7.682   5.913  0.3245 -0.1935  0.0727
    1BTD     C617480   2.093   7.748   5.785  0.2645 -0.3377 -0.0015
    1BTD     C717481   2.127   7.672   5.663 -0.1550 -0.5722  0.0260
    1BTD     C817482   2.161   7.533   5.674 -0.4938 -0.6504  0.1266
    1BTD    C1517483   2.163   7.472   5.801 -0.4204 -0.5033  0.1970
    1BTD    C1617484   2.131   7.546   5.919 -0.0162 -0.2773  0.1703
    1BTD    C4317485   2.090   7.374   6.107  0.7752  1.4480  0.7721
    1BTD    C4417486   1.949   7.312   6.152  0.2463 -0.3458 -0.0749
    1BTD    C4517487   1.983   7.181   6.202 -0.1436  0.8919  0.7965
    1BTD    C4617488   1.891   7.096   6.279  0.0931 -0.4815  0.8458
    1BTD    C4717489   1.834   7.322   6.065 -0.1950  0.4173 -1.1587
    1BTD    C4817490   1.728   7.436   6.095 -0.7996 -1.0648 -0.0784
    1BTD    C4917491   1.649   7.499   5.980 -0.5892 -0.8391 -0.9967
    1BTD    C5017492   1.503   7.524   6.042 -1.5877 -0.6577  0.4701
    1BTD    C7517493   2.254   7.242   5.881 -0.4186  0.9311 -0.4243
    1BTD    C7617494   2.403   7.243   5.925  0.2254  0.5696 -1.0216
    1BTD    C7717495   2.445   7.375   6.005  1.3766 -0.4806  0.0745
    1BTD    C7817496   2.515   7.364   6.135  0.1204 -0.1681 -0.3109
    1BTD    C7917497   2.518   7.201   5.835 -0.0225  1.1756 -0.4225
    1BTD    C8017498   2.571   7.295   5.723 -0.0442 -0.8774 -0.4497
    1BTD    C8117499   2.595   7.233   5.597 -1.0062 -0.4418  0.0368
    1BTD    C8217500   2.729   7.292   5.527  0.1289 -0.0901 -0.5227
    2TTP     S117501   1.985   7.860   6.127 -0.0396 -0.3943 -0.0195
    2TTP     S517502   2.034   7.544   6.415  0.5792 -0.2615  0.0246
    2TTP     C117503   1.953   7.685   6.497  0.4057 -0.3656  0.0339
    2TTP     C217504   1.933   7.791   6.412  0.2044 -0.4126  0.0209
    2TTP     C317505   1.981   7.764   6.280  0.1799 -0.3684  0.0030
    2TTP     C417506   2.066   7.719   6.045  0.1340 -0.2903 -0.0288
    2TTP    C1717507   2.085   7.613   6.129  0.3352 -0.2430 -0.0159
    2TTP    C1817508   2.038   7.639   6.261  0.3598 -0.2874  0.0020
    2TTP    C3217509   1.877   7.936   6.456 -0.4836 -0.0135  0.5673
    2TTP    C3317510   1.753   7.992   6.388  0.4205 -0.1302  0.9801
    2TTP    C3417511   1.629   7.913   6.383  0.2326 -0.0125 -0.6780
    2TTP    C3517512   1.515   7.954   6.298 -0.8264 -1.2851 -0.6381
    2TTP    C3617513   1.553   7.961   6.154  0.2828  0.8363  1.5844
    2TTP    C3717514   1.517   8.098   6.108 -0.7783 -0.9837 -0.3796
    2TTP    C3817515   1.372   8.144   6.090  0.4261  0.8994  0.2247
    2TTP    C3917516   1.368   8.301   6.081 -0.2332 -0.0422 -0.1606
    2TTP    C4017517   1.424   8.388   6.193 -0.7562 -0.6434  0.4532
    2TTP    C4117518   1.426   8.538   6.135 -0.7839 -0.2048  0.2408
    2TTP    C4217519   1.441   8.671   6.214 -1.3826 -0.2819 -0.3362
    3TTP     S117520   2.138   7.384   5.401 -0.5901 -0.5992  0.1332
    3TTP     S517521   2.201   7.014   5.610 -0.0083 -0.7869 -0.3697
    3TTP     C117522   2.165   6.976   5.435 -0.6933 -0.6407 -0.2640
    3TTP     C217523   2.143   7.089   5.360 -0.9133 -0.5742 -0.1025
    3TTP     C317524   2.154   7.208   5.438 -0.5488 -0.6363 -0.0563
    3TTP     C417525   2.174   7.421   5.575  0.0948 -0.7453  0.0274
    3TTP    C1717526   2.196   7.309   5.650  0.3149 -0.8120 -0.1341
    3TTP    C1817527   2.185   7.190   5.572 -0.0495 -0.7498 -0.1801
    3TTP    C3217528   2.107   7.095   5.217 -0.9649  1.0021  0.1462
    3TTP    C3317529   2.203   7.184   5.124  0.0827 -1.2043 -0.3748
    3TTP    C3417530   2.115   7.278   5.032 -0.1887  0.9299 -0.8094
    3TTP    C3517531   2.081   7.213   4.895  0.0545 -0.4178  0.2934
    3TTP    C3617532   1.924   7.167   4.885 -0.3337 -0.5366  0.6929
    3TTP    C3717533   1.852   7.177   4.739 -0.5702 -0.2303 -0.3140
    3TTP    C3817534   1.836   7.326   4.699  0.4591  0.0195  0.1254
    3TTP    C3917535   1.713   7.384   4.771  0.1490 -0.0127 -0.4050
    3TTP    C4017536   1.709   7.518   4.725  0.0220  0.4554  0.0666
    3TTP    C4117537   1.638   7.521   4.593 -0.5361 -0.0012  1.2927
    3TTP    C4217538   1.568   7.648   4.563 -0.2737 -0.3313 -0.7539
    4FIC     F117539   1.674   7.069   6.952  0.4696 -0.1577 -0.1372
    4FIC     F217540   1.720   7.218   7.175 -0.0615 -0.1330 -0.0412
    4FIC     O117541   1.816   7.418   6.564  0.6183  0.0869  0.1361
    4FIC     N517542   1.888   7.681   7.218 -0.7190  0.0769  0.2919
    4FIC     N617543   1.990   7.924   6.870 -0.4957  0.2632  0.4863
    4FIC    C1917544   1.911   7.684   6.638  0.1638  0.1975  0.3252
    4FIC    C2017545   1.874   7.591   6.727  0.1471  0.1349  0.2526
    4FIC    C2117546   1.826   7.456   6.681  0.3897  0.0807  0.1574
    4FIC    C2217547   1.793   7.379   6.803  0.3018  0.0197  0.0952
    4FIC    C2317548   1.745   7.249   6.811  0.4563 -0.0436  0.0005
    4FIC    C2417549   1.722   7.197   6.937  0.3288 -0.0942 -0.0436
    4FIC    C2517550   1.745   7.274   7.052  0.0552 -0.0811  0.0061
    4FIC    C2617551   1.793   7.404   7.045 -0.1002 -0.0181  0.1006
    4FIC    C2717552   1.818   7.458   6.918  0.0254  0.0334  0.1465
    4FIC    C2817553   1.868   7.592   6.876 -0.0805  0.1048  0.2452
    4FIC    C2917554   1.903   7.696   6.959 -0.3401  0.1369  0.3160
    4FIC    C3017555   1.895   7.687   7.101 -0.5475  0.1037  0.3024
    4FIC    C3117556   1.951   7.821   6.909 -0.4242  0.2062  0.4092
    5FIC     F117557   2.027   6.198   5.689  0.1053 -0.2311 -0.1051
    5FIC     F217558   2.116   6.114   5.446 -0.7070 -0.1349 -0.4430
    5FIC     O117559   2.053   6.736   5.628  0.2539 -0.2087  0.1535
    5FIC     N517560   2.263   6.377   5.053 -1.7686  0.0193 -0.7441
    5FIC     N617561   2.266   6.814   5.055 -1.4887  0.0173 -0.4737
    5FIC    C1917562   2.148   6.846   5.374 -0.4692 -0.1089 -0.0773
    5FIC    C2017563   2.138   6.715   5.399 -0.4749 -0.1184 -0.1292
    5FIC    C2117564   2.088   6.665   5.532 -0.0904 -0.1708 -0.0027
    5FIC    C2217565   2.089   6.518   5.525 -0.2043 -0.1676 -0.1012
    5FIC    C2317566   2.052   6.428   5.625  0.0495 -0.2066 -0.0396
    5FIC    C2417567   2.062   6.293   5.595 -0.1281 -0.1945 -0.1575
    5FIC    C2517568   2.108   6.250   5.470 -0.5465 -0.1449 -0.3315
    5FIC    C2617569   2.145   6.339   5.370 -0.8016 -0.1057 -0.3940
    5FIC    C2717570   2.136   6.476   5.398 -0.6274 -0.1173 -0.2766
    5FIC    C2817571   2.167   6.595   5.316 -0.8103 -0.0852 -0.3004
    5FIC    C2917572   2.215   6.595   5.187 -1.2135 -0.0341 -0.4525
    5FIC    C3017573   2.241   6.475   5.114 -1.5173 -0.0049 -0.6124
    5FIC    C3117574   2.243   6.716   5.115 -1.3626 -0.0060 -0.4634
    1BTD     S217575   3.058   9.516   8.555  0.1320 -0.0163 -0.2806
    1BTD     N117576   2.893   9.485   8.491  0.2221 -0.4239 -0.3216
    1BTD     N217577   3.104   9.628   8.422 -0.2667  0.4635 -0.0248
    1BTD     N317578   2.901   9.799   8.035 -0.9165  0.7052  0.4208
    1BTD     N417579   2.640   9.624   8.120 -0.3142 -0.3877  0.0546
    1BTD     C517580   2.764   9.560   8.297 -0.0651 -0.3917 -0.1209
    1BTD     C617581   2.881   9.556   8.380 -0.0363 -0.1931 -0.1521
    1BTD     C717582   3.000   9.636   8.341 -0.3098  0.3035  0.0143
    1BTD     C817583   2.995   9.715   8.221 -0.5987  0.5770  0.2034
    1BTD    C1517584   2.878   9.716   8.143 -0.6162  0.3674  0.2271
    1BTD    C1617585   2.764   9.639   8.180 -0.3525 -0.1111  0.0667
    1BTD    C4317586   2.604   9.631   7.985 -1.0528  0.4026 -0.2287
    1BTD    C4417587   2.563   9.484   7.938 -0.7030  0.1316 -1.0693
    1BTD    C4517588   2.684   9.397   7.905 -0.5158  0.8746 -0.9931
    1BTD    C4617589   2.777   9.446   7.795 -0.1110 -0.7431 -0.6101
    1BTD    C4717590   2.469   9.468   7.820  0.1405 -0.6303 -0.9414
    1BTD    C4817591   2.392   9.353   7.753 -1.4154  0.2749  0.6346
    1BTD    C4917592   2.350   9.269   7.858 -0.9189 -0.1804  0.6778
    1BTD    C5017593   2.353   9.125   7.787 -0.7578 -1.0886  0.3143
    1BTD    C7517594   2.795   9.870   7.964  0.7338 -0.1917 -0.2068
    1BTD    C7617595   2.824   9.919   7.821 -0.0773  0.1630 -1.1876
    1BTD    C7717596   2.712  10.019   7.761 -1.1021  1.1011  0.0436
    1BTD    C7817597   2.737  10.164   7.806  1.1733  0.8226 -1.6643
    1BTD    C7917598   2.860   9.805   7.734 -1.5719  0.3958  0.6254
    1BTD    C8017599   2.894   9.800   7.581  0.7994 -0.9532 -0.9753
    1BTD    C8117600   2.931   9.665   7.526 -0.1685 -1.3461  0.2957
    1BTD    C8217601   3.040   9.704   7.427 -0.0640 -0.9699 -0.2291
    2TTP     S117602   2.535   9.476   8.464 -0.0023 -0.0216  0.0128
    2TTP     S517603   2.279   9.646   8.164  0.4790  0.3097 -0.2122
    2TTP     C117604   2.178   9.602   8.308  0.2261  0.0259 -0.4754
    2TTP     C217605   2.251   9.546   8.409  0.0625 -0.0930 -0.4213
    2TTP     C317606   2.390   9.537   8.377  0.1311  0.0355 -0.1705
    2TTP     C417607   2.637   9.521   8.320  0.2506  0.2618  0.2759
    2TTP    C1717608   2.564   9.576   8.219  0.4141  0.3814  0.2214
    2TTP    C1817609   2.425   9.585   8.251  0.3456  0.2525 -0.0293
    2TTP    C3217610   2.200   9.519   8.549  0.3789  0.0609 -0.6810
    2TTP    C3317611   2.255   9.404   8.647 -1.9293  0.3086  0.7279
    2TTP    C3417612   2.268   9.260   8.604  0.5757 -0.2293  1.9415
    2TTP    C3517613   2.380   9.190   8.675 -0.8299 -1.3364  0.8007
    2TTP    C3617614   2.475   9.122   8.575  0.0090  0.4260  0.5411
    2TTP    C3717615   2.586   9.051   8.634 -0.5593  0.3503  0.7209
    2TTP    C3817616   2.698   9.127   8.687 -0.8849 -0.9490 -0.1925
    2TTP    C3917617   2.835   9.065   8.655 -0.8232  0.4007 -0.8386
    2TTP    C4017618   2.942   9.071   8.766  0.1541 -0.3549  1.1067
    2TTP    C4117619   2.891   9.040   8.908 -0.1546  0.7232  0.8513
    2TTP    C4217620   2.984   8.959   9.001  0.8730 -0.6754  0.4357
    3TTP     S117621   3.271   9.824   8.173 -0.1759  0.0893  0.0942
    3TTP     S517622   3.133   9.982   7.798 -0.5834 -0.1473  0.1422
    3TTP     C117623   3.312  10.014   7.813 -0.5044 -0.4121 -0.2102
    3TTP     C217624   3.365   9.967   7.929 -0.3739 -0.3545 -0.2459
    3TTP     C317625   3.266   9.904   8.012 -0.3316 -0.0994  0.0041
    3TTP     C417626   3.092   9.792   8.159 -0.2549  0.3541  0.4468
    3TTP    C1717627   3.039   9.839   8.042 -0.3854  0.2964  0.4824
    3TTP    C1817628   3.138   9.902   7.960 -0.4277  0.0412  0.2325
    3TTP    C3217629   3.490   9.989   8.002 -0.6421 -0.1923  0.6860
    3TTP    C3317630   3.563   9.889   8.090 -1.0375  0.9128 -0.1904
    3TTP    C3417631   3.581   9.750   8.031 -0.1087 -0.5818  2.0830
    3TTP    C3517632   3.630   9.639   8.117 -0.5253 -0.2536 -0.2215
    3TTP    C3617633   3.683   9.501   8.079  1.0619  0.5611 -0.4752
    3TTP    C3717634   3.596   9.390   8.018  0.7870 -0.9494  0.9331
    3TTP    C3817635   3.450   9.383   8.057 -0.7875 -0.5211  0.5574
    3TTP    C3917636   3.380   9.280   7.983  0.4897  0.4021 -0.1113
    3TTP    C4017637   3.227   9.302   7.995  1.2007  0.4421  1.2152
    3TTP    C4117638   3.133   9.244   7.886  0.8316 -0.2865  0.8464
    3TTP    C4217639   3.120   9.341   7.770  1.5810 -0.3252  1.4719
    4FIC     F117640   1.582   9.868   7.818 -0.0414 -0.0274 -0.1327
    4FIC     F217641   1.402   9.739   7.976  0.1057  0.0832  0.1251
    4FIC     O117642   2.045   9.752   8.073  0.2033  0.1009 -0.5162
    4FIC     N517643   1.473   9.471   8.387  0.4916  0.3333  0.2224
    4FIC     N617644   1.872   9.407   8.554  0.6532  0.4115 -0.1295
    4FIC    C1917645   2.038   9.588   8.315  0.4307  0.2523 -0.4064
    4FIC    C2017646   1.928   9.622   8.245  0.3635  0.2158 -0.3200
    4FIC    C2117647   1.940   9.707   8.121  0.2475  0.1380 -0.3843
    4FIC    C2217648   1.803   9.725   8.070  0.1976  0.1149 -0.2608
    4FIC    C2317649   1.763   9.796   7.957  0.0912  0.0472 -0.2668
    4FIC    C2417650   1.628   9.799   7.928  0.0625  0.0382 -0.1351
    4FIC    C2517651   1.535   9.733   8.010  0.1385  0.0952 -0.0023
    4FIC    C2617652   1.574   9.661   8.123  0.2448  0.1626  0.0041
    4FIC    C2717653   1.711   9.657   8.154  0.2753  0.1729 -0.1280
    4FIC    C2817654   1.784   9.591   8.264  0.3803  0.2370 -0.1588
    4FIC    C2917655   1.729   9.516   8.366  0.4749  0.3037 -0.0577
    4FIC    C3017656   1.589   9.492   8.377  0.4838  0.3200  0.0961
    4FIC    C3117657   1.808   9.457   8.469  0.5724  0.3629 -0.0975
    5FIC     F117658   3.251  10.315   7.058  0.4140 -0.3648 -0.0981
    5FIC     F217659   3.517  10.373   7.064  0.3948 -0.2992  0.1423
    5FIC     O117660   3.180  10.108   7.553 -0.0734  0.0179 -0.0058
    5FIC     N517661   3.849  10.309   7.426  0.0199  0.0672  0.5540
    5FIC     N617662   3.740  10.135   7.811 -0.3571  0.3529  0.5776
    5FIC    C1917663   3.409  10.090   7.735 -0.2650  0.2164  0.2566
    5FIC    C2017664   3.417  10.139   7.610 -0.1415  0.1175  0.2240
    5FIC    C2117665   3.294  10.145   7.522 -0.0488  0.0191  0.0870
    5FIC    C2217666   3.338  10.205   7.394  0.0761 -0.0741  0.0855
    5FIC    C2317667   3.259  10.230   7.282  0.1912 -0.1824 -0.0203
    5FIC    C2417668   3.322  10.287   7.172  0.2970 -0.2564  0.0019
    5FIC    C2517669   3.459  10.317   7.176  0.2868 -0.2223  0.1259
    5FIC    C2617670   3.538  10.292   7.287  0.1721 -0.1149  0.2316
    5FIC    C2717671   3.476  10.234   7.400  0.0641 -0.0384  0.2114
    5FIC    C2817672   3.530  10.195   7.532 -0.0700  0.0806  0.3014
    5FIC    C2917673   3.660  10.209   7.574 -0.1186  0.1445  0.4315
    5FIC    C3017674   3.763  10.264   7.492 -0.0422  0.1018  0.4984
    5FIC    C3117675   3.703  10.168   7.704 -0.2495  0.2589  0.5111
    1BTD     S217676   3.254   9.559   5.526 -0.1141  0.1356  0.0372
    1BTD     N117677   3.219   9.626   5.689 -0.7207 -0.3755  0.1262
    1BTD     N217678   3.134   9.662   5.441  0.4935  0.6955 -0.1565
    1BTD     N317679   2.826   9.995   5.563  0.6361  0.9134 -0.3898
    1BTD     N417680   2.931   9.950   5.869 -0.8602 -0.4060 -0.0415
    1BTD     C517681   3.067   9.796   5.779 -0.7755 -0.3757  0.0343
    1BTD     C617682   3.124   9.717   5.673 -0.4531 -0.1161  0.0130
    1BTD     C717683   3.077   9.738   5.534  0.2267  0.4838 -0.1452
    1BTD     C817684   2.974   9.835   5.509  0.5499  0.7937 -0.2742
    1BTD    C1517685   2.921   9.910   5.616  0.2150  0.5217 -0.2476
    1BTD    C1617686   2.967   9.890   5.749 -0.4398 -0.0559 -0.0951
    1BTD    C4317687   2.914  10.099   5.884  0.6352 -0.1550  0.3243
    1BTD    C4417688   2.821  10.146   5.987 -0.6627 -0.6830 -0.4956
    1BTD    C4517689   2.662  10.138   5.955 -0.4127  1.1705  0.9301
    1BTD    C4617690   2.602  10.013   5.999 -0.5077 -0.2844 -0.0852
    1BTD    C4717691   2.850  10.295   6.028  0.3830  1.4306  0.2769
    1BTD    C4817692   2.838  10.414   5.953  0.6715 -0.2975 -1.0266
    1BTD    C4917693   2.875  10.558   5.999 -0.5028 -0.6762  0.2148
    1BTD    C5017694   2.869  10.668   5.891  1.8125 -0.3115 -1.0191
    1BTD    C7517695   2.732  10.075   5.640 -0.3780 -0.0759 -0.1727
    1BTD    C7617696   2.601  10.124   5.568 -1.1540 -0.1075 -0.3110
    1BTD    C7717697   2.499   9.997   5.527 -0.0810  0.9841 -0.7240
    1BTD    C7817698   2.393   9.943   5.639  0.0272 -0.5516  0.7891
    1BTD    C7917699   2.533  10.249   5.620  0.5115  0.4795  1.0303
    1BTD    C8017700   2.595  10.395   5.590 -0.4004  0.6628 -1.0174
    1BTD    C8117701   2.471  10.495   5.607 -0.3941 -0.6170 -0.0711
    1BTD    C8217702   2.380  10.503   5.723  0.3770 -0.1982 -0.9405
    2TTP     S117703   3.177   9.692   6.042  0.0327 -0.0954 -0.1362
    2TTP     S517704   2.897   9.941   6.254  0.6684  0.5620 -0.0619
    2TTP     C117705   2.997   9.849   6.376  0.4865  0.3268 -0.0883
    2TTP     C217706   3.089   9.767   6.317  0.2793  0.1097 -0.1130
    2TTP     C317707   3.084   9.774   6.174  0.2570  0.1216 -0.1116
    2TTP     C417708   3.077   9.784   5.921  0.2146  0.1400 -0.1098
    2TTP    C1717709   2.985   9.866   5.979  0.4217  0.3567 -0.0851
    2TTP    C1817710   2.990   9.860   6.122  0.4441  0.3452 -0.0863
    2TTP    C3217711   3.178   9.662   6.358  0.2881 -0.7049 -0.7878
    2TTP    C3317712   3.136   9.583   6.481 -1.0610 -0.3755  0.2797
    2TTP    C3417713   3.223   9.444   6.491 -0.2339 -0.8795 -0.8330
    2TTP    C3517714   3.233   9.393   6.636  0.3948  0.6222  0.0537
    2TTP    C3617715   3.124   9.276   6.674 -0.1090  0.0355 -0.2732
    2TTP    C3717716   3.071   9.170   6.583  1.2686 -0.3332 -0.2401
    2TTP    C3817717   2.971   9.078   6.647  0.7711  1.9761 -1.0999
    2TTP    C3917718   2.953   8.954   6.543 -0.2122 -0.1853 -0.5917
    2TTP    C4017719   2.825   8.950   6.475  0.2365 -0.8884  0.7581
    2TTP    C4117720   2.802   9.027   6.345 -0.1412  0.0982 -0.1418
    2TTP    C4217721   2.691   8.986   6.250 -0.7112  0.4073 -0.3712
    3TTP     S117722   2.956   9.856   5.222 -0.1030  0.6006  0.6660
    3TTP     S517723   2.713  10.209   5.261  0.3681  0.9284  0.6360
    3TTP     C117724   2.750  10.183   5.085 -0.1009  0.5685  0.5862
    3TTP     C217725   2.827  10.073   5.062 -0.2740  0.4463  0.5927
    3TTP     C317726   2.860  10.004   5.183 -0.0425  0.6323  0.6371
    3TTP     C417727   2.919   9.881   5.398  0.3660  0.9606  0.7157
    3TTP    C1717728   2.842   9.992   5.421  0.5391  1.0833  0.7093
    3TTP    C1817729   2.809  10.061   5.299  0.3076  0.8967  0.6649
    3TTP    C3217730   2.903  10.023   4.935 -0.7365  0.3334 -0.0759
    3TTP    C3317731   2.868   9.876   4.878 -0.0254 -1.1704 -0.1647
    3TTP    C3417732   2.732   9.848   4.808 -0.4415  0.9393 -0.8688
    3TTP    C3517733   2.789   9.712   4.756  0.1490  1.1496  0.1857
    3TTP    C3617734   2.778   9.682   4.602 -0.3937  0.0370 -0.4284
    3TTP    C3717735   2.831   9.776   4.498 -1.3054 -0.5861 -0.6683
    3TTP    C3817736   2.718   9.840   4.400  0.8197 -0.0776 -1.2014
    3TTP    C3917737   2.718   9.920   4.260  0.5817  1.3186  0.4510
    3TTP    C4017738   2.821  10.015   4.195 -0.1764 -0.4282 -0.4400
    3TTP    C4117739   2.970  10.018   4.247 -0.0560 -0.1262  1.4794
    3TTP    C4217740   2.996  10.044   4.387  1.2998 -0.3885  0.2535
    4FIC     F117741   2.353  10.003   6.849  0.0077 -0.4547  0.2891
    4FIC     F217742   2.516   9.998   7.066  0.1584  0.5424  0.2075
    4FIC     O117743   2.709   9.911   6.451 -0.0290 -0.7684  0.3278
    4FIC     N517744   3.005   9.925   7.096  0.3490  1.7514  0.1181
    4FIC     N617745   3.250   9.855   6.741  0.2900  1.3051  0.1649
    4FIC    C1917746   2.991   9.874   6.518  0.1019  0.0721  0.2638
    4FIC    C2017747   2.895   9.897   6.609  0.1054  0.1123  0.2573
    4FIC    C2117748   2.752   9.915   6.567  0.0355 -0.3374  0.2917
    4FIC    C2217749   2.675   9.938   6.691  0.0590 -0.1633  0.2739
    4FIC    C2317750   2.538   9.960   6.702  0.0140 -0.4456  0.2941
    4FIC    C2417751   2.487   9.980   6.830  0.0490 -0.1983  0.2711
    4FIC    C2517752   2.572   9.978   6.942  0.1266  0.3157  0.2290
    4FIC    C2617753   2.708   9.956   6.931  0.1720  0.5994  0.2089
    4FIC    C2717754   2.762   9.935   6.803  0.1376  0.3557  0.2317
    4FIC    C2817755   2.900   9.910   6.757  0.1690  0.5453  0.2197
    4FIC    C2917756   3.012   9.900   6.837  0.2432  1.0295  0.1812
    4FIC    C3017757   3.008   9.914   6.979  0.3011  1.4250  0.1466
    4FIC    C3117758   3.142   9.875   6.784  0.2685  1.1783  0.1724
    5FIC     F117759   2.440  10.945   4.996  0.1714  0.3734 -0.5300
    5FIC     F217760   2.377  10.875   4.741 -0.6050 -0.2544 -0.1756
    5FIC     O117761   2.686  10.494   5.167  0.7225  0.8054 -0.1760
    5FIC     N517762   2.461  10.454   4.495 -1.3283 -0.8492  0.5863
    5FIC     N617763   2.666  10.115   4.680 -0.7412 -0.3848  0.7917
    5FIC    C1917764   2.712  10.267   4.984  0.1765  0.3589  0.2884
    5FIC    C2017765   2.653  10.383   4.951  0.0682  0.2749  0.1856
    5FIC    C2117766   2.643  10.495   5.050  0.3660  0.5181 -0.0538
    5FIC    C2217767   2.573  10.606   4.982  0.1509  0.3476 -0.1128
    5FIC    C2317768   2.541  10.731   5.035  0.3026  0.4730 -0.3166
    5FIC    C2417769   2.475  10.819   4.951  0.0413  0.2653 -0.3331
    5FIC    C2517770   2.442  10.783   4.819 -0.3585 -0.0580 -0.1502
    5FIC    C2617771   2.474  10.659   4.767 -0.5117 -0.1850  0.0539
    5FIC    C2717772   2.541  10.568   4.850 -0.2519  0.0219  0.0736
    5FIC    C2817773   2.589  10.430   4.825 -0.3186 -0.0358  0.2642
    5FIC    C2917774   2.576  10.358   4.708 -0.6715 -0.3221  0.4734
    5FIC    C3017775   2.513  10.411   4.592 -1.0315 -0.6111  0.5347
    5FIC    C3117776   2.625  10.225   4.694 -0.7078 -0.3550  0.6472
    1BTD     S217777   9.027   4.971   4.147  0.3858  0.3586  0.0202
    1BTD     N117778   9.050   5.148   4.121  0.0386  0.3920 -0.0604
    1BTD     N217779   8.849   4.975   4.123  0.4020 -0.0361 -0.1808
    1BTD     N317780   8.527   5.302   4.026 -0.1922 -0.7800 -0.7370
    1BTD     N417781   8.774   5.515   4.023 -0.6399 -0.2525 -0.5884
    1BTD     C517782   8.903   5.337   4.070 -0.3102  0.0491 -0.3378
    1BTD     C617783   8.930   5.198   4.097 -0.0434  0.1214 -0.2247
    1BTD     C717784   8.817   5.102   4.098  0.1600 -0.1184 -0.2921
    1BTD     C817785   8.684   5.149   4.072  0.0863 -0.4182 -0.4693
    1BTD    C1517786   8.662   5.285   4.047 -0.1773 -0.4785 -0.5754
    1BTD    C1617787   8.770   5.378   4.046 -0.3737 -0.2475 -0.5104
    1BTD    C4317788   8.660   5.599   4.031 -0.4202 -0.1141  0.3126
    1BTD    C4417789   8.627   5.734   3.942 -0.6193  0.7996 -0.2858
    1BTD    C4517790   8.696   5.722   3.798  0.1686  0.7795 -0.4110
    1BTD    C4617791   8.690   5.576   3.724 -0.9452 -0.2262 -0.7594
    1BTD    C4717792   8.594   5.859   4.014  0.7950  0.2558  0.6026
    1BTD    C4817793   8.494   5.931   3.908 -0.4197  0.8816 -1.4337
    1BTD    C4917794   8.435   6.064   3.950 -0.3039 -0.5916 -0.4503
    1BTD    C5017795   8.379   6.134   3.815 -0.3028  0.9988 -1.1406
    1BTD    C7517796   8.458   5.384   3.921 -1.0363 -0.1503  0.9053
    1BTD    C7617797   8.397   5.333   3.773 -0.1697 -0.2636 -0.9224
    1BTD    C7717798   8.311   5.441   3.683 -0.5270  0.6006 -1.3622
    1BTD    C7817799   8.191   5.382   3.611  0.4611  0.0210  0.5488
    1BTD    C7917800   8.516   5.271   3.695 -0.7091  0.4828  0.5248
    1BTD    C8017801   8.489   5.162   3.591 -0.8295 -1.0664 -1.1440
    1BTD    C8117802   8.408   5.044   3.636 -0.4305  0.5425  0.0311
    1BTD    C8217803   8.456   4.941   3.535 -0.8525  0.4543 -1.3473
    2TTP     S117804   9.149   5.502   4.126 -0.0545 -0.1185  0.2802
    2TTP     S517805   8.925   5.860   4.043 -0.1011 -0.0608  0.6531
    2TTP     C117806   9.091   5.908   4.099 -0.1692 -0.0930  0.8865
    2TTP     C217807   9.170   5.800   4.128 -0.1590 -0.1127  0.7851
    2TTP     C317808   9.102   5.676   4.107 -0.0966 -0.1031  0.5194
    2TTP     C417809   8.983   5.455   4.070  0.0141 -0.0863  0.0470
    2TTP    C1717810   8.903   5.562   4.041  0.0036 -0.0666  0.1482
    2TTP    C1817811   8.971   5.686   4.062 -0.0589 -0.0763  0.4140
    2TTP    C3217812   9.327   5.781   4.128 -0.5311 -1.5887  0.7358
    2TTP    C3317813   9.419   5.755   4.253 -0.1231  1.1614  0.1683
    2TTP    C3417814   9.567   5.716   4.243 -0.6014  1.1295  0.1674
    2TTP    C3517815   9.653   5.836   4.275 -0.6843 -0.0286  0.4445
    2TTP    C3617816   9.798   5.814   4.320  0.5639  2.4134  0.6987
    2TTP    C3717817   9.881   5.717   4.243 -0.8149  0.5770 -0.2257
    2TTP    C3817818   9.878   5.750   4.096 -1.0075 -1.3462  0.2894
    2TTP    C3917819   9.954   5.678   3.993 -1.1253  0.7626  0.7564
    2TTP    C4017820  10.107   5.684   3.967 -0.7338  0.0519  0.8474
    2TTP    C4117821  10.161   5.805   3.893  0.5815  0.1517  0.1336
    2TTP    C4217822  10.187   5.924   3.991  0.7937 -0.4473 -0.6058
    3TTP     S117823   8.468   4.927   4.123 -0.5920  0.2929 -0.5178
    3TTP     S517824   8.165   5.231   4.089 -0.3369  0.6390  0.2738
    3TTP     C117825   8.085   5.073   4.132 -0.4882  0.5527 -0.3126
    3TTP     C217826   8.173   4.970   4.145 -0.5760  0.4407 -0.5916
    3TTP     C317827   8.308   5.012   4.121 -0.5269  0.4190 -0.3524
    3TTP     C417828   8.548   5.084   4.080 -0.4404  0.3793  0.0687
    3TTP    C1717829   8.460   5.188   4.067 -0.3531  0.4913  0.3476
    3TTP    C1817830   8.325   5.146   4.091 -0.4022  0.5130  0.1084
    3TTP    C3217831   8.158   4.820   4.182 -1.2224 -1.1197 -0.5759
    3TTP    C3317832   8.070   4.753   4.093 -1.5316 -0.3939  2.5407
    3TTP    C3417833   8.153   4.708   3.954  0.6975 -0.6925 -0.8785
    3TTP    C3517834   8.086   4.702   3.821  1.1428  1.5818 -1.5477
    3TTP    C3617835   8.024   4.832   3.773 -0.3696  1.2389  0.4382
    3TTP    C3717836   7.987   4.793   3.628  0.2062  0.4844 -0.4686
    3TTP    C3817837   7.946   4.913   3.545 -0.5504  0.2220  2.2326
    3TTP    C3917838   7.937   4.892   3.396  0.6906  0.5508  0.3758
    3TTP    C4017839   7.871   5.007   3.329 -1.6290  0.7097  0.8101
    3TTP    C4117840   7.897   5.025   3.178  1.3079 -1.2318 -1.0103
    3TTP    C4217841   7.826   5.154   3.145 -1.0094  1.4311  1.0430
    4FIC     F117842   8.737   6.634   4.272  0.0348  0.1258  0.6056
    4FIC     F217843   8.986   6.737   4.312  0.1130  0.0765  0.2453
    4FIC     O117844   8.856   6.123   4.142 -0.2546  0.1004  0.4392
    4FIC     N517845   9.429   6.519   4.276  0.0203 -0.0124 -0.3912
    4FIC     N617846   9.472   6.099   4.166 -0.2217 -0.0223 -0.4486
    4FIC    C1917847   9.136   6.038   4.133 -0.2821  0.0444  0.0359
    4FIC    C2017848   9.097   6.163   4.165 -0.2127  0.0527  0.0919
    4FIC    C2117849   8.951   6.199   4.167 -0.2029  0.0819  0.3021
    4FIC    C2217850   8.943   6.341   4.204 -0.1206  0.0839  0.3117
    4FIC    C2317851   8.828   6.419   4.219 -0.0842  0.1069  0.4759
    4FIC    C2417852   8.846   6.552   4.255 -0.0054  0.1038  0.4493
    4FIC    C2517853   8.974   6.604   4.276  0.0349  0.0785  0.2635
    4FIC    C2617854   9.089   6.527   4.261 -0.0012  0.0552  0.0989
    4FIC    C2717855   9.073   6.393   4.224 -0.0808  0.0581  0.1231
    4FIC    C2817856   9.173   6.285   4.201 -0.1354  0.0379 -0.0193
    4FIC    C2917857   9.310   6.297   4.211 -0.1183  0.0107 -0.2166
    4FIC    C3017858   9.375   6.419   4.247 -0.0422 -0.0019 -0.3119
    4FIC    C3117859   9.398   6.188   4.186 -0.1755 -0.0073 -0.3431
    5FIC     F117860   7.442   5.413   3.760  0.0311 -0.0781 -0.0752
    5FIC     F217861   7.284   5.306   3.954 -0.0938 -0.3251 -0.3120
    5FIC     O117862   7.926   5.214   3.903  0.0619  0.3345  0.4039
    5FIC     N517863   7.400   5.011   4.334 -0.2517 -0.3860 -0.3108
    5FIC     N617864   7.810   4.877   4.406 -0.2027 -0.0138  0.1113
    5FIC    C1917865   7.946   5.041   4.138 -0.0468  0.2450  0.3480
    5FIC    C2017866   7.830   5.095   4.095 -0.0495  0.1509  0.2366
    5FIC    C2117867   7.828   5.183   3.973  0.0082  0.2052  0.2745
    5FIC    C2217868   7.688   5.225   3.954 -0.0112  0.0752  0.1281
    5FIC    C2317869   7.636   5.307   3.854  0.0260  0.0706  0.1051
    5FIC    C2417870   7.500   5.332   3.856 -0.0029 -0.0655 -0.0442
    5FIC    C2517871   7.419   5.277   3.956 -0.0674 -0.1926 -0.1660
    5FIC    C2617872   7.469   5.195   4.057 -0.1050 -0.1889 -0.1439
    5FIC    C2717873   7.607   5.168   4.056 -0.0763 -0.0520  0.0064
    5FIC    C2817874   7.691   5.087   4.146 -0.1024 -0.0105  0.0684
    5FIC    C2917875   7.649   5.016   4.256 -0.1637 -0.1038 -0.0145
    5FIC    C3017876   7.512   5.014   4.299 -0.2118 -0.2588 -0.1771
    5FIC    C3117877   7.737   4.940   4.338 -0.1847 -0.0538  0.0553
    1BTD     S217878   4.324  11.014   0.891 -0.3160 -0.5704 -0.2128
    1BTD     N117879   4.360  11.126   0.756 -0.1965 -0.5362 -0.1527
    1BTD     N217880   4.224  11.133   0.982 -0.2401 -0.5331 -0.1788
    1BTD     N317881   4.087  11.578   0.924  0.1298 -0.3941 -0.0008
    1BTD     N417882   4.254  11.570   0.644  0.1837 -0.3979  0.0313
    1BTD     C517883   4.303  11.358   0.701  0.0014 -0.4640 -0.0570
    1BTD     C617884   4.299  11.241   0.784 -0.1107 -0.5002 -0.1124
    1BTD     C717885   4.223  11.244   0.911 -0.1353 -0.4985 -0.1270
    1BTD     C817886   4.155  11.365   0.948 -0.0464 -0.4601 -0.0855
    1BTD    C1517887   4.161  11.477   0.864  0.0622 -0.4260 -0.0318
    1BTD    C1617888   4.234  11.474   0.741  0.0856 -0.4277 -0.0177
    1BTD    C4317889   4.179  11.706   0.658  0.1420  1.9166 -0.3994
    1BTD    C4417890   4.113  11.776   0.546  0.2799 -0.0870 -0.2298
    1BTD    C4517891   3.961  11.728   0.513 -1.5157 -1.5631 -0.2354
    1BTD    C4617892   3.840  11.720   0.602 -2.0165 -0.8742  0.3616
    1BTD    C4717893   4.147  11.912   0.593  0.5049 -0.2340  0.5929
    1BTD    C4817894   4.066  12.007   0.681  1.8049  0.7755 -0.4479
    1BTD    C4917895   4.155  12.120   0.694 -0.0587  0.2821  0.6129
    1BTD    C5017896   4.084  12.240   0.750 -0.6826 -1.5078 -0.8732
    1BTD    C7517897   4.135  11.716   0.971 -0.6769 -0.2757  0.8949
    1BTD    C7617898   4.087  11.841   1.053 -0.0686  0.6265 -0.0696
    1BTD    C7717899   3.974  11.939   1.019  0.4909 -0.8074  0.4035
    1BTD    C7817900   3.848  11.949   1.098  1.1907 -0.1194  1.1076
    1BTD    C7917901   4.170  11.853   1.187 -0.0228  0.3046 -0.0910
    1BTD    C8017902   4.148  11.749   1.297  0.4509 -0.8633 -0.3277
    1BTD    C8117903   4.023  11.679   1.320  0.2276 -0.2080 -0.1164
    1BTD    C8217904   4.023  11.529   1.370 -1.3028 -1.4728 -0.2927
    2TTP     S117905   4.476  11.311   0.457  0.0531 -0.5161 -0.1185
    2TTP     S517906   4.396  11.713   0.327 -0.0769 -0.3891  0.3486
    2TTP     C117907   4.499  11.631   0.202 -0.4652 -0.3719  0.0113
    2TTP     C217908   4.530  11.502   0.235 -0.4480 -0.4101 -0.1528
    2TTP     C317909   4.473  11.463   0.360 -0.1274 -0.4543 -0.0181
    2TTP     C417910   4.372  11.393   0.582  0.4414 -0.5334  0.2188
    2TTP    C1717911   4.341  11.522   0.550  0.4241 -0.4952  0.3829
    2TTP    C1817912   4.398  11.560   0.424  0.1036 -0.4509  0.2482
    2TTP    C3217913   4.607  11.383   0.164  0.2516 -1.1359 -0.3311
    2TTP    C3317914   4.745  11.337   0.212  0.2459  0.1600  0.0860
    2TTP    C3417915   4.889  11.391   0.182 -1.1485 -0.4519 -1.1296
    2TTP    C3517916   4.927  11.535   0.215 -0.3704 -0.1665  0.5788
    2TTP    C3617917   4.937  11.603   0.364  0.2584  0.8687 -0.0248
    2TTP    C3717918   4.996  11.742   0.386 -0.3271  1.0922 -0.4764
    2TTP    C3817919   5.070  11.836   0.288 -0.3624  0.0518  1.5905
    2TTP    C3917920   5.226  11.817   0.245  0.0627 -0.8149 -1.1912
    2TTP    C4017921   5.253  11.826   0.110 -0.3950 -0.0094 -0.0611
    2TTP    C4117922   5.398  11.803   0.069 -0.8070  0.1025 -2.0669
    2TTP    C4217923   5.423  11.811  -0.079  0.3916 -0.4678  0.0291
    3TTP     S117924   3.958  11.263   1.108  0.2296 -0.1200  0.2195
    3TTP     S517925   3.735  11.622   1.028 -0.0046 -0.4306 -0.5457
    3TTP     C117926   3.619  11.493   1.084  0.0948 -0.3547 -0.1615
    3TTP     C217927   3.681  11.375   1.112  0.1730 -0.2543  0.0975
    3TTP     C317928   3.822  11.381   1.090  0.1573 -0.2337  0.0017
    3TTP     C417929   4.073  11.391   1.051  0.1302 -0.1960 -0.1648
    3TTP    C1717930   4.011  11.510   1.024  0.0519 -0.2963 -0.4238
    3TTP    C1817931   3.870  11.503   1.046  0.0678 -0.3169 -0.3280
    3TTP    C3217932   3.620  11.229   1.150 -0.2940 -0.3369 -0.2283
    3TTP    C3317933   3.630  11.170   1.287  0.4745  0.5979  1.0838
    3TTP    C3417934   3.514  11.223   1.378 -0.1199  0.4352  1.9405
    3TTP    C3517935   3.566  11.336   1.473  0.4591 -1.1761  1.4295
    3TTP    C3617936   3.456  11.438   1.522 -0.4124 -0.4581  0.7265
    3TTP    C3717937   3.325  11.392   1.607  1.5216 -0.1631  0.9534
    3TTP    C3817938   3.340  11.310   1.748 -1.0205 -0.9456  0.7986
    3TTP    C3917939   3.452  11.375   1.845  0.1130  0.0987  0.5122
    3TTP    C4017940   3.514  11.249   1.911 -0.8617  0.8233  1.7630
    3TTP    C4117941   3.602  11.268   2.028  0.2895 -0.3135 -0.3776
    3TTP    C4217942   3.726  11.176   2.022  0.6870  0.5037 -0.2363
    4FIC     F117943   4.528  12.404  -0.078 -0.8377 -0.2164 -0.2897
    4FIC     F217944   4.658  12.310  -0.298  0.1522  0.0837  0.1585
    4FIC     O117945   4.461  11.946   0.204 -0.7060 -0.3657 -0.4995
    4FIC     N517946   4.798  11.849  -0.413  1.6694  0.4089  0.6528
    4FIC     N617947   4.719  11.511  -0.149  1.5730  0.2318  0.3984
    4FIC    C1917948   4.562  11.694   0.094  0.2868 -0.1319 -0.1461
    4FIC    C2017949   4.573  11.813   0.031  0.2147 -0.1061 -0.1108
    4FIC    C2117950   4.519  11.938   0.094 -0.3071 -0.2321 -0.3011
    4FIC    C2217951   4.548  12.048   0.001 -0.2495 -0.1656 -0.2050
    4FIC    C2317952   4.517  12.183   0.016 -0.6286 -0.2383 -0.3165
    4FIC    C2417953   4.555  12.269  -0.086 -0.4822 -0.1516 -0.1895
    4FIC    C2517954   4.623  12.221  -0.200  0.0277  0.0029  0.0410
    4FIC    C2617955   4.654  12.086  -0.215  0.4079  0.0763  0.1531
    4FIC    C2717956   4.616  11.998  -0.113  0.2673 -0.0096  0.0279
    4FIC    C2817957   4.634  11.851  -0.098  0.5729  0.0331  0.0949
    4FIC    C2917958   4.696  11.767  -0.188  1.0895  0.1746  0.3071
    4FIC    C3017959   4.752  11.813  -0.312  1.4063  0.3030  0.4966
    4FIC    C3117960   4.708  11.627  -0.166  1.3524  0.2053  0.3562
    5FIC     F117961   3.142  12.124   1.232  0.3610 -0.2490  0.6936
    5FIC     F217962   2.930  11.978   1.143  0.4542  0.2500 -0.3789
    5FIC     O117963   3.540  11.759   1.193  0.0551 -0.6026  0.8619
    5FIC     N517964   2.909  11.509   0.988  0.3703  0.7153 -1.8007
    5FIC     N617965   3.263  11.254   0.975  0.1126  0.3384 -1.4531
    5FIC    C1917966   3.479  11.491   1.094  0.0356 -0.2515 -0.1030
    5FIC    C2017967   3.388  11.588   1.108  0.1089 -0.1821 -0.1034
    5FIC    C2117968   3.427  11.724   1.159  0.1140 -0.3736  0.4090
    5FIC    C2217969   3.303  11.805   1.161  0.2021 -0.2355  0.2659
    5FIC    C2317970   3.290  11.938   1.201  0.2371 -0.3330  0.6073
    5FIC    C2417971   3.163  11.993   1.194  0.3221 -0.1653  0.3792
    5FIC    C2517972   3.054  11.918   1.148  0.3701  0.0917 -0.1734
    5FIC    C2617973   3.067  11.786   1.108  0.3355  0.1903 -0.5163
    5FIC    C2717974   3.194  11.728   1.114  0.2494  0.0234 -0.2928
    5FIC    C2817975   3.242  11.591   1.080  0.1941  0.0664 -0.5417
    5FIC    C2917976   3.165  11.488   1.031  0.2176  0.2933 -1.0763
    5FIC    C3017977   3.025  11.500   1.007  0.3016  0.5245 -1.4728
    5FIC    C3117978   3.220  11.360   1.001  0.1597  0.3168 -1.2805
    1BTD     S217979   6.950  10.160   2.305 -0.2495 -0.2596 -0.4161
    1BTD     N117980   7.010  10.002   2.364 -0.3920 -0.2499 -0.2419
    1BTD     N217981   6.804  10.160   2.410 -0.1903  0.0403 -0.3313
    1BTD     N317982   6.615   9.873   2.730 -0.3265  0.6688  0.1555
    1BTD     N417983   6.870   9.678   2.673 -0.5751  0.3114  0.2657
    1BTD     C517984   6.934   9.835   2.526 -0.4846  0.0474  0.0218
    1BTD     C617985   6.923   9.959   2.454 -0.3880 -0.0348 -0.1352
    1BTD     C717986   6.807  10.048   2.480 -0.2753  0.1276 -0.1853
    1BTD     C817987   6.709  10.008   2.577 -0.2644  0.3638 -0.0758
    1BTD    C1517988   6.723   9.886   2.645 -0.3611  0.4370  0.0767
    1BTD    C1617989   6.834   9.800   2.620 -0.4699  0.2801  0.1249
    1BTD    C4317990   6.834   9.589   2.791 -0.9492 -1.3726  1.4614
    1BTD    C4417991   6.942   9.612   2.897 -0.6051 -1.3316  0.5917
    1BTD    C4517992   6.948   9.485   2.976 -0.4844 -0.3097  0.2367
    1BTD    C4617993   7.033   9.479   3.090  0.7103  0.8448 -0.7836
    1BTD    C4717994   6.897   9.744   2.967 -1.7930  0.4168 -0.2256
    1BTD    C4817995   6.890   9.881   2.903 -0.8298  1.7939  1.7534
    1BTD    C4917996   6.857   9.971   3.010  0.3453 -0.8085 -0.3113
    1BTD    C5017997   6.819  10.114   2.951 -0.3080  0.6195 -0.7754
    1BTD    C7517998   6.560   9.739   2.769  0.4699  1.0098 -0.2704
    1BTD    C7617999   6.404   9.710   2.824  0.1715  0.2019 -1.8282
    1BTD    C7718000   6.390   9.550   2.853  0.6296 -0.5419  0.4694
    1BTD    C7818001   6.356   9.462   2.731  0.8576 -0.5036  0.8052
    1BTD    C7918002   6.289   9.797   2.796  0.1411 -0.0536 -0.6671
    1BTD    C8018003   6.152   9.812   2.882 -0.3944  0.2617 -0.3959
    1BTD    C8118004   6.050   9.697   2.871  0.2024 -0.0439 -0.8056
    1BTD    C8218005   5.907   9.758   2.860  1.1048  0.8876 -0.1716
    2TTP     S118006   7.181   9.687   2.436 -0.1329 -0.0076 -0.0480
    2TTP     S518007   7.064   9.347   2.671 -0.2948  0.0920  0.0161
    2TTP     C118008   7.212   9.303   2.576 -0.5086 -0.1052 -0.2297
    2TTP     C218009   7.257   9.405   2.498 -0.4712 -0.1476 -0.2641
    2TTP     C318010   7.176   9.522   2.510 -0.2724 -0.0257 -0.0975
    2TTP     C418011   7.033   9.731   2.532  0.0811  0.1898  0.1978
    2TTP    C1718012   6.987   9.629   2.610  0.0436  0.2319  0.2321
    2TTP    C1818013   7.069   9.512   2.597 -0.1552  0.1104  0.0654
    2TTP    C3218014   7.395   9.417   2.430 -0.4867  1.5329 -0.8056
    2TTP    C3318015   7.488   9.532   2.476  0.5687  0.0442 -0.2686
    2TTP    C3418016   7.519   9.578   2.624  1.0813  0.9445 -0.5209
    2TTP    C3518017   7.614   9.692   2.648  1.1334 -0.5143  0.3084
    2TTP    C3618018   7.650   9.712   2.790  0.0023 -0.0837  0.3121
    2TTP    C3718019   7.561   9.796   2.869 -0.1772 -0.3876  0.1048
    2TTP    C3818020   7.638   9.832   3.003 -0.2407  0.0589  1.7334
    2TTP    C3918021   7.554   9.902   3.088  0.6651 -0.1701  0.2928
    2TTP    C4018022   7.639   9.946   3.220 -0.0223  1.1630 -0.1061
    2TTP    C4118023   7.565   9.989   3.352 -0.1859  0.2667 -0.0234
    2TTP    C4218024   7.483   9.882   3.410  0.6062 -0.0710  0.2776
    3TTP     S118025   6.536  10.233   2.618  0.4697 -0.1277 -0.0434
    3TTP     S518026   6.406  10.048   2.984 -0.2600  0.5553  0.0482
    3TTP     C118027   6.351  10.222   2.984  0.0754  0.6635 -0.2128
    3TTP     C218028   6.388  10.289   2.871  0.3207  0.4592 -0.2565
    3TTP     C318029   6.461  10.206   2.780  0.2524  0.2096 -0.0854
    3TTP     C418030   6.590  10.060   2.618  0.1342 -0.2358  0.2177
    3TTP    C1718031   6.554   9.992   2.731 -0.1110 -0.0314  0.2614
    3TTP    C1818032   6.481  10.075   2.821 -0.0427  0.2182  0.0902
    3TTP    C3218033   6.389  10.438   2.837 -0.4447  0.9678  0.1348
    3TTP    C3318034   6.284  10.518   2.750  0.3842  0.0843 -0.3933
    3TTP    C3418035   6.282  10.668   2.754 -0.2544 -0.0069 -0.7133
    3TTP    C3518036   6.176  10.721   2.656  0.0910  0.2404  0.0189
    3TTP    C3618037   6.019  10.683   2.663 -0.4179  0.0282 -0.3023
    3TTP    C3718038   5.928  10.757   2.763 -1.2459 -0.5932  0.9283
    3TTP    C3818039   5.786  10.792   2.736 -0.8503 -0.3767  0.3515
    3TTP    C3918040   5.693  10.801   2.861  1.5681  1.1956  0.8478
    3TTP    C4018041   5.660  10.937   2.902  0.6445  0.8246  0.7575
    3TTP    C4118042   5.555  11.001   2.817  0.7444  0.5705 -0.6211
    3TTP    C4218043   5.403  10.941   2.830 -0.8766  0.0223  0.7702
    4FIC     F118044   7.330   8.718   3.132  0.1774  0.4055  0.1509
    4FIC     F218045   7.435   8.561   2.936 -0.4669  0.0844  0.0563
    4FIC     O118046   7.216   9.167   2.851  0.3384  0.3755  0.0370
    4FIC     N518047   7.505   8.655   2.455 -1.2790 -0.3996 -0.1611
    4FIC     N618048   7.395   9.037   2.276 -1.0233 -0.3581 -0.2310
    4FIC    C1918049   7.276   9.177   2.565 -0.2204  0.0579 -0.0939
    4FIC    C2018050   7.301   9.070   2.643 -0.2356  0.0777 -0.0616
    4FIC    C2118051   7.267   9.073   2.789  0.0623  0.2451  0.0056
    4FIC    C2218052   7.306   8.941   2.844 -0.0392  0.2234  0.0264
    4FIC    C2318053   7.294   8.897   2.976  0.1525  0.3433  0.0852
    4FIC    C2418054   7.338   8.769   3.004  0.0023  0.2930  0.0939
    4FIC    C2518055   7.393   8.688   2.903 -0.3298  0.1276  0.0450
    4FIC    C2618056   7.405   8.731   2.771 -0.5227  0.0067 -0.0136
    4FIC    C2718057   7.361   8.861   2.741 -0.3749  0.0556 -0.0234
    4FIC    C2818058   7.359   8.937   2.614 -0.5087 -0.0405 -0.0794
    4FIC    C2918059   7.404   8.892   2.491 -0.8253 -0.2072 -0.1367
    4FIC    C3018060   7.460   8.762   2.472 -1.0736 -0.3123 -0.1498
    4FIC    C3118061   7.399   8.972   2.373 -0.9325 -0.2894 -0.1882
    5FIC     F118062   6.523  10.184   3.783  0.4072 -0.2279 -0.0647
    5FIC     F218063   6.292  10.319   3.832  0.9844  0.6590  0.2468
    5FIC     O118064   6.518  10.169   3.241 -0.5724 -0.5672 -0.0517
    5FIC     N518065   5.957  10.504   3.518  1.1163  1.6930  0.7040
    5FIC     N618066   6.000  10.465   3.085  0.2344  1.2491  0.6515
    5FIC    C1918067   6.296  10.293   3.097 -0.3689  0.1599  0.2507
    5FIC    C2018068   6.306  10.292   3.231 -0.1451  0.2105  0.2351
    5FIC    C2118069   6.423  10.226   3.298 -0.2694 -0.1791  0.0756
    5FIC    C2218070   6.403  10.242   3.443  0.0385 -0.0091  0.1011
    5FIC    C2318071   6.486  10.198   3.546  0.0527 -0.2470 -0.0118
    5FIC    C2418072   6.446  10.225   3.676  0.3744 -0.0132  0.0406
    5FIC    C2518073   6.327  10.295   3.701  0.6716  0.4438  0.2012
    5FIC    C2618074   6.244  10.340   3.599  0.6595  0.6831  0.3144
    5FIC    C2718075   6.283  10.313   3.467  0.3359  0.4525  0.2637
    5FIC    C2818076   6.218  10.346   3.338  0.2350  0.6056  0.3524
    5FIC    C2918077   6.100  10.414   3.320  0.4522  1.0321  0.5127
    5FIC    C3018078   6.022  10.463   3.429  0.8167  1.3938  0.6173
    5FIC    C3118079   6.046  10.442   3.191  0.3313  1.1489  0.5881
    1BTD     S218080   1.812   3.736   0.474 -0.9629  0.2718  0.1173
    1BTD     N118081   1.838   3.808   0.636 -0.4888  0.0428  0.1444
    1BTD     N218082   1.837   3.891   0.386 -1.1794  0.3877  0.2569
    1BTD     N318083   1.937   4.335   0.500 -0.7646  0.2100  0.5901
    1BTD     N418084   1.938   4.233   0.810  0.0864 -0.2147  0.4514
    1BTD     C518085   1.890   4.031   0.723 -0.1988 -0.0865  0.3063
    1BTD     C618086   1.863   3.936   0.618 -0.5150  0.0634  0.2505
    1BTD     C718087   1.863   3.983   0.477 -0.9015  0.2565  0.3135
    1BTD     C818088   1.889   4.122   0.449 -0.9526  0.2898  0.4292
    1BTD    C1518089   1.915   4.210   0.555 -0.6347  0.1388  0.4804
    1BTD    C1618090   1.916   4.165   0.691 -0.2622 -0.0472  0.4197
    1BTD    C4318091   2.047   4.330   0.823  0.0385 -0.4391  0.0621
    1BTD    C4418092   2.046   4.431   0.938  1.0736 -0.6341 -1.0198
    1BTD    C4518093   2.173   4.496   0.958 -1.2927 -0.5645  0.2321
    1BTD    C4618094   2.245   4.570   0.843 -0.4899 -0.8576  0.5329
    1BTD    C4718095   1.920   4.513   0.910  0.0931 -1.4492 -0.2562
    1BTD    C4818096   1.840   4.569   1.028 -0.4043 -0.0470 -0.5997
    1BTD    C4918097   1.768   4.692   0.980  0.0515 -0.0797  0.6888
    1BTD    C5018098   1.634   4.734   1.038  0.9018 -0.3201 -1.0902
    1BTD    C7518099   1.911   4.457   0.566  1.1860 -0.4000 -0.4724
    1BTD    C7618100   1.958   4.615   0.521  0.5967  2.0754 -0.4496
    1BTD    C7718101   1.871   4.739   0.577  0.9248  0.3943 -0.0300
    1BTD    C7818102   1.708   4.764   0.570 -0.3595 -1.0680  0.8686
    1BTD    C7918103   2.110   4.624   0.497  0.6455  0.7516  0.0525
    1BTD    C8018104   2.164   4.761   0.501  0.5687  0.3309  0.4256
    1BTD    C8118105   2.237   4.792   0.368  0.4241  0.8187  0.2818
    1BTD    C8218106   2.330   4.669   0.297 -0.1360 -2.1424 -0.4568
    2TTP     S118107   1.879   3.896   0.980 -0.2229  0.4379 -0.1552
    2TTP     S518108   1.840   4.271   1.188  0.5980  0.1256  0.5725
    2TTP     C118109   1.803   4.136   1.304  0.3333 -0.0200  0.3197
    2TTP     C218110   1.812   4.013   1.247  0.0642  0.0679  0.0802
    2TTP     C318111   1.850   4.020   1.109  0.0574  0.2534  0.0875
    2TTP     C418112   1.917   4.031   0.864  0.0418  0.5834  0.0975
    2TTP    C1718113   1.907   4.155   0.921  0.3109  0.4955  0.3371
    2TTP    C1818114   1.870   4.147   1.059  0.3178  0.3102  0.3297
    2TTP    C3218115   1.815   3.866   1.309 -0.8283  0.6283 -0.1009
    2TTP    C3318116   1.680   3.789   1.331  0.1687  0.4175  0.3589
    2TTP    C3418117   1.584   3.771   1.216  0.4754  0.3907  0.3386
    2TTP    C3518118   1.454   3.723   1.271  0.6292  0.2483 -0.4702
    2TTP    C3618119   1.454   3.569   1.317  1.2229 -1.5586  0.3099
    2TTP    C3718120   1.366   3.533   1.430  0.7372  0.6954  1.4443
    2TTP    C3818121   1.337   3.616   1.544 -2.2014 -0.5623 -1.0603
    2TTP    C3918122   1.444   3.704   1.593  0.1873 -1.2908 -0.4790
    2TTP    C4018123   1.532   3.690   1.716  1.3530  0.4825  0.5928
    2TTP    C4118124   1.495   3.780   1.839 -0.6820 -0.0080  0.3209
    2TTP    C4218125   1.612   3.779   1.951  0.5284  1.0183  0.7990
    3TTP     S118126   1.807   4.161   0.182 -0.8173 -0.0845  0.4369
    3TTP     S518127   1.950   4.567   0.193 -0.1408 -0.3084  0.0037
    3TTP     C118128   1.888   4.532   0.025 -0.2763 -0.3584  0.0639
    3TTP     C218129   1.840   4.404   0.012 -0.4932 -0.2922  0.2015
    3TTP     C318130   1.851   4.330   0.134 -0.5601 -0.1996  0.2639
    3TTP     C418131   1.869   4.196   0.349 -0.6817 -0.0347  0.3767
    3TTP    C1718132   1.916   4.324   0.363 -0.4648 -0.1007  0.2394
    3TTP    C1818133   1.906   4.398   0.241 -0.3979 -0.1934  0.1768
    3TTP    C3218134   1.805   4.324  -0.115 -0.0629  0.9048  0.6697
    3TTP    C3318135   1.652   4.308  -0.144  0.7482  0.4131  0.2156
    3TTP    C3418136   1.624   4.212  -0.243  0.8374  0.2175 -0.8193
    3TTP    C3518137   1.464   4.176  -0.252  0.4976  0.5382  0.8406
    3TTP    C3618138   1.381   4.269  -0.335 -1.6101  0.8236 -0.8308
    3TTP    C3718139   1.267   4.195  -0.389  0.9276 -0.0087  1.0733
    3TTP    C3818140   1.139   4.165  -0.303 -0.9390 -0.1834  0.6476
    3TTP    C3918141   1.077   4.048  -0.370  1.7997  1.7523 -0.4419
    3TTP    C4018142   1.096   3.902  -0.350 -0.9318 -0.9338  0.4812
    3TTP    C4118143   1.236   3.856  -0.356 -1.1431 -1.0319 -1.3391
    3TTP    C4218144   1.285   3.742  -0.246  0.1211 -1.1493 -0.3057
    4FIC     F118145   1.642   4.778   1.799  0.3309  0.1982  0.0193
    4FIC     F218146   1.633   4.604   2.008 -0.5222 -0.0304 -0.2036
    4FIC     O118147   1.743   4.439   1.389  0.2960  0.4343 -0.1844
    4FIC     N518148   1.690   4.112   2.016 -1.7736 -0.1906 -0.6692
    4FIC     N618149   1.770   3.883   1.653 -1.6289  0.0401 -0.7834
    4FIC    C1918150   1.769   4.153   1.443 -0.5315  0.2998 -0.4696
    4FIC    C2018151   1.744   4.245   1.538 -0.4893  0.2494 -0.4096
    4FIC    C2118152   1.732   4.390   1.502 -0.0529  0.3244 -0.2625
    4FIC    C2218153   1.705   4.462   1.628 -0.1230  0.2421 -0.2303
    4FIC    C2318154   1.686   4.599   1.646  0.1861  0.2702 -0.1062
    4FIC    C2418155   1.662   4.644   1.775  0.0425  0.1766 -0.1002
    4FIC    C2518156   1.657   4.554   1.882 -0.3972  0.0591 -0.2152
    4FIC    C2618157   1.676   4.417   1.866 -0.7073  0.0303 -0.3392
    4FIC    C2718158   1.700   4.370   1.736 -0.5681  0.1236 -0.3474
    4FIC    C2818159   1.724   4.233   1.684 -0.8107  0.1236 -0.4622
    4FIC    C2918160   1.727   4.117   1.759 -1.2494  0.0255 -0.5922
    4FIC    C3018161   1.706   4.115   1.900 -1.5361 -0.0929 -0.6340
    4FIC    C3118162   1.751   3.989   1.700 -1.4556  0.0341 -0.6966
    5FIC     F118163   2.226   5.259  -0.120  0.1668 -0.7797 -0.2961
    5FIC     F218164   2.062   5.290  -0.335  0.0250 -0.4336 -0.1392
    5FIC     O118165   2.075   4.769   0.054 -0.4885 -0.5940 -0.3350
    5FIC     N518166   1.719   4.986  -0.520 -0.6458  0.1969  0.0587
    5FIC     N618167   1.634   4.597  -0.341 -1.1292  0.2722 -0.0036
    5FIC    C1918168   1.865   4.625  -0.090 -0.8566 -0.1972 -0.1991
    5FIC    C2018169   1.909   4.747  -0.125 -0.6863 -0.2575 -0.1953
    5FIC    C2118170   2.018   4.814  -0.046 -0.5031 -0.4638 -0.2677
    5FIC    C2218171   2.042   4.945  -0.111 -0.3461 -0.4801 -0.2432
    5FIC    C2318172   2.133   5.043  -0.074 -0.1502 -0.6436 -0.2899
    5FIC    C2418173   2.138   5.158  -0.151 -0.0287 -0.6238 -0.2532
    5FIC    C2518174   2.053   5.174  -0.262 -0.1020 -0.4452 -0.1724
    5FIC    C2618175   1.962   5.076  -0.299 -0.2973 -0.2813 -0.1256
    5FIC    C2718176   1.955   4.959  -0.223 -0.4226 -0.2986 -0.1616
    5FIC    C2818177   1.871   4.838  -0.236 -0.6346 -0.1549 -0.1292
    5FIC    C2918178   1.775   4.815  -0.332 -0.7590  0.0370 -0.0517
    5FIC    C3018179   1.744   4.909  -0.435 -0.6963  0.1242  0.0083
    5FIC    C3118180   1.698   4.695  -0.336 -0.9620  0.1653 -0.0255
    1BTD     S218181   3.939   2.479   6.031  0.2534  0.0429  0.0301
    1BTD     N118182   3.806   2.428   5.923  0.0054 -0.1621  0.4257
    1BTD     N218183   4.049   2.344   5.984  0.2941  0.1690 -0.2400
    1BTD     N318184   4.030   1.978   5.691 -0.0710  0.0559 -0.0761
    1BTD     N418185   3.730   2.081   5.615 -0.4266 -0.3521  0.7440
    1BTD     C518186   3.770   2.246   5.763 -0.2159 -0.2564  0.5820
    1BTD     C618187   3.847   2.319   5.860 -0.0324 -0.1278  0.3403
    1BTD     C718188   3.983   2.272   5.894  0.1291  0.0576 -0.0322
    1BTD     C818189   4.035   2.154   5.830  0.0992  0.1050 -0.1445
    1BTD    C1518190   3.956   2.086   5.736 -0.0830 -0.0253  0.1012
    1BTD    C1618191   3.825   2.131   5.703 -0.2386 -0.2039  0.4601
    1BTD    C4318192   3.708   1.942   5.567 -0.6725  0.2792 -0.6557
    1BTD    C4418193   3.631   1.855   5.464 -1.4394  0.4680  0.1622
    1BTD    C4518194   3.657   1.884   5.316  1.0794 -0.3363  0.6897
    1BTD    C4618195   3.702   1.749   5.249 -1.1105 -1.2729  0.8173
    1BTD    C4718196   3.499   1.785   5.515 -1.7107  0.0156  0.0624
    1BTD    C4818197   3.561   1.664   5.562  0.7312  0.0663 -1.1969
    1BTD    C4918198   3.469   1.543   5.595  0.0674  0.4463  0.4228
    1BTD    C5018199   3.382   1.574   5.717 -0.0219  0.3736 -0.3644
    1BTD    C7518200   4.029   1.909   5.563  2.2239 -0.5944 -1.0188
    1BTD    C7618201   4.112   1.970   5.454 -0.5780  0.1781 -1.7980
    1BTD    C7718202   4.090   2.108   5.379  0.0028  0.4964  0.2057
    1BTD    C7818203   4.052   2.238   5.434  0.6792  1.3458 -0.2562
    1BTD    C7918204   4.197   1.866   5.391 -1.4697  0.3911  0.0490
    1BTD    C8018205   4.364   1.894   5.399  1.0075  1.1645  1.4516
    1BTD    C8118206   4.463   1.798   5.319  0.9157 -0.8088  0.7400
    1BTD    C8218207   4.609   1.846   5.327 -0.0605  0.1774 -0.6444
    2TTP     S118208   3.520   2.392   5.680  0.2262 -0.7933  0.4799
    2TTP     S518209   3.444   2.109   5.366  0.2583 -0.3654  0.0842
    2TTP     C118210   3.323   2.244   5.352  0.3832 -0.2484  0.1372
    2TTP     C218211   3.339   2.340   5.449  0.3805 -0.3735  0.2623
    2TTP     C318212   3.448   2.309   5.537  0.2799 -0.5666  0.3213
    2TTP     C418213   3.640   2.257   5.694  0.1014 -0.9104  0.4270
    2TTP    C1718214   3.624   2.161   5.598  0.1040 -0.7852  0.3018
    2TTP    C1818215   3.515   2.192   5.510  0.2046 -0.5923  0.2431
    2TTP    C3218216   3.266   2.477   5.476 -1.1321  0.6139  1.6494
    2TTP    C3318217   3.152   2.472   5.583  0.2383 -2.1733 -1.3471
    2TTP    C3418218   3.036   2.577   5.558 -0.2973 -1.8721 -1.2100
    2TTP    C3518219   2.946   2.563   5.438 -0.1724 -0.2391 -0.8313
    2TTP    C3618220   2.814   2.621   5.477 -0.4163  0.8560 -0.6856
    2TTP    C3718221   2.753   2.579   5.615  0.4203 -0.9531  0.0063
    2TTP    C3818222   2.602   2.627   5.639 -0.5182 -1.5811  0.8005
    2TTP    C3918223   2.541   2.617   5.777  1.4685 -0.1058 -0.8075
    2TTP    C4018224   2.385   2.653   5.790  0.1415  0.0015  1.7164
    2TTP    C4118225   2.363   2.583   5.921  0.3841  0.9231 -0.9044
    2TTP    C4218226   2.227   2.526   5.988 -0.1052 -0.8185 -0.0228
    3TTP     S118227   4.283   2.060   5.972  0.2624  0.0392 -0.4280
    3TTP     S518228   4.230   1.680   5.777 -0.3941  0.1571 -0.4860
    3TTP     C118229   4.365   1.665   5.899 -0.4899 -0.1229 -0.4139
    3TTP     C218230   4.389   1.781   5.966 -0.2928 -0.1758 -0.3916
    3TTP     C318231   4.302   1.887   5.924 -0.0590  0.0029 -0.4309
    3TTP     C418232   4.148   2.075   5.850  0.3581  0.3192 -0.5002
    3TTP    C1718233   4.124   1.959   5.783  0.1611  0.3721 -0.5223
    3TTP    C1818234   4.211   1.854   5.825 -0.0727  0.1934 -0.4832
    3TTP    C3218235   4.503   1.808   6.061 -0.3605 -0.2400 -1.2310
    3TTP    C3318236   4.582   1.947   6.047  1.4203  0.0443  0.4856
    3TTP    C3418237   4.715   1.940   6.114  1.3962  0.4789 -0.0313
    3TTP    C3518238   4.820   1.859   6.046 -0.4738  0.3457  2.0843
    3TTP    C3618239   4.942   1.837   6.126  0.4831 -0.1863  0.9471
    3TTP    C3718240   4.980   1.681   6.101 -1.1775 -0.8924 -0.6724
    3TTP    C3818241   5.109   1.639   6.174  0.3622  0.3602  1.1835
    3TTP    C3918242   5.103   1.559   6.304 -0.3620 -0.6148 -1.0492
    3TTP    C4018243   5.015   1.429   6.328 -1.1652 -1.1645 -0.0199
    3TTP    C4118244   5.119   1.320   6.347 -0.4452  0.0132 -0.1072
    3TTP    C4218245   5.048   1.213   6.422 -0.1067  0.2131  0.2846
    4FIC     F118246   2.954   1.771   4.795  0.6783  0.1498 -0.2536
    4FIC     F218247   2.841   1.995   4.689  0.1302  0.0653  0.1427
    4FIC     O118248   3.226   1.980   5.213  0.5245  0.1314 -0.1442
    4FIC     N518249   2.874   2.466   4.835 -0.7676 -0.0693  0.7901
    4FIC     N618250   3.109   2.585   5.184 -0.7773 -0.0667  0.7956
    4FIC    C1918251   3.215   2.269   5.261 -0.0539  0.0441  0.2732
    4FIC    C2018252   3.151   2.207   5.160  0.0063  0.0520  0.2300
    4FIC    C2118253   3.162   2.058   5.142  0.3091  0.0978  0.0117
    4FIC    C2218254   3.081   2.025   5.023  0.2982  0.0948  0.0199
    4FIC    C2318255   3.060   1.899   4.967  0.5261  0.1288 -0.1444
    4FIC    C2418256   2.979   1.892   4.855  0.4631  0.1179 -0.0984
    4FIC    C2518257   2.921   2.007   4.801  0.1805  0.0743  0.1057
    4FIC    C2618258   2.941   2.133   4.856 -0.0479  0.0403  0.2704
    4FIC    C2718259   3.023   2.143   4.970  0.0116  0.0507  0.2271
    4FIC    C2818260   3.064   2.259   5.051 -0.1791  0.0226  0.3643
    4FIC    C2918261   3.028   2.390   5.031 -0.4713 -0.0220  0.5753
    4FIC    C3018262   2.943   2.432   4.923 -0.6332 -0.0479  0.6927
    4FIC    C3118263   3.073   2.497   5.115 -0.6380 -0.0463  0.6952
    5FIC     F118264   4.346   0.877   5.653  0.2367  0.1837 -0.2527
    5FIC     F218265   4.566   0.830   5.806 -0.5778 -0.0855  0.8667
    5FIC     O118266   4.265   1.404   5.750  0.4426  0.3066 -0.7430
    5FIC     N518267   4.826   1.137   6.094 -1.6017 -0.3852  2.1266
    5FIC     N618268   4.719   1.558   6.139 -1.2766 -0.2349  1.5177
    5FIC    C1918269   4.447   1.545   5.930 -0.2624  0.0930  0.1522
    5FIC    C2018270   4.459   1.415   5.900 -0.2822  0.0726  0.2320
    5FIC    C2118271   4.362   1.349   5.807  0.0936  0.1875 -0.2494
    5FIC    C2218272   4.403   1.208   5.796 -0.0353  0.1307 -0.0182
    5FIC    C2318273   4.343   1.107   5.720  0.2065  0.1985 -0.3046
    5FIC    C2418274   4.400   0.981   5.726  0.0157  0.1231  0.0040
    5FIC    C2518275   4.513   0.957   5.804 -0.4038 -0.0156  0.5805
    5FIC    C2618276   4.574   1.057   5.880 -0.6471 -0.0839  0.8688
    5FIC    C2718277   4.517   1.185   5.876 -0.4596 -0.0093  0.5637
    5FIC    C2818278   4.557   1.311   5.943 -0.6279 -0.0505  0.7403
    5FIC    C2918279   4.663   1.329   6.028 -1.0273 -0.1784  1.2734
    5FIC    C3018280   4.752   1.223   6.064 -1.3418 -0.2916  1.7407
    5FIC    C3118281   4.693   1.455   6.089 -1.1622 -0.2088  1.4049
    1BTD     S218282   4.603   2.416   8.174 -0.4999 -0.1658  0.4705
    1BTD     N118283   4.645   2.589   8.150  0.2518 -0.3440  0.4523
    1BTD     N218284   4.563   2.434   8.348 -0.9665  0.1299  0.3369
    1BTD     N318285   4.559   2.785   8.660 -0.5609  0.4102  0.0308
    1BTD     N418286   4.659   2.975   8.416  0.9404 -0.1737  0.1731
    1BTD     C518287   4.651   2.788   8.292  0.5932 -0.2481  0.3047
    1BTD     C618288   4.628   2.649   8.267  0.1228 -0.1824  0.3521
    1BTD     C718289   4.583   2.562   8.378 -0.5592  0.0829  0.2878
    1BTD     C818290   4.562   2.620   8.508 -0.7366  0.2692  0.1786
    1BTD    C1518291   4.586   2.757   8.528 -0.2598  0.1963  0.1353
    1BTD    C1618292   4.630   2.840   8.421  0.3976 -0.0593  0.1977
    1BTD    C4318293   4.569   3.073   8.480  0.5491 -0.8422  0.6080
    1BTD    C4418294   4.607   3.225   8.487 -0.9598  0.2846 -1.2887
    1BTD    C4518295   4.503   3.349   8.500 -0.9151  0.4037  1.0019
    1BTD    C4618296   4.393   3.347   8.403  0.0413 -0.2696  0.3663
    1BTD    C4718297   4.730   3.248   8.593  0.7279 -0.5051 -0.4808
    1BTD    C4818298   4.822   3.367   8.579  0.0529  0.4687  0.6030
    1BTD    C4918299   4.948   3.370   8.675  1.0771 -0.2076  0.5948
    1BTD    C5018300   5.069   3.428   8.615 -0.3240  0.7594  0.9472
    1BTD    C7518301   4.645   2.865   8.741  0.0179 -0.7152 -0.0408
    1BTD    C7618302   4.804   2.877   8.724 -0.0761  0.3544  0.6752
    1BTD    C7718303   4.898   2.757   8.706  0.2926 -1.4924  0.4187
    1BTD    C7818304   4.879   2.666   8.832  0.1575 -2.1493 -1.5219
    1BTD    C7918305   4.872   2.989   8.819  0.5508  0.0212  0.1971
    1BTD    C8018306   4.835   2.982   8.969 -0.1070  0.0477 -0.6867
    1BTD    C8118307   4.805   3.125   9.031  0.6882  0.1503 -0.4375
    1BTD    C8218308   4.653   3.140   9.065  0.5695 -0.1112  1.5139
    2TTP     S118309   4.809   2.893   8.066 -0.1473 -0.0391  0.5341
    2TTP     S518310   4.901   3.248   8.290 -0.5944  0.8312 -0.6397
    2TTP     C118311   5.010   3.242   8.144 -0.3832  0.3275 -0.4649
    2TTP     C218312   4.988   3.131   8.066 -0.2329  0.0290 -0.0925
    2TTP     C318313   4.884   3.048   8.119 -0.2789  0.1875  0.0689
    2TTP     C418314   4.700   2.899   8.212 -0.3586  0.4646  0.3598
    2TTP    C1718315   4.723   3.009   8.290 -0.5088  0.7631 -0.0133
    2TTP    C1818316   4.826   3.093   8.237 -0.4629  0.6046 -0.1743
    2TTP    C3218317   5.080   3.096   7.952  1.3627 -0.0541 -0.7675
    2TTP    C3318318   5.000   3.121   7.825 -0.6953  0.4419  0.3388
    2TTP    C3418319   5.000   3.033   7.702  0.3814  0.2040 -0.3396
    2TTP    C3518320   4.942   3.103   7.588  0.2070 -0.6220  0.8854
    2TTP    C3618321   5.055   3.125   7.484 -0.2204 -1.1124 -0.4547
    2TTP    C3718322   5.109   3.005   7.408 -0.1512  0.2984  0.8035
    2TTP    C3818323   5.078   3.054   7.265  0.9913 -0.2492  0.2678
    2TTP    C3918324   5.057   2.983   7.134 -0.4459  0.5990 -0.4017
    2TTP    C4018325   5.171   2.892   7.107  0.4379  1.9946 -0.5796
    2TTP    C4118326   5.203   2.848   6.961  0.9989 -0.1654  0.1554
    2TTP    C4218327   5.261   2.715   6.971 -0.4209 -0.3212  0.3688
    3TTP     S118328   4.482   2.402   8.697 -0.7978  0.3368 -1.1940
    3TTP     S518329   4.467   2.692   9.014  0.3492 -0.7598 -0.1113
    3TTP     C118330   4.428   2.528   9.083 -0.5009 -0.8453 -0.7570
    3TTP     C218331   4.430   2.429   8.989 -0.9054 -0.5117 -1.1292
    3TTP     C318332   4.463   2.479   8.859 -0.5581 -0.1765 -0.9184
    3TTP     C418333   4.521   2.566   8.627  0.0525  0.4222 -0.5488
    3TTP    C1718334   4.518   2.665   8.721  0.4567  0.0886 -0.1763
    3TTP    C1818335   4.486   2.615   8.851  0.1097 -0.2465 -0.3872
    3TTP    C3218336   4.428   2.282   9.021 -1.0113  0.0214 -0.6849
    3TTP    C3318337   4.558   2.180   8.995  0.2821 -0.5048 -1.1687
    3TTP    C3418338   4.695   2.250   9.025 -0.5567  1.7828 -0.2462
    3TTP    C3518339   4.791   2.267   8.913 -0.1341 -0.1792  0.0980
    3TTP    C3618340   4.876   2.154   8.939  0.7252 -0.3024  0.6879
    3TTP    C3718341   4.967   2.137   8.819  0.1429  0.4501 -0.5811
    3TTP    C3818342   4.982   1.992   8.788 -1.0949 -0.1659 -0.5842
    3TTP    C3918343   4.883   1.894   8.715 -0.4437 -1.0303 -0.8964
    3TTP    C4018344   4.798   1.919   8.577  0.3325 -0.7465 -0.8844
    3TTP    C4118345   4.837   2.027   8.473 -0.4874 -0.5745 -0.6861
    3TTP    C4218346   4.944   1.971   8.384  1.2623  0.5105 -1.0643
    4FIC     F118347   5.043   4.015   8.355  0.0768  0.0393 -0.1926
    4FIC     F218348   5.304   4.022   8.279  0.4615 -0.3910  1.0331
    4FIC     O118349   4.913   3.505   8.229 -0.3190  0.3935 -1.2367
    4FIC     N518350   5.587   3.669   8.079  0.7323 -0.7573  2.0511
    4FIC     N618351   5.433   3.269   7.995  0.3453 -0.3939  0.9885
    4FIC    C1918352   5.116   3.331   8.111 -0.0921  0.1080 -0.4364
    4FIC    C2018353   5.139   3.459   8.146 -0.0077  0.0358 -0.2217
    4FIC    C2118354   5.029   3.542   8.206 -0.1342  0.1926 -0.6618
    4FIC    C2218355   5.087   3.675   8.232  0.0042  0.0609 -0.2775
    4FIC    C2318356   5.024   3.786   8.287 -0.0435  0.1339 -0.4780
    4FIC    C2418357   5.099   3.902   8.301  0.1132 -0.0216 -0.0266
    4FIC    C2518358   5.234   3.905   8.262  0.3115 -0.2432  0.6043
    4FIC    C2618359   5.298   3.795   8.207  0.3601 -0.3175  0.8078
    4FIC    C2718360   5.223   3.677   8.191  0.2033 -0.1622  0.3579
    4FIC    C2818361   5.260   3.544   8.137  0.2040 -0.1865  0.4172
    4FIC    C2918362   5.383   3.507   8.088  0.3691 -0.3783  0.9606
    4FIC    C3018363   5.495   3.596   8.083  0.5682 -0.5860  1.5583
    4FIC    C3118364   5.410   3.376   8.037  0.3550 -0.3857  0.9727
    5FIC     F118365   4.473   2.935   9.806 -0.3989  0.1579  0.1593
    5FIC     F218366   4.422   2.700   9.934  0.9418 -0.2033  0.0589
    5FIC     O118367   4.463   2.773   9.289 -0.8894  0.6190  0.0217
    5FIC     N518368   4.343   2.248   9.750  2.5197 -0.3940 -0.1829
    5FIC     N618369   4.345   2.169   9.320  1.8663  0.0392 -0.2704
    5FIC    C1918370   4.412   2.492   9.228  0.2173  0.4377 -0.1226
    5FIC    C2018371   4.416   2.542   9.353  0.2884  0.3358 -0.0842
    5FIC    C2118372   4.443   2.687   9.376 -0.3046  0.4395 -0.0103
    5FIC    C2218373   4.441   2.708   9.522 -0.0529  0.2863  0.0162
    5FIC    C2318374   4.461   2.826   9.592 -0.4174  0.3113  0.0820
    5FIC    C2418375   4.454   2.821   9.730 -0.0694  0.1439  0.0949
    5FIC    C2518376   4.428   2.700   9.796  0.6211 -0.0421  0.0432
    5FIC    C2618377   4.408   2.581   9.727  0.9880 -0.0681 -0.0229
    5FIC    C2718378   4.414   2.585   9.587  0.6444  0.0997 -0.0365
    5FIC    C2818379   4.398   2.478   9.486  0.8816  0.1227 -0.1006
    5FIC    C2918380   4.371   2.345   9.510  1.5277 -0.0252 -0.1624
    5FIC    C3018381   4.356   2.292   9.642  2.0710 -0.2275 -0.1733
    5FIC    C3118382   4.357   2.249   9.406  1.7103  0.0111 -0.2213
    1BTD     S218383   0.712  10.633   7.741  0.0756 -0.5184  0.3904
    1BTD     N118384   0.588  10.540   7.650  0.0875 -0.6485  0.5063
    1BTD     N218385   0.599  10.683   7.872 -0.0322 -0.0200  0.1122
    1BTD     N318386   0.146  10.616   7.973 -0.2303  0.7596 -0.2447
    1BTD     N418387   0.132  10.440   7.700 -0.0827 -0.0148  0.2407
    1BTD     C518388   0.351  10.490   7.679 -0.0031 -0.3085  0.3618
    1BTD     C618389   0.475  10.550   7.718  0.0144 -0.3304  0.3405
    1BTD     C718390   0.481  10.630   7.842 -0.0527  0.0212  0.1198
    1BTD     C818391   0.362  10.646   7.922 -0.1338  0.3774 -0.0684
    1BTD    C1518392   0.242  10.585   7.880 -0.1481  0.3859 -0.0396
    1BTD    C1618393   0.237  10.508   7.760 -0.0835  0.0468  0.1729
    1BTD    C4318394   0.013  10.366   7.748 -0.5642  0.6849  0.7223
    1BTD    C4418395   0.036  10.221   7.822 -0.2451 -0.0488  0.5029
    1BTD    C4518396   0.174  10.147   7.803 -0.6109 -0.5047  1.0010
    1BTD    C4618397   0.277  10.209   7.901  0.7513 -0.5691  0.3457
    1BTD    C4718398  -0.091  10.155   7.885 -1.2202 -0.7487  0.7604
    1BTD    C4818399  -0.161  10.030   7.832  0.5622  0.4124 -0.8710
    1BTD    C4918400  -0.144   9.952   7.714  0.0340  0.5800  0.7547
    1BTD    C5018401  -0.253   9.864   7.646  0.1263 -1.3980 -0.7488
    1BTD    C7518402   0.008  10.632   7.950  0.9524 -0.9271  0.0393
    1BTD    C7618403  -0.089  10.756   7.906 -0.5808  1.9822 -0.5462
    1BTD    C7718404  -0.043  10.860   7.805  1.0192  0.1495  0.4601
    1BTD    C7818405  -0.136  10.979   7.784 -0.3162  0.3723 -1.0035
    1BTD    C7918406  -0.227  10.682   7.894 -1.2001 -0.1792  0.3446
    1BTD    C8018407  -0.279  10.617   7.765  0.2395  0.0500 -0.2061
    1BTD    C8118408  -0.441  10.603   7.772 -0.1601 -1.1352 -0.4078
    1BTD    C8218409  -0.474  10.542   7.907  1.4534  0.3275 -0.2915
    2TTP     S118410   0.382  10.288   7.447 -0.0044 -0.2745 -0.3930
    2TTP     S518411  -0.047  10.268   7.415 -0.0877  0.2551  0.3272
    2TTP     C118412   0.026  10.170   7.280 -0.4369 -0.1758  0.4458
    2TTP     C218413   0.163  10.170   7.282 -0.4317 -0.3648  0.2303
    2TTP     C318414   0.215  10.248   7.390 -0.1518 -0.1762 -0.0359
    2TTP     C418415   0.309  10.386   7.582  0.3448  0.1564 -0.5118
    2TTP    C1718416   0.172  10.385   7.580  0.3396  0.3454 -0.2963
    2TTP    C1818417   0.120  10.308   7.472  0.0597  0.1562 -0.0296
    2TTP    C3218418   0.249  10.107   7.172 -1.1368  0.0660 -0.2295
    2TTP    C3318419   0.404  10.063   7.185 -0.4045  0.4504  0.2646
    2TTP    C3418420   0.505  10.173   7.180 -1.3156 -0.1699 -0.4860
    2TTP    C3518421   0.625  10.095   7.124  0.2856  1.4050 -1.4685
    2TTP    C3618422   0.735  10.201   7.088  0.4519 -0.4909 -1.4632
    2TTP    C3718423   0.850  10.182   6.995  0.2269  0.2835  0.1480
    2TTP    C3818424   0.832  10.068   6.895  0.7961  0.6928 -0.3260
    2TTP    C3918425   0.874   9.927   6.929  0.4667  1.0228  0.2439
    2TTP    C4018426   0.902   9.803   6.825  0.1123  0.2730 -0.1389
    2TTP    C4118427   0.945   9.678   6.898  0.0247 -0.4515 -0.5919
    2TTP    C4218428   0.994   9.568   6.807 -0.0614  1.4933  0.1140
    3TTP     S118429   0.410  10.825   8.162  0.2759 -0.3577  0.1081
    3TTP     S518430  -0.001  10.773   8.276 -0.0045  0.0556 -0.6957
    3TTP     C118431   0.077  10.890   8.392 -0.1417  0.0593 -0.6070
    3TTP     C218432   0.208  10.913   8.363 -0.0632 -0.0682 -0.3538
    3TTP     C318433   0.252  10.839   8.249  0.1081 -0.1736 -0.2203
    3TTP     C418434   0.332  10.708   8.046  0.4130 -0.3619  0.0198
    3TTP    C1718435   0.201  10.685   8.075  0.3345 -0.2343 -0.2340
    3TTP    C1818436   0.157  10.759   8.189  0.1632 -0.1292 -0.3674
    3TTP    C3218437   0.303  10.996   8.451  1.4596 -0.0897  0.8902
    3TTP    C3318438   0.411  10.925   8.515  0.0795 -0.3780 -0.6217
    3TTP    C3418439   0.495  10.990   8.618  0.1908 -0.5905 -2.3654
    3TTP    C3518440   0.646  10.941   8.637  0.4729 -1.0356  0.4398
    3TTP    C3618441   0.757  11.019   8.567  0.6169  0.1235  1.1265
    3TTP    C3718442   0.766  11.019   8.405  0.1182 -0.4472  1.2147
    3TTP    C3818443   0.891  10.933   8.375 -0.8427  1.3535  0.4598
    3TTP    C3918444   0.957  10.965   8.246 -0.6791 -0.6704 -0.8295
    3TTP    C4018445   1.083  11.060   8.258 -0.3262 -0.4788 -1.2869
    3TTP    C4118446   1.192  11.033   8.374 -0.4018  0.5873  0.4703
    3TTP    C4218447   1.218  11.174   8.428 -0.4709  0.1147  0.1905
    4FIC     F118448  -0.772  10.096   7.125 -0.0436 -0.1180  0.5455
    4FIC     F218449  -0.709  10.002   6.878 -0.1347 -0.7181  0.7457
    4FIC     O118450  -0.278  10.170   7.335  0.0348  0.5369  0.1349
    4FIC     N518451  -0.267   9.921   6.671 -0.2100 -1.1141  0.7410
    4FIC     N618452   0.106   9.998   6.885 -0.1303 -0.4816  0.3797
    4FIC    C1918453  -0.043  10.107   7.173 -0.0244  0.1961  0.1803
    4FIC    C2018454  -0.170  10.092   7.130 -0.0405  0.0548  0.2759
    4FIC    C2118455  -0.286  10.127   7.219 -0.0079  0.2460  0.2446
    4FIC    C2218456  -0.408  10.099   7.142 -0.0367  0.0203  0.3698
    4FIC    C2318457  -0.540  10.115   7.183 -0.0219  0.0868  0.3905
    4FIC    C2418458  -0.639  10.082   7.092 -0.0559 -0.1665  0.5179
    4FIC    C2518459  -0.607  10.034   6.964 -0.1027 -0.4754  0.6210
    4FIC    C2618460  -0.475  10.017   6.923 -0.1175 -0.5431  0.6011
    4FIC    C2718461  -0.373  10.050   7.013 -0.0839 -0.2902  0.4725
    4FIC    C2818462  -0.226  10.044   7.001 -0.0882 -0.2811  0.4189
    4FIC    C2918463  -0.154  10.002   6.891 -0.1287 -0.5360  0.4886
    4FIC    C3018464  -0.217   9.958   6.770 -0.1733 -0.8528  0.6270
    4FIC    C3118465  -0.011  10.000   6.888 -0.1293 -0.5043  0.4283
    5FIC     F118466  -0.693  10.931   8.676  0.0827 -0.2332  0.0947
    5FIC     F218467  -0.600  11.082   8.882 -0.1769  0.5307 -0.3364
    5FIC     O118468  -0.236  10.840   8.401  0.2234 -0.1204  0.2904
    5FIC     N518469  -0.140  11.233   8.984 -0.4499  1.7090 -0.8161
    5FIC     N618470   0.199  11.131   8.728 -0.2875  1.6434 -0.5765
    5FIC    C1918471   0.016  10.951   8.501  0.0249  0.6496 -0.0517
    5FIC    C2018472  -0.103  10.968   8.562  0.0002  0.5910 -0.0839
    5FIC    C2118473  -0.228  10.908   8.505  0.1073  0.1867  0.0999
    5FIC    C2218474  -0.338  10.946   8.595  0.0465  0.2282  0.0091
    5FIC    C2318475  -0.473  10.913   8.583  0.1068 -0.0665  0.1178
    5FIC    C2418476  -0.559  10.960   8.681  0.0296  0.0435 -0.0025
    5FIC    C2518477  -0.511  11.037   8.788 -0.1044  0.4372 -0.2247
    5FIC    C2618478  -0.376  11.071   8.800 -0.1655  0.7329 -0.3340
    5FIC    C2718479  -0.288  11.024   8.702 -0.0882  0.6273 -0.2148
    5FIC    C2818480  -0.141  11.041   8.686 -0.1223  0.8657 -0.2809
    5FIC    C2918481  -0.058  11.111   8.770 -0.2437  1.2650 -0.4857
    5FIC    C3018482  -0.103  11.178   8.887 -0.3569  1.5080 -0.6669
    5FIC    C3118483   0.083  11.122   8.746 -0.2673  1.4706 -0.5343
    1BTD     S218484  10.756   2.826   0.574 -0.3114  0.5635 -0.3336
    1BTD     N118485  10.848   2.787   0.425 -0.9301  0.5503 -0.7210
    1BTD     N218486  10.680   2.664   0.587  0.2487  0.3506  0.3810
    1BTD     N318487  10.692   2.261   0.346  0.2711 -0.1071  1.1379
    1BTD     N418488  10.900   2.413   0.145 -1.1809  0.1390 -0.2201
    1BTD     C518489  10.873   2.590   0.281 -1.0436  0.3327 -0.4431
    1BTD     C618490  10.819   2.661   0.394 -0.6995  0.3958 -0.3185
    1BTD     C718491  10.725   2.592   0.485 -0.0398  0.2842  0.2983
    1BTD     C818492  10.689   2.455   0.459  0.2427  0.1146  0.7598
    1BTD    C1518493  10.743   2.390   0.347 -0.1117  0.0581  0.6171
    1BTD    C1618494  10.834   2.456   0.259 -0.7473  0.1659  0.0228
    1BTD    C4318495  10.938   2.277   0.100 -0.9879 -0.2050 -0.1516
    1BTD    C4418496  11.033   2.236  -0.014  0.9611  0.3895 -0.7039
    1BTD    C4518497  11.148   2.182   0.064 -2.0618  0.0187 -0.2799
    1BTD    C4618498  11.285   2.266   0.095  1.0355 -0.2646  0.4048
    1BTD    C4718499  10.972   2.118  -0.100  1.5295 -0.4849 -0.7571
    1BTD    C4818500  10.923   2.137  -0.239  0.5331  0.5176  0.3890
    1BTD    C4918501  10.804   2.046  -0.250 -1.7525  2.0202  0.4220
    1BTD    C5018502  10.804   1.950  -0.370  0.0143 -0.4933  1.3953
    1BTD    C7518503  10.668   2.212   0.221 -0.7740  0.1856  0.2551
    1BTD    C7618504  10.535   2.214   0.148  0.1646  0.4142  0.4945
    1BTD    C7718505  10.529   2.127   0.010  0.1706 -0.0996 -0.7369
    1BTD    C7818506  10.515   2.179  -0.117  0.1439 -1.1158  0.3099
    1BTD    C7918507  10.433   2.333   0.156 -0.1466  0.3314 -0.2854
    1BTD    C8018508  10.295   2.307   0.213  0.1777  0.8159  1.1845
    1BTD    C8118509  10.189   2.406   0.184  0.6112  0.3557 -0.0509
    1BTD    C8218510  10.076   2.379   0.280  0.4603 -1.5234  0.9189
    2TTP     S118511  11.006   2.791   0.102  0.3047 -0.4627  0.1262
    2TTP     S518512  10.991   2.488  -0.203 -1.0564 -0.5267  0.2429
    2TTP     C118513  11.026   2.648  -0.282 -0.6711 -0.6578  0.1427
    2TTP     C218514  11.032   2.751  -0.192 -0.2277 -0.6459  0.1009
    2TTP     C318515  11.010   2.707  -0.058 -0.1769 -0.5326  0.1462
    2TTP     C418516  10.971   2.631   0.181 -0.0808 -0.3316  0.2263
    2TTP    C1718517  10.964   2.528   0.092 -0.5241 -0.3436  0.2682
    2TTP    C1818518  10.987   2.572  -0.042 -0.5751 -0.4568  0.2227
    2TTP    C3218519  11.096   2.900  -0.212  0.9089  0.3137  0.2163
    2TTP    C3318520  10.990   3.012  -0.225  0.6092 -0.6333  0.3658
    2TTP    C3418521  10.970   3.121  -0.115  0.1953 -0.3301 -1.2131
    2TTP    C3518522  10.847   3.220  -0.111 -0.3068 -0.3575 -0.5048
    2TTP    C3618523  10.864   3.327  -0.227  0.8383  0.9270  0.9521
    2TTP    C3718524  10.990   3.423  -0.243  0.8737  0.8983 -0.8918
    2TTP    C3818525  11.070   3.501  -0.139 -0.8130  1.0531  0.5370
    2TTP    C3918526  11.180   3.599  -0.183 -0.7149 -0.3557  1.2408
    2TTP    C4018527  11.130   3.747  -0.191 -0.3504  0.5706  0.1351
    2TTP    C4118528  11.237   3.849  -0.258  0.5987 -0.3552 -0.3888
    2TTP    C4218529  11.221   4.000  -0.217  0.8163  0.2449  0.2682
    3TTP     S118530  10.462   2.402   0.632 -0.2661 -0.0231 -0.1116
    3TTP     S518531  10.406   2.031   0.421  0.3045 -0.0916 -0.1466
    3TTP     C118532  10.260   2.061   0.526  0.0425 -0.0851 -0.5062
    3TTP     C218533  10.269   2.177   0.598 -0.1493 -0.0636 -0.5166
    3TTP     C318534  10.391   2.247   0.571 -0.0958 -0.0514 -0.2409
    3TTP     C418535  10.607   2.373   0.526 -0.0041 -0.0296  0.2480
    3TTP    C1718536  10.598   2.257   0.455  0.1875 -0.0511  0.2584
    3TTP    C1818537  10.477   2.187   0.481  0.1342 -0.0632 -0.0173
    3TTP    C3218538  10.175   2.211   0.710 -1.6233 -1.4184 -0.0018
    3TTP    C3318539  10.076   2.329   0.685 -1.3365 -0.3326 -0.5655
    3TTP    C3418540   9.986   2.355   0.798  0.8773  0.0243  0.1572
    3TTP    C3518541   9.881   2.468   0.778  0.9155  1.4739  0.2117
    3TTP    C3618542   9.922   2.609   0.805 -0.1930 -1.0073 -1.6486
    3TTP    C3718543   9.893   2.675   0.945  0.3852  0.2124  0.8389
    3TTP    C3818544   9.974   2.691   1.068 -1.0605  1.0092 -0.9166
    3TTP    C3918545  10.109   2.770   1.041 -0.8383  0.4887 -0.4128
    3TTP    C4018546  10.207   2.746   0.923  0.1236 -0.4226  0.2996
    3TTP    C4118547  10.325   2.678   0.954 -0.8102 -0.0239 -0.5806
    3TTP    C4218548  10.332   2.527   0.987  1.0999 -1.3003  1.6876
    4FIC     F118549  11.000   2.183  -0.946  0.0722 -0.1662 -0.2573
    4FIC     F218550  11.130   2.378  -1.083  0.5980 -0.3571 -0.0355
    4FIC     O118551  10.945   2.417  -0.461 -0.5727 -0.0173 -0.4005
    4FIC     N518552  11.278   2.827  -0.934  0.8941 -0.5256  0.1810
    4FIC     N618553  11.209   2.970  -0.528  0.2840 -0.3709  0.0241
    4FIC    C1918554  11.049   2.687  -0.420 -0.3001 -0.1469 -0.2395
    4FIC    C2018555  11.058   2.621  -0.536 -0.1578 -0.1770 -0.2127
    4FIC    C2118556  11.002   2.482  -0.550 -0.3135 -0.1059 -0.2997
    4FIC    C2218557  11.028   2.439  -0.688 -0.0973 -0.1622 -0.2420
    4FIC    C2318558  10.995   2.318  -0.748 -0.1392 -0.1279 -0.2885
    4FIC    C2418559  11.030   2.300  -0.881  0.0987 -0.1952 -0.2169
    4FIC    C2518560  11.097   2.401  -0.951  0.3691 -0.2935 -0.1029
    4FIC    C2618561  11.131   2.522  -0.892  0.4129 -0.3282 -0.0560
    4FIC    C2718562  11.096   2.542  -0.758  0.1745 -0.2612 -0.1268
    4FIC    C2818563  11.117   2.658  -0.667  0.1478 -0.2742 -0.1044
    4FIC    C2918564  11.179   2.776  -0.699  0.3653 -0.3600 -0.0021
    4FIC    C3018565  11.234   2.804  -0.828  0.6549 -0.4507  0.0982
    4FIC    C3118566  11.195   2.882  -0.605  0.3192 -0.3655  0.0114
    5FIC     F118567   9.875   1.602  -0.039  0.3436 -0.5141  0.2892
    5FIC     F218568   9.684   1.544   0.147  0.0346  0.0625  0.1544
    5FIC     O118569  10.200   1.927   0.247  0.3517 -0.3464  0.0900
    5FIC     N518570   9.641   1.694   0.616 -0.4041  1.0108 -0.1816
    5FIC     N618571   9.934   1.959   0.803 -0.3352  1.0256 -0.3101
    5FIC    C1918572  10.133   1.988   0.526  0.0594  0.2639 -0.1097
    5FIC    C2018573  10.059   1.908   0.447  0.0691  0.1992 -0.0543
    5FIC    C2118574  10.100   1.882   0.305  0.2241 -0.1203  0.0478
    5FIC    C2218575   9.998   1.792   0.247  0.1934 -0.1103  0.0870
    5FIC    C2318576   9.993   1.740   0.118  0.3006 -0.3513  0.1790
    5FIC    C2418577   9.886   1.657   0.087  0.2440 -0.2865  0.1997
    5FIC    C2518578   9.788   1.627   0.183  0.0843  0.0107  0.1300
    5FIC    C2618579   9.792   1.679   0.312 -0.0231  0.2522  0.0381
    5FIC    C2718580   9.899   1.763   0.345  0.0319  0.1910  0.0159
    5FIC    C2818581   9.933   1.834   0.471 -0.0503  0.3931 -0.0737
    5FIC    C2918582   9.861   1.830   0.589 -0.2077  0.7010 -0.1584
    5FIC    C3018583   9.741   1.755   0.603 -0.3150  0.8702 -0.1708
    5FIC    C3118584   9.901   1.901   0.706 -0.2768  0.8778 -0.2414
    1BTD     S218585   6.889   6.040   8.041 -0.0127 -0.4000 -0.6398
    1BTD     N118586   7.018   5.915   8.038  0.0095 -0.3871 -0.2937
    1BTD     N218587   6.755   5.923   8.067 -0.0476 -0.3954 -0.7980
    1BTD     N318588   6.716   5.457   8.114 -0.0782 -0.3628 -0.4961
    1BTD     N418589   7.040   5.448   8.079 -0.0080 -0.3524  0.1256
    1BTD     C518590   7.025   5.671   8.060 -0.0005 -0.3691 -0.0825
    1BTD     C618591   6.958   5.798   8.056 -0.0091 -0.3803 -0.3133
    1BTD     C718592   6.811   5.803   8.072 -0.0410 -0.3852 -0.5953
    1BTD     C818593   6.738   5.680   8.091 -0.0628 -0.3783 -0.6330
    1BTD    C1518594   6.809   5.558   8.094 -0.0533 -0.3672 -0.4012
    1BTD    C1618595   6.950   5.554   8.079 -0.0223 -0.3627 -0.1289
    1BTD    C4318596   7.025   5.310   8.145  0.2967  0.6072 -0.3243
    1BTD    C4418597   6.942   5.288   8.278 -0.3715 -0.3916 -1.4185
    1BTD    C4518598   6.999   5.390   8.385  0.1219 -0.0386  0.6544
    1BTD    C4618599   7.112   5.334   8.448 -1.2205 -0.1291 -0.5512
    1BTD    C4718600   6.904   5.144   8.339 -0.2623  0.7541 -0.0209
    1BTD    C4818601   6.857   5.032   8.237  1.1243 -0.6376 -1.6366
    1BTD    C4918602   6.737   4.984   8.323 -0.3665  0.7604  0.0374
    1BTD    C5018603   6.667   4.861   8.277  1.2897  0.3652  0.4571
    1BTD    C7518604   6.680   5.340   8.035 -1.4615  0.0865  0.2280
    1BTD    C7618605   6.635   5.365   7.890  0.7743  0.0758 -0.7682
    1BTD    C7718606   6.594   5.236   7.818  1.8342  0.6078  0.1897
    1BTD    C7818607   6.674   5.125   7.757 -0.5950 -1.2526 -0.4925
    1BTD    C7918608   6.740   5.428   7.811  0.0328 -0.3791  1.4698
    1BTD    C8018609   6.710   5.491   7.672  0.5603  0.5120  0.1485
    1BTD    C8118610   6.755   5.425   7.545  1.6322  0.5073 -2.2959
    1BTD    C8218611   6.894   5.342   7.532  0.3230  0.2839  0.2311
    2TTP     S118612   7.312   5.716   8.001  0.4598 -0.2068 -0.3032
    2TTP     S518613   7.378   5.291   8.018 -0.3111 -0.3003  0.4854
    2TTP     C118614   7.530   5.371   7.959 -0.2923 -0.7194 -0.0499
    2TTP     C218615   7.519   5.507   7.950 -0.0530 -0.7153 -0.3250
    2TTP     C318616   7.389   5.553   7.990  0.1239 -0.3810 -0.1229
    2TTP     C418617   7.159   5.636   8.060  0.4407  0.2123  0.2320
    2TTP    C1718618   7.171   5.500   8.069  0.2017  0.2081  0.5072
    2TTP    C1818619   7.300   5.454   8.029  0.0247 -0.1262  0.3049
    2TTP    C3218620   7.619   5.613   7.907  0.6957  0.8067  0.8336
    2TTP    C3318621   7.695   5.693   8.016  0.7104  0.3345  0.9833
    2TTP    C3418622   7.805   5.621   8.111 -0.2450 -0.9428  0.5584
    2TTP    C3518623   7.853   5.716   8.221  0.0137  0.2406  0.2984
    2TTP    C3618624   7.991   5.690   8.263 -0.0886 -0.7150 -0.7389
    2TTP    C3718625   8.114   5.697   8.184  0.3154  0.1807 -0.1865
    2TTP    C3818626   8.176   5.820   8.099 -0.2982 -0.5961  0.5550
    2TTP    C3918627   8.178   5.953   8.160 -0.4675  0.6490 -1.3805
    2TTP    C4018628   8.186   6.062   8.067  0.4706  0.1599 -0.5108
    2TTP    C4118629   8.170   6.198   8.129 -0.0061  1.0141  1.5905
    2TTP    C4218630   8.181   6.313   8.032  1.9570  0.3299  0.1883
    3TTP     S118631   6.457   5.736   8.205 -0.3819  0.4654  0.0400
    3TTP     S518632   6.405   5.317   8.285  0.1473  0.3169 -0.3848
    3TTP     C118633   6.263   5.407   8.354  0.0582  0.0734 -0.2484
    3TTP     C218634   6.270   5.541   8.333 -0.1105  0.1049 -0.1090
    3TTP     C318635   6.389   5.578   8.262 -0.1754  0.3225 -0.1054
    3TTP     C418636   6.599   5.646   8.136 -0.2929  0.7088 -0.0963
    3TTP    C1718637   6.591   5.511   8.157 -0.1240  0.6774 -0.2358
    3TTP    C1818638   6.473   5.474   8.228 -0.0592  0.4598 -0.2398
    3TTP    C3218639   6.160   5.638   8.370 -0.5004 -0.8171  0.0322
    3TTP    C3318640   6.143   5.776   8.310  1.2500  0.4102  0.5601
    3TTP    C3418641   6.070   5.887   8.393  0.7845  0.3697 -0.3225
    3TTP    C3518642   6.163   6.003   8.375  0.0143  0.3690  0.0386
    3TTP    C3618643   6.138   6.135   8.443 -0.2519 -0.4229 -0.6335
    3TTP    C3718644   6.291   6.209   8.437 -0.5740  0.3491 -1.2113
    3TTP    C3818645   6.384   6.203   8.320 -0.1356 -0.4996  0.5493
    3TTP    C3918646   6.323   6.259   8.182  0.7917  0.5630  0.5007
    3TTP    C4018647   6.358   6.183   8.055 -0.4686 -0.7657  0.4563
    3TTP    C4118648   6.498   6.259   8.044  0.3531 -0.4250  0.4861
    3TTP    C4218649   6.567   6.222   7.906 -0.6721 -0.2589  0.8352
    4FIC     F118650   7.846   4.637   8.164 -0.4584 -0.1482 -0.2422
    4FIC     F218651   8.091   4.725   8.084 -0.4096 -0.2396 -0.1931
    4FIC     O118652   7.543   5.075   8.067 -0.1823  0.1345  0.1683
    4FIC     N518653   8.228   5.163   7.901 -0.1428 -0.1700  0.1701
    4FIC     N618654   7.942   5.488   7.842  0.0632  0.0691  0.4811
    4FIC    C1918655   7.670   5.315   7.957 -0.0377  0.1472  0.3612
    4FIC    C2018656   7.737   5.201   7.984 -0.1091  0.0796  0.2558
    4FIC    C2118657   7.664   5.082   8.041 -0.1807  0.0777  0.1609
    4FIC    C2218658   7.766   4.977   8.059 -0.2478 -0.0039  0.0589
    4FIC    C2318659   7.746   4.848   8.108 -0.3265 -0.0343 -0.0494
    4FIC    C2418660   7.857   4.765   8.116 -0.3798 -0.1140 -0.1328
    4FIC    C2518661   7.984   4.811   8.075 -0.3543 -0.1611 -0.1074
    4FIC    C2618662   8.004   4.939   8.025 -0.2761 -0.1311  0.0010
    4FIC    C2718663   7.892   5.024   8.017 -0.2214 -0.0507  0.0863
    4FIC    C2818664   7.879   5.164   7.969 -0.1351 -0.0012  0.2083
    4FIC    C2918665   7.981   5.244   7.921 -0.0882 -0.0254  0.2660
    4FIC    C3018666   8.116   5.199   7.910 -0.1185 -0.1049  0.2129
    4FIC    C3118667   7.959   5.378   7.878 -0.0052  0.0267  0.3840
    5FIC     F118668   5.956   4.653   8.472 -0.1805 -0.3848  0.0761
    5FIC     F218669   5.739   4.763   8.595 -0.6874 -0.2532 -0.9177
    5FIC     O118670   6.242   5.097   8.353  0.2078 -0.4970  0.5844
    5FIC     N518671   5.632   5.237   8.686 -1.1396 -0.1444 -1.9841
    5FIC     N618672   5.899   5.562   8.568 -0.7342 -0.2586 -1.3866
    5FIC    C1918673   6.137   5.359   8.428 -0.1386 -0.4115 -0.1842
    5FIC    C2018674   6.074   5.244   8.453 -0.2165 -0.3883 -0.2735
    5FIC    C2118675   6.134   5.112   8.411 -0.0268 -0.4355  0.1411
    5FIC    C2218676   6.040   5.007   8.454 -0.1746 -0.3941 -0.0827
    5FIC    C2318677   6.052   4.870   8.437 -0.0819 -0.4156  0.1552
    5FIC    C2418678   5.950   4.790   8.485 -0.2591 -0.3669 -0.1353
    5FIC    C2518679   5.838   4.847   8.548 -0.5202 -0.2994 -0.6468
    5FIC    C2618680   5.825   4.984   8.565 -0.6139 -0.2776 -0.8867
    5FIC    C2718681   5.928   5.066   8.517 -0.4377 -0.3259 -0.5991
    5FIC    C2818682   5.944   5.214   8.519 -0.4737 -0.3196 -0.7367
    5FIC    C2918683   5.856   5.305   8.572 -0.7020 -0.2613 -1.2040
    5FIC    C3018684   5.733   5.268   8.635 -0.9419 -0.1971 -1.6315
    5FIC    C3118685   5.880   5.446   8.570 -0.7184 -0.2602 -1.3015
    1BTD     S218686   0.370   2.007   9.411  0.0092  0.0229 -0.6205
    1BTD     N118687   0.388   2.086   9.572  0.0067 -0.0101 -0.6044
    1BTD     N218688   0.430   2.150   9.318 -0.1964  0.1202 -0.6051
    1BTD     N318689   0.585   2.581   9.421 -0.6197  0.2589 -0.5434
    1BTD     N418690   0.534   2.502   9.733 -0.3695  0.0983 -0.5431
    1BTD     C518691   0.465   2.304   9.652 -0.1927  0.0484 -0.5724
    1BTD     C618692   0.436   2.208   9.549 -0.1396  0.0499 -0.5891
    1BTD     C718693   0.459   2.243   9.408 -0.2533  0.1228 -0.5891
    1BTD     C818694   0.510   2.374   9.376 -0.4144  0.1907 -0.5727
    1BTD    C1518695   0.537   2.465   9.479 -0.4610  0.1865 -0.5571
    1BTD    C1618696   0.515   2.431   9.616 -0.3515  0.1161 -0.5566
    1BTD    C4318697   0.580   2.641   9.754  0.2691 -0.1538  0.3368
    1BTD    C4418698   0.682   2.697   9.845 -0.1546  0.5647 -0.5478
    1BTD    C4518699   0.826   2.665   9.801  0.5063 -0.6599  0.7656
    1BTD    C4618700   0.902   2.748   9.694  0.0019 -1.3714  0.1557
    1BTD    C4718701   0.649   2.830   9.892 -0.1561 -1.3180 -0.2993
    1BTD    C4818702   0.719   2.892  10.014 -0.6129  0.4126  0.0159
    1BTD    C4918703   0.858   2.951   9.978  0.7062  0.7887 -0.4168
    1BTD    C5018704   0.936   2.984  10.109 -0.4977 -0.2385 -0.0580
    1BTD    C7518705   0.574   2.726   9.451 -0.3129  0.2934  0.8020
    1BTD    C7618706   0.453   2.806   9.487  1.5357 -1.9399  0.1391
    1BTD    C7718707   0.317   2.754   9.454  0.7313 -0.7600  0.3608
    1BTD    C7818708   0.257   2.765   9.312 -0.6578  1.3737  0.9741
    1BTD    C7918709   0.472   2.942   9.432  0.1116 -0.1005 -0.0994
    1BTD    C8018710   0.465   3.030   9.561  0.0446  0.6665  0.3219
    1BTD    C8118711   0.417   3.172   9.523 -1.1955  0.9328 -0.3230
    1BTD    C8218712   0.440   3.222   9.376 -1.4701 -0.8045  1.9603
    2TTP     S118713   0.403   2.180   9.922  0.2841 -0.2909  0.4049
    2TTP     S518714   0.457   2.563  10.109  0.1126  0.0500 -0.2356
    2TTP     C118715   0.395   2.446  10.234 -0.8375  0.4939 -0.2764
    2TTP     C218716   0.374   2.321  10.183 -0.8406  0.4148 -0.0813
    2TTP     C318717   0.407   2.313  10.044 -0.0926  0.0007  0.1082
    2TTP     C418718   0.465   2.297   9.797  1.2342 -0.7347  0.4461
    2TTP    C1718719   0.486   2.422   9.848  1.2373 -0.6557  0.2508
    2TTP    C1818720   0.453   2.430   9.987  0.4893 -0.2416  0.0618
    2TTP    C3218721   0.279   2.218  10.242 -0.4797  0.1415 -0.4550
    2TTP    C3318722   0.257   2.083  10.186 -0.6528  0.6726  0.2313
    2TTP    C3418723   0.222   1.987  10.288  1.0165  0.4020  1.2961
    2TTP    C3518724   0.307   1.885  10.366  0.3283 -0.2911 -0.0515
    2TTP    C3618725   0.202   1.776  10.405 -0.2376 -0.1510 -0.2975
    2TTP    C3718726   0.216   1.696  10.540  1.6093 -0.8802 -1.4065
    2TTP    C3818727   0.172   1.793  10.647  0.0580  0.3021  0.8364
    2TTP    C3918728   0.135   1.680  10.754  2.4108 -0.7652  1.3524
    2TTP    C4018729   0.107   1.771  10.886 -0.2835 -1.3858  1.1881
    2TTP    C4118730   0.016   1.704  10.991  1.0963 -0.5916  0.3306
    2TTP    C4218731  -0.036   1.776  11.117 -1.1707 -1.7738 -0.5633
    3TTP     S118732   0.608   2.377   9.085 -0.2545  0.0384 -0.3391
    3TTP     S518733   0.759   2.773   9.162  0.3453 -0.2993  0.2432
    3TTP     C118734   0.808   2.724   8.994  0.5299 -0.2448  0.2808
    3TTP     C218735   0.765   2.599   8.960  0.3556 -0.1374  0.1035
    3TTP     C318736   0.691   2.537   9.066  0.0699 -0.0941 -0.0689
    3TTP     C418737   0.559   2.427   9.253 -0.4391 -0.0160 -0.3767
    3TTP    C1718738   0.603   2.551   9.287 -0.2648 -0.1236 -0.1991
    3TTP    C1818739   0.677   2.613   9.181  0.0209 -0.1668 -0.0272
    3TTP    C3218740   0.763   2.519   8.832  0.8851 -0.7308 -0.2637
    3TTP    C3318741   0.638   2.557   8.760  0.6855 -0.2492  0.3646
    3TTP    C3418742   0.661   2.547   8.618  0.7917 -0.1964  0.3954
    3TTP    C3518743   0.672   2.687   8.529  1.2807  1.4097 -1.3469
    3TTP    C3618744   0.800   2.762   8.525 -0.5929 -0.2225 -0.2494
    3TTP    C3718745   0.836   2.854   8.407  0.8106 -0.2969 -0.5724
    3TTP    C3818746   0.803   2.825   8.260  0.8633  0.7206 -0.8603
    3TTP    C3918747   0.779   2.936   8.164  1.2548  0.8111  0.1089
    3TTP    C4018748   0.631   2.931   8.117  0.4071 -0.6621  0.2599
    3TTP    C4118749   0.575   2.815   8.026  0.4563  0.6961  0.0002
    3TTP    C4218750   0.430   2.841   7.963 -0.8913 -0.1638 -1.0703
    4FIC     F118751   0.566   3.046  10.787 -0.0420  0.0027  0.0510
    4FIC     F218752   0.437   2.896  10.974 -0.1308  0.0259  0.0083
    4FIC     O118753   0.523   2.727  10.352  0.4172 -0.1813  0.1385
    4FIC     N518754   0.221   2.452  10.932  0.0688 -0.0721  0.0093
    4FIC     N618755   0.213   2.234  10.554  0.4455 -0.2207  0.0865
    4FIC    C1918756   0.385   2.471  10.375  0.4955 -0.2247  0.1288
    4FIC    C2018757   0.401   2.557  10.477  0.3834 -0.1792  0.1085
    4FIC    C2118758   0.473   2.687  10.458  0.3499 -0.1595  0.1152
    4FIC    C2218759   0.472   2.755  10.588  0.2225 -0.1095  0.0887
    4FIC    C2318760   0.527   2.879  10.619  0.1517 -0.0767  0.0839
    4FIC    C2418761   0.514   2.924  10.750  0.0331 -0.0315  0.0566
    4FIC    C2518762   0.448   2.846  10.846 -0.0124 -0.0196  0.0350
    4FIC    C2618763   0.392   2.723  10.815  0.0577 -0.0522  0.0391
    4FIC    C2718764   0.405   2.676  10.684  0.1780 -0.0982  0.0665
    4FIC    C2818765   0.358   2.550  10.620  0.2750 -0.1406  0.0777
    4FIC    C2918766   0.289   2.448  10.680  0.2661 -0.1434  0.0629
    4FIC    C3018767   0.252   2.451  10.818  0.1576 -0.1042  0.0336
    4FIC    C3118768   0.248   2.331  10.610  0.3649 -0.1859  0.0761
    5FIC     F118769   0.601   3.492   8.893  0.0321  0.0759 -0.1161
    5FIC     F218770   0.822   3.525   8.738  0.2982  0.0461  0.2534
    5FIC     O118771   0.636   2.965   9.011 -0.4303 -0.0068 -0.3457
    5FIC     N518772   1.165   3.196   8.598  0.3511 -0.0558  0.6208
    5FIC     N618773   1.147   2.778   8.721 -0.0639 -0.1145  0.3669
    5FIC    C1918774   0.859   2.809   8.904 -0.3404 -0.0648 -0.0746
    5FIC    C2018775   0.842   2.940   8.881 -0.2344 -0.0427 -0.0312
    5FIC    C2118776   0.725   3.014   8.939 -0.2899 -0.0135 -0.1783
    5FIC    C2218777   0.736   3.154   8.894 -0.1451  0.0051 -0.0844
    5FIC    C2318778   0.650   3.260   8.923 -0.1362  0.0342 -0.1638
    5FIC    C2418779   0.682   3.383   8.869  0.0146  0.0473 -0.0467
    5FIC    C2518780   0.796   3.400   8.789  0.1514  0.0319  0.1437
    5FIC    C2618781   0.882   3.295   8.760  0.1434  0.0030  0.2236
    5FIC    C2718782   0.852   3.169   8.814 -0.0082 -0.0107  0.1073
    5FIC    C2818783   0.921   3.038   8.802 -0.0576 -0.0408  0.1476
    5FIC    C2918784   1.037   3.013   8.732  0.0416 -0.0626  0.3183
    5FIC    C3018785   1.107   3.114   8.659  0.2114 -0.0588  0.4840
    5FIC    C3118786   1.097   2.884   8.727 -0.0170 -0.0910  0.3440
    1BTD     S218787   4.362   8.713   0.019  0.0716 -0.2253  0.2526
    1BTD     N118788   4.266   8.663   0.163  0.0801 -0.0730  0.3116
    1BTD     N218789   4.291   8.878   0.011  0.1408 -0.2007  0.1392
    1BTD     N318790   3.975   9.125   0.255  0.2968  0.1240  0.0141
    1BTD     N418791   3.944   8.860   0.442  0.2219  0.2816  0.2263
    1BTD     C518792   4.098   8.769   0.306  0.1550  0.1101  0.2644
    1BTD     C618793   4.190   8.767   0.196  0.1314 -0.0148  0.2465
    1BTD     C718794   4.205   8.887   0.111  0.1653 -0.0863  0.1504
    1BTD     C818795   4.126   9.004   0.141  0.2214 -0.0293  0.0761
    1BTD    C1518796   4.037   9.001   0.250  0.2429  0.0933  0.0970
    1BTD    C1618797   4.023   8.885   0.332  0.2100  0.1619  0.1898
    1BTD    C4318798   3.918   8.956   0.555 -0.2641 -0.1630 -0.4754
    1BTD    C4418799   3.821   8.942   0.665 -0.1638 -0.4485 -0.5976
    1BTD    C4518800   3.678   8.976   0.632  0.2093 -1.9240 -1.7185
    1BTD    C4618801   3.597   8.906   0.529 -0.7051 -0.8699  1.6567
    1BTD    C4718802   3.881   9.036   0.771  0.2084 -0.2073  0.6982
    1BTD    C4818803   4.033   9.029   0.817  0.4990  0.3754  0.1668
    1BTD    C4918804   4.040   8.940   0.933 -1.2844  0.4789 -1.2411
    1BTD    C5018805   4.185   8.945   0.986 -1.3335  0.4849  0.5890
    1BTD    C7518806   3.850   9.163   0.332 -0.1902  0.4121  0.2190
    1BTD    C7618807   3.818   9.301   0.392  0.7139 -0.7484 -0.2318
    1BTD    C7718808   3.901   9.354   0.505 -0.3228  0.7327  0.4734
    1BTD    C7818809   3.837   9.413   0.642 -1.4996 -0.8101 -0.0891
    1BTD    C7918810   3.664   9.298   0.408  0.7175 -0.7202  0.6988
    1BTD    C8018811   3.565   9.412   0.427 -0.2623 -0.2719  0.0041
    1BTD    C8118812   3.541   9.454   0.574 -0.7976 -1.3888  0.1863
    1BTD    C8218813   3.456   9.574   0.579 -1.0153  0.9696  0.7464
    2TTP     S118814   4.153   8.518   0.459  0.0312 -0.0847  0.4195
    2TTP     S518815   3.893   8.669   0.766 -0.0607  0.5243  0.0441
    2TTP     C118816   3.969   8.516   0.825 -0.4297  0.3960  0.1942
    2TTP     C218817   4.054   8.460   0.734 -0.4231  0.2000  0.3190
    2TTP     C318818   4.062   8.536   0.614 -0.1264  0.1447  0.3006
    2TTP     C418819   4.076   8.671   0.399  0.4001  0.0434  0.2694
    2TTP    C1718820   3.991   8.727   0.490  0.3935  0.2395  0.1446
    2TTP    C1818821   3.984   8.651   0.611  0.0968  0.2949  0.1631
    2TTP    C3218822   4.175   8.367   0.742  0.1068  0.7391 -0.5345
    2TTP    C3318823   4.290   8.435   0.804 -0.3168 -0.6828  0.0141
    2TTP    C3418824   4.351   8.352   0.908 -1.6806 -2.4300 -0.7137
    2TTP    C3518825   4.409   8.419   1.034 -0.2285  1.6045  0.1897
    2TTP    C3618826   4.512   8.352   1.123 -0.5422  1.6665  0.0096
    2TTP    C3718827   4.648   8.303   1.074  1.3724 -0.2882  1.2648
    2TTP    C3818828   4.685   8.147   1.104  1.2573  0.4882 -0.2852
    2TTP    C3918829   4.722   8.046   1.000 -0.5830 -0.5761  0.1194
    2TTP    C4018830   4.838   7.954   1.056 -0.2733  0.6603  0.6668
    2TTP    C4118831   4.861   7.813   0.995  0.0879  0.7461 -1.1119
    2TTP    C4218832   4.753   7.731   1.066  1.2031  0.0403  0.5042
    3TTP     S118833   4.195   9.224  -0.053  0.4426  0.3344  0.1470
    3TTP     S518834   3.927   9.488   0.156 -0.0239 -0.1836  0.2105
    3TTP     C118835   4.001   9.579   0.017  0.2855  0.1633  0.5934
    3TTP     C218836   4.088   9.502  -0.056  0.4476  0.3440  0.5963
    3TTP     C318837   4.099   9.370  -0.004  0.3338  0.2146  0.2964
    3TTP     C418838   4.121   9.133   0.087  0.1332 -0.0124 -0.2358
    3TTP    C1718839   4.034   9.210   0.160 -0.0289 -0.1932 -0.2387
    3TTP    C1818840   4.023   9.342   0.108  0.0851 -0.0637  0.0613
    3TTP    C3218841   4.183   9.554  -0.171 -0.5823 -0.7719 -0.2361
    3TTP    C3318842   4.235   9.439  -0.255 -1.2959 -1.0525 -0.4844
    3TTP    C3418843   4.315   9.484  -0.390  0.5346  1.2193 -0.0644
    3TTP    C3518844   4.461   9.511  -0.346  0.5471 -0.3993  0.6244
    3TTP    C3618845   4.515   9.626  -0.420  0.4298 -0.3357  2.1100
    3TTP    C3718846   4.651   9.661  -0.349 -0.8091 -0.4317  1.3603
    3TTP    C3818847   4.680   9.710  -0.199  0.1767  0.0821  0.6027
    3TTP    C3918848   4.805   9.661  -0.120  0.6034  0.6683 -0.0045
    3TTP    C4018849   4.926   9.594  -0.183  1.1145 -1.6375  0.8326
    3TTP    C4118850   4.987   9.517  -0.076 -0.4569  0.6491 -1.5753
    3TTP    C4218851   5.118   9.456  -0.127 -0.9572 -0.4324  0.5354
    4FIC     F118852   3.419   8.651   1.413  0.8229  0.3188  0.1574
    4FIC     F218853   3.513   8.433   1.546  0.4945  0.0584 -0.0350
    4FIC     O118854   3.735   8.645   0.973  0.6886  0.1183  0.0627
    4FIC     N518855   3.873   8.116   1.425 -0.0735 -0.4585 -0.3791
    4FIC     N618856   4.101   8.155   1.055 -0.1123 -0.5629 -0.4143
    4FIC    C1918857   3.937   8.435   0.945  0.3270 -0.2018 -0.1547
    4FIC    C2018858   3.854   8.445   1.050  0.3737 -0.1409 -0.1234
    4FIC    C2118859   3.752   8.556   1.058  0.5624  0.0243 -0.0102
    4FIC    C2218860   3.679   8.537   1.184  0.5667  0.0522 -0.0034
    4FIC    C2318861   3.576   8.615   1.235  0.7126  0.1891  0.0856
    4FIC    C2418862   3.521   8.578   1.357  0.6844  0.1876  0.0727
    4FIC    C2518863   3.570   8.465   1.426  0.5150  0.0534 -0.0266
    4FIC    C2618864   3.673   8.387   1.376  0.3689 -0.0830 -0.1157
    4FIC    C2718865   3.729   8.423   1.252  0.3949 -0.0844 -0.1042
    4FIC    C2818866   3.838   8.362   1.172  0.2695 -0.2086 -0.1818
    4FIC    C2918867   3.911   8.251   1.206  0.0910 -0.3574 -0.2877
    4FIC    C3018868   3.890   8.177   1.326  0.0012 -0.4127 -0.3376
    4FIC    C3118869   4.015   8.199   1.122 -0.0197 -0.4692 -0.3567
    5FIC     F118870   3.733  10.240   0.427 -0.0014  0.0358 -0.2880
    5FIC     F218871   3.813  10.392   0.216  0.5314 -0.0248 -0.1316
    5FIC     O118872   3.869   9.745   0.256 -0.4310 -0.1159 -0.1948
    5FIC     N518873   4.026  10.257  -0.210  0.9913 -0.2198  0.1593
    5FIC     N618874   4.117   9.840  -0.301  0.5484 -0.3259  0.2003
    5FIC    C1918875   3.994   9.714  -0.007 -0.0744 -0.2278 -0.0125
    5FIC    C2018876   3.957   9.833   0.044  0.0129 -0.1872 -0.0420
    5FIC    C2118877   3.893   9.841   0.180 -0.1829 -0.1309 -0.1369
    5FIC    C2218878   3.865   9.983   0.205 -0.0219 -0.0970 -0.1466
    5FIC    C2318879   3.806  10.040   0.318 -0.1146 -0.0417 -0.2227
    5FIC    C2418880   3.790  10.178   0.319  0.0762 -0.0186 -0.2153
    5FIC    C2518881   3.832  10.256   0.210  0.3506 -0.0500 -0.1349
    5FIC    C2618882   3.890  10.200   0.097  0.4445 -0.1049 -0.0589
    5FIC    C2718883   3.908  10.061   0.094  0.2543 -0.1290 -0.0648
    5FIC    C2818884   3.966   9.971  -0.009  0.2866 -0.1857  0.0026
    5FIC    C2918885   4.018  10.010  -0.130  0.5248 -0.2289  0.0899
    5FIC    C3018886   4.022  10.146  -0.173  0.7807 -0.2236  0.1278
    5FIC    C3118887   4.072   9.916  -0.224  0.5364 -0.2820  0.1502
    1BTD     S218888   5.744   4.719   4.652 -0.1498 -0.0171 -0.0944
    1BTD     N118889   5.890   4.637   4.717  0.0007 -0.1258 -0.5641
    1BTD     N218890   5.810   4.885   4.670 -0.2851 -0.0186  0.4479
    1BTD     N318891   6.211   5.075   4.825 -0.2887 -0.2176  0.7038
    1BTD     N418892   6.309   4.769   4.882  0.0634 -0.3493 -0.5430
    1BTD     C518893   6.107   4.710   4.802  0.0293 -0.2408 -0.5380
    1BTD     C618894   5.977   4.733   4.747 -0.0547 -0.1558 -0.3061
    1BTD     C718895   5.932   4.871   4.721 -0.2147 -0.0960  0.2604
    1BTD     C818896   6.021   4.980   4.751 -0.2828 -0.1241  0.5665
    1BTD    C1518897   6.148   4.953   4.805 -0.1962 -0.2078  0.3225
    1BTD    C1618898   6.191   4.820   4.830 -0.0421 -0.2656 -0.2230
    1BTD    C4318899   6.439   4.820   4.882 -1.2489 -0.7266 -0.0980
    1BTD    C4418900   6.541   4.825   4.995 -0.3149 -1.2308 -1.3345
    1BTD    C4518901   6.513   4.868   5.152 -0.0515 -1.0222  1.3188
    1BTD    C4618902   6.385   4.810   5.212 -0.5133  0.5065 -0.9997
    1BTD    C4718903   6.667   4.884   4.945 -1.1586  0.1938 -0.0255
    1BTD    C4818904   6.800   4.876   5.041 -0.8294 -1.1400  0.7812
    1BTD    C4918905   6.860   4.747   5.032  0.3241  0.3289  0.3417
    1BTD    C5018906   6.995   4.727   5.085  0.3684  0.0581  1.2412
    1BTD    C7518907   6.293   5.089   4.950  0.4747  0.4111  0.8875
    1BTD    C7618908   6.395   5.194   4.967 -1.7809  0.9466 -0.8628
    1BTD    C7718909   6.525   5.195   4.881 -1.1323 -0.2584  1.0514
    1BTD    C7818910   6.500   5.223   4.729 -0.8575 -0.2269 -0.2799
    1BTD    C7918911   6.446   5.238   5.114 -0.0254  1.1529  0.3051
    1BTD    C8018912   6.337   5.316   5.198 -0.0454 -0.2262 -1.2421
    1BTD    C8118913   6.379   5.375   5.330 -1.0086  0.4293  0.5011
    1BTD    C8218914   6.519   5.350   5.371  0.1494 -0.3721 -0.4498
    2TTP     S118915   6.126   4.420   4.875  0.2189  0.3661  0.3948
    2TTP     S518916   6.520   4.499   5.029 -0.2334  0.0710  1.7313
    2TTP     C118917   6.484   4.322   5.052 -0.3230  0.0361  1.3248
    2TTP     C218918   6.360   4.287   5.005 -0.1886  0.1252  0.8881
    2TTP     C318919   6.289   4.399   4.951 -0.0100  0.2242  0.8585
    2TTP     C418920   6.163   4.597   4.853  0.3085  0.4010  0.8010
    2TTP    C1718921   6.287   4.632   4.899  0.1742  0.3120  1.2379
    2TTP    C1818922   6.357   4.520   4.954 -0.0044  0.2129  1.2672
    2TTP    C3218923   6.275   4.147   5.038 -1.2669 -0.7715  1.6781
    2TTP    C3318924   6.129   4.154   5.080 -0.5556 -0.8321  0.2255
    2TTP    C3418925   6.138   4.208   5.222 -0.8823  0.0381  0.5921
    2TTP    C3518926   6.017   4.205   5.304 -0.7514 -0.0367 -0.3443
    2TTP    C3618927   5.889   4.246   5.222 -0.4234  0.8029 -0.8700
    2TTP    C3718928   5.775   4.240   5.315  0.4423  0.1405  0.8660
    2TTP    C3818929   5.645   4.299   5.254  1.2091 -0.4492 -0.1330
    2TTP    C3918930   5.629   4.448   5.314 -1.0705  1.0118 -0.0635
    2TTP    C4018931   5.514   4.528   5.285 -1.7494  0.2309  1.6123
    2TTP    C4118932   5.505   4.557   5.132 -0.8589 -0.7632  0.4787
    2TTP    C4218933   5.372   4.629   5.076 -0.0019 -0.5167 -1.2094
    3TTP     S118934   5.886   5.249   4.697 -0.0171 -0.3085 -0.0334
    3TTP     S518935   6.248   5.443   4.824 -0.3942  0.4003 -0.0343
    3TTP     C118936   6.129   5.571   4.771 -0.6765  0.1747  0.0506
    3TTP     C218937   6.011   5.518   4.729 -0.5765 -0.0575  0.0558
    3TTP     C318938   6.009   5.375   4.737 -0.2736 -0.0656 -0.0069
    3TTP     C418939   6.005   5.122   4.750  0.2652 -0.0831 -0.1185
    3TTP    C1718940   6.124   5.174   4.793  0.1654  0.1491 -0.1235
    3TTP    C1818941   6.125   5.317   4.785 -0.1377  0.1574 -0.0608
    3TTP    C3218942   5.907   5.598   4.656 -0.0656  0.1028 -0.2750
    3TTP    C3318943   5.806   5.662   4.766 -1.2996  0.7855  0.8679
    3TTP    C3418944   5.730   5.777   4.692  1.3375  2.1569 -0.4280
    3TTP    C3518945   5.593   5.814   4.753  0.0485  0.8183  1.0221
    3TTP    C3618946   5.586   5.876   4.890  1.2541  0.3237 -0.1885
    3TTP    C3718947   5.454   5.938   4.904  1.1392 -0.2522  0.6704
    3TTP    C3818948   5.397   5.904   5.047 -1.5063  0.0053  1.4606
    3TTP    C3918949   5.477   5.970   5.162  1.3200 -0.1172 -0.4382
    3TTP    C4018950   5.426   5.995   5.308  0.7463 -0.0576 -0.2801
    3TTP    C4118951   5.514   6.075   5.419  1.4259  1.5503  0.0921
    3TTP    C4218952   5.569   6.208   5.375 -1.2895  0.8470  0.2718
    4FIC     F118953   7.242   4.352   5.361  0.1373  0.0463 -0.4563
    4FIC     F218954   7.248   4.080   5.348 -0.3891 -0.0123  0.3619
    4FIC     O118955   6.745   4.452   5.170  0.2637  0.4251 -0.5887
    4FIC     N518956   6.903   3.760   5.193 -1.0556  0.1738  1.4439
    4FIC     N618957   6.514   3.893   5.047 -0.8509  0.4817  1.1758
    4FIC    C1918958   6.575   4.228   5.090 -0.1944  0.5039  0.1462
    4FIC    C2018959   6.700   4.213   5.138 -0.2055  0.4108  0.1473
    4FIC    C2118960   6.781   4.333   5.178  0.0384  0.3756 -0.2429
    4FIC    C2218961   6.911   4.282   5.226 -0.0433  0.2720 -0.1327
    4FIC    C2318962   7.019   4.356   5.273  0.1148  0.2083 -0.3923
    4FIC    C2418963   7.131   4.285   5.313 -0.0069  0.1131 -0.2175
    4FIC    C2518964   7.134   4.145   5.306 -0.2782  0.0831  0.2041
    4FIC    C2618965   7.027   4.071   5.260 -0.4370  0.1463  0.4650
    4FIC    C2718966   6.912   4.140   5.218 -0.3171  0.2429  0.2936
    4FIC    C2818967   6.782   4.093   5.164 -0.4278  0.3271  0.4827
    4FIC    C2918968   6.746   3.962   5.143 -0.6868  0.3273  0.8901
    4FIC    C3018969   6.833   3.851   5.170 -0.8888  0.2428  1.1934
    4FIC    C3118970   6.619   3.925   5.090 -0.7756  0.4123  1.0449
    5FIC     F118971   6.610   6.035   5.250  0.0007  0.0695  0.2128
    5FIC     F218972   6.550   6.250   5.095  0.1590  0.0789  0.1644
    5FIC     O118973   6.322   5.647   5.004 -0.2775  0.2233  0.2948
    5FIC     N518974   6.258   6.283   4.696  0.1881  0.2019  0.1532
    5FIC     N618975   6.045   5.937   4.536 -0.0613  0.3200  0.2269
    5FIC    C1918976   6.163   5.715   4.769 -0.2252  0.2867  0.2776
    5FIC    C2018977   6.237   5.804   4.837 -0.1614  0.2476  0.2590
    5FIC    C2118978   6.317   5.762   4.957 -0.1938  0.2167  0.2694
    5FIC    C2218979   6.386   5.882   5.006 -0.1069  0.1776  0.2435
    5FIC    C2318980   6.471   5.893   5.116 -0.1009  0.1401  0.2424
    5FIC    C2418981   6.525   6.018   5.143 -0.0105  0.1075  0.2153
    5FIC    C2518982   6.494   6.128   5.063  0.0709  0.1124  0.1906
    5FIC    C2618983   6.408   6.119   4.954  0.0654  0.1497  0.1915
    5FIC    C2718984   6.353   5.993   4.924 -0.0255  0.1832  0.2186
    5FIC    C2818985   6.261   5.949   4.817 -0.0557  0.2264  0.2271
    5FIC    C2918986   6.207   6.029   4.718  0.0030  0.2434  0.2089
    5FIC    C3018987   6.235   6.168   4.706  0.1045  0.2205  0.1782
    5FIC    C3118988   6.118   5.978   4.618 -0.0327  0.2854  0.2189
    1BTD     S218989   1.440   8.869  10.773 -0.1344 -0.2111 -0.0908
    1BTD     N118990   1.382   8.699  10.765  0.0606 -0.2928  0.1733
    1BTD     N218991   1.290   8.933  10.849 -0.2985 -0.2224 -0.4046
    1BTD     N318992   0.878   8.756  10.988 -0.2806 -0.3927 -0.5667
    1BTD     N418993   0.990   8.468  10.885  0.1619 -0.4792  0.1452
    1BTD     C518994   1.176   8.582  10.829  0.1082 -0.3891  0.1500
    1BTD     C618995   1.259   8.699  10.816 -0.0033 -0.3223  0.0222
    1BTD     C718996   1.208   8.829  10.863 -0.2043 -0.2830 -0.3014
    1BTD     C818997   1.076   8.837  10.920 -0.2838 -0.3126 -0.4804
    1BTD    C1518998   0.998   8.720  10.930 -0.1693 -0.3777 -0.3457
    1BTD    C1618999   1.048   8.594  10.885  0.0243 -0.4155 -0.0337
    1BTD    C4319000   0.852   8.427  10.923 -0.5819 -0.5480  0.7938
    1BTD    C4419001   0.815   8.322  11.030  0.7084 -0.5298 -0.3142
    1BTD    C4519002   0.661   8.279  11.010 -0.8566 -0.6391 -0.8700
    1BTD    C4619003   0.597   8.272  10.872  0.2624  2.3956  0.1927
    1BTD    C4719004   0.849   8.344  11.175 -0.8127 -0.1709 -0.7097
    1BTD    C4819005   0.994   8.381  11.205 -0.1977  0.4666  0.2828
    1BTD    C4919006   1.040   8.358  11.338  1.1844  0.2866  0.1069
    1BTD    C5019007   1.182   8.394  11.336 -0.4833 -0.7577 -0.2421
    1BTD    C7519008   0.741   8.712  10.943  0.0260 -0.9186  0.1671
    1BTD    C7619009   0.647   8.780  10.836 -0.0788  0.3545 -0.3663
    1BTD    C7719010   0.511   8.689  10.806  0.8700  0.9238 -1.2440
    1BTD    C7819011   0.397   8.744  10.731  0.2431 -1.3120  0.5963
    1BTD    C7919012   0.713   8.828  10.705  0.2080 -0.2251  1.2987
    1BTD    C8019013   0.755   8.760  10.570  1.9970  0.3361 -0.7091
    1BTD    C8119014   0.788   8.829  10.440  1.4811  0.1516  0.3425
    1BTD    C8219015   0.906   8.924  10.431  0.9323 -0.4230 -0.1637
    2TTP     S119016   1.296   8.359  10.664 -0.3609 -0.0485 -0.5674
    2TTP     S519017   0.987   8.100  10.813 -0.2020  0.0827 -0.0043
    2TTP     C119018   1.094   8.005  10.701 -0.2599 -0.0448  0.0482
    2TTP     C219019   1.195   8.079  10.648 -0.3123 -0.0927 -0.1223
    2TTP     C319020   1.193   8.214  10.695 -0.3087 -0.0308 -0.3009
    2TTP     C419021   1.189   8.455  10.777 -0.3030  0.0792 -0.6201
    2TTP    C1719022   1.087   8.380  10.830 -0.2506  0.1271 -0.4493
    2TTP    C1819023   1.090   8.245  10.783 -0.2542  0.0648 -0.2708
    2TTP    C3219024   1.297   8.035  10.541  0.7950 -0.4837  1.4457
    2TTP    C3319025   1.277   7.990  10.393 -1.0306  0.0188 -0.0260
    2TTP    C3419026   1.145   7.971  10.324  1.9883 -0.0815 -0.6498
    2TTP    C3519027   1.104   7.865  10.224 -0.4547 -0.2313 -1.2517
    2TTP    C3619028   1.167   7.805  10.113  0.1236 -0.2985 -1.8672
    2TTP    C3719029   1.088   7.827   9.995  0.9027  0.1208 -1.4771
    2TTP    C3819030   1.071   7.710   9.900  0.1394 -0.6991 -0.1975
    2TTP    C3919031   1.201   7.620   9.861  0.3288 -1.2615 -0.1724
    2TTP    C4019032   1.329   7.694   9.812 -0.3082 -0.5222  0.5071
    2TTP    C4119033   1.305   7.766   9.676  0.0148  0.6584 -0.4663
    2TTP    C4219034   1.431   7.802   9.610  0.3661 -0.4334 -1.0252
    3TTP     S119035   1.047   9.094  11.090 -0.4648  0.6874 -0.8036
    3TTP     S519036   0.656   8.962  11.210  0.0587  0.1268  0.3266
    3TTP     C119037   0.697   9.114  11.302 -0.2287  0.6667 -0.4089
    3TTP     C219038   0.820   9.163  11.271 -0.4073  0.8714 -0.8013
    3TTP     C319039   0.887   9.083  11.172 -0.3236  0.6099 -0.5352
    3TTP     C419040   1.006   8.943  10.998 -0.1774  0.1481 -0.0681
    3TTP    C1719041   0.883   8.893  11.029  0.0012 -0.0571  0.3243
    3TTP    C1819042   0.816   8.973  11.127 -0.0825  0.2048  0.0582
    3TTP    C3219043   0.887   9.277  11.342 -0.7838  0.5930  0.7922
    3TTP    C3319044   0.861   9.382  11.245  0.4944 -1.3328 -0.9085
    3TTP    C3419045   0.908   9.521  11.266  0.0598  0.6862 -0.6744
    3TTP    C3519046   0.876   9.593  11.404  0.2329  1.4753  0.4921
    3TTP    C3619047   0.724   9.595  11.423 -0.5633  1.5889  0.1982
    3TTP    C3719048   0.645   9.685  11.330 -0.0916  0.6475  0.2201
    3TTP    C3819049   0.515   9.714  11.389  1.1545 -0.8364  0.3735
    3TTP    C3919050   0.422   9.595  11.379  1.1012 -0.7158  0.6804
    3TTP    C4019051   0.287   9.632  11.394  1.2967 -0.6611  1.0794
    3TTP    C4119052   0.215   9.549  11.294  0.0640 -0.6389 -0.1455
    3TTP    C4219053   0.203   9.399  11.305 -0.5381  0.4483  0.8618
    4FIC     F119054   0.413   7.555  10.602  0.1633 -0.1507 -0.3381
    4FIC     F219055   0.565   7.330  10.625  0.4425  0.0700  0.0067
    4FIC     O119056   0.794   7.939  10.637 -0.3533  0.3833 -0.5531
    4FIC     N519057   1.054   7.280  10.682  0.4756  0.7682  0.3490
    4FIC     N619058   1.321   7.626  10.705  0.0156  1.1408  0.1118
    4FIC    C1919059   1.074   7.860  10.671 -0.2702  0.7839 -0.3002
    4FIC    C2019060   0.972   7.772  10.661 -0.1511  0.6410 -0.2596
    4FIC    C2119061   0.831   7.820  10.644 -0.2038  0.4385 -0.3970
    4FIC    C2219062   0.746   7.700  10.637 -0.0438  0.3203 -0.3090
    4FIC    C2319063   0.608   7.694  10.621 -0.0275  0.1235 -0.3831
    4FIC    C2419064   0.550   7.568  10.617  0.1378  0.0430 -0.2737
    4FIC    C2519065   0.628   7.452  10.629  0.2813  0.1573 -0.0961
    4FIC    C2619066   0.766   7.458  10.645  0.2660  0.3538 -0.0217
    4FIC    C2719067   0.827   7.584  10.649  0.0998  0.4376 -0.1302
    4FIC    C2819068   0.969   7.624  10.664  0.0396  0.6392 -0.0927
    4FIC    C2919069   1.076   7.540  10.679  0.1412  0.7944  0.0665
    4FIC    C3019070   1.064   7.397  10.681  0.3248  0.7794  0.2213
    4FIC    C3119071   1.210   7.587  10.693  0.0716  0.9841  0.0906
    5FIC     F119072  -0.100   9.036  11.496  0.1800  0.2792 -0.2966
    5FIC     F219073  -0.050   9.170  11.728  0.2985 -0.4909  0.1292
    5FIC     O119074   0.390   9.044  11.265  0.2102  0.4890 -0.2253
    5FIC     N519075   0.371   9.368  11.896  0.4903 -1.4482  0.7922
    5FIC     N619076   0.743   9.347  11.670  0.4900 -1.1284  0.7621
    5FIC    C1919077   0.611   9.175  11.405  0.3341 -0.1717  0.2068
    5FIC    C2019078   0.486   9.168  11.454  0.3219 -0.1945  0.1722
    5FIC    C2119079   0.377   9.099  11.376  0.2570  0.1583 -0.0548
    5FIC    C2219080   0.255   9.109  11.458  0.2601  0.0324 -0.0338
    5FIC    C2319081   0.128   9.060  11.427  0.2116  0.2573 -0.2001
    5FIC    C2419082   0.027   9.082  11.520  0.2258  0.0736 -0.1404
    5FIC    C2519083   0.053   9.151  11.639  0.2869 -0.3232  0.0791
    5FIC    C2619084   0.180   9.200  11.670  0.3356 -0.5498  0.2458
    5FIC    C2719085   0.283   9.179  11.578  0.3220 -0.3686  0.1886
    5FIC    C2819086   0.426   9.218  11.580  0.3624 -0.5236  0.3240
    5FIC    C2919087   0.490   9.287  11.680  0.4253 -0.9003  0.5472
    5FIC    C3019088   0.424   9.331  11.799  0.4608 -1.2000  0.6811
    5FIC    C3119089   0.629   9.320  11.674  0.4605 -1.0240  0.6641
    1BTD     S219090   8.828   0.822   0.444  0.3034 -0.3713  0.0951
    1BTD     N119091   8.917   0.772   0.295  0.0603 -0.3227 -0.0683
    1BTD     N219092   8.708   0.923   0.355  0.2253 -0.2512  0.3358
    1BTD     N319093   8.624   1.038  -0.092 -0.3717  0.0813  0.5314
    1BTD     N419094   8.881   0.853  -0.166 -0.5748 -0.0068  0.0336
    1BTD     C519095   8.895   0.817   0.056 -0.2692 -0.1567 -0.0092
    1BTD     C619096   8.856   0.830   0.193 -0.0598 -0.2246  0.0584
    1BTD     C719097   8.738   0.915   0.227  0.0322 -0.1845  0.2846
    1BTD     C819098   8.667   0.981   0.121 -0.0887 -0.0787  0.4318
    1BTD    C1519099   8.709   0.964  -0.012 -0.2927 -0.0151  0.3584
    1BTD    C1619100   8.822   0.883  -0.045 -0.3819 -0.0537  0.1405
    1BTD    C4319101   8.826   0.847  -0.307  1.0365 -0.2078 -0.4530
    1BTD    C4419102   8.758   0.711  -0.352  1.6485 -0.6220 -1.7100
    1BTD    C4519103   8.636   0.681  -0.244  0.0065 -0.0074  0.0133
    1BTD    C4619104   8.598   0.533  -0.225  0.4213  0.4776 -0.7004
    1BTD    C4719105   8.706   0.694  -0.493  0.3252 -1.3323 -0.2676
    1BTD    C4819106   8.807   0.656  -0.605  0.1069  0.2169  0.7186
    1BTD    C4919107   8.896   0.535  -0.604  0.3009 -1.0999 -0.5837
    1BTD    C5019108   8.824   0.401  -0.585  0.2027  0.3908  0.4627
    1BTD    C7519109   8.642   1.091  -0.235 -0.0395  0.9909  0.4042
    1BTD    C7619110   8.529   1.041  -0.339 -1.4065 -0.5820  1.1295
    1BTD    C7719111   8.410   0.950  -0.319  0.9384  0.8994  0.3139
    1BTD    C7819112   8.304   0.914  -0.420  0.5806  0.2486  0.1132
    1BTD    C7919113   8.570   1.092  -0.482  0.6726  1.8307  0.1406
    1BTD    C8019114   8.488   1.208  -0.535  0.7848  0.6658  0.5287
    1BTD    C8119115   8.532   1.215  -0.683 -0.9271 -0.5406  0.3703
    1BTD    C8219116   8.418   1.249  -0.780  0.0517 -0.2124 -0.5939
    2TTP     S119117   9.164   0.655   0.027  0.4830 -0.5944 -0.1645
    2TTP     S519118   9.132   0.690  -0.401  0.3138  0.4333 -0.0741
    2TTP     C119119   9.283   0.596  -0.361 -0.0753 -0.3376 -0.3778
    2TTP     C219120   9.302   0.579  -0.227 -0.0460 -0.7004 -0.4234
    2TTP     C319121   9.197   0.641  -0.150  0.2849 -0.3826 -0.2203
    2TTP     C419122   9.013   0.749  -0.013  0.8721  0.1765  0.1395
    2TTP    C1719123   8.994   0.765  -0.147  0.8428  0.5394  0.1853
    2TTP    C1819124   9.099   0.704  -0.224  0.5119  0.2215 -0.0181
    2TTP    C3219125   9.415   0.503  -0.150 -0.1429 -0.7268  0.5176
    2TTP    C3319126   9.375   0.370  -0.081  0.3860 -0.5150 -0.1303
    2TTP    C3419127   9.328   0.369   0.071 -0.7751 -0.4858  0.6259
    2TTP    C3519128   9.315   0.225   0.134 -0.1871 -0.7029  0.3431
    2TTP    C3619129   9.416   0.217   0.261  1.1757  0.1095  0.9762
    2TTP    C3719130   9.396   0.079   0.337  0.7829 -0.0587  0.8687
    2TTP    C3819131   9.484   0.066   0.450 -0.2565 -0.5868 -0.7596
    2TTP    C3919132   9.465  -0.070   0.526  0.2219 -0.4490 -0.1434
    2TTP    C4019133   9.582  -0.112   0.607  0.0780  0.8541 -0.1271
    2TTP    C4119134   9.727  -0.115   0.521  0.6809 -0.6001 -0.3398
    2TTP    C4219135   9.783  -0.258   0.538 -0.1174 -0.9851  0.0341
    3TTP     S119136   8.437   1.131   0.240 -0.0037  0.1992  0.2973
    3TTP     S519137   8.355   1.320  -0.138  0.0355  0.3089  0.3433
    3TTP     C119138   8.244   1.391  -0.012 -0.1235  0.1234  0.3103
    3TTP     C219139   8.263   1.337   0.112 -0.1452  0.0787  0.2940
    3TTP     C319140   8.366   1.237   0.112 -0.0365  0.1892  0.3072
    3TTP     C419141   8.547   1.059   0.114  0.1554  0.3846  0.3305
    3TTP    C1719142   8.528   1.114  -0.010  0.1765  0.4294  0.3466
    3TTP    C1819143   8.426   1.213  -0.010  0.0684  0.3189  0.3333
    3TTP    C3219144   8.182   1.354   0.236  0.5299  0.4587 -0.1772
    3TTP    C3319145   8.044   1.287   0.228  0.6481 -0.0992 -0.1750
    3TTP    C3419146   8.012   1.167   0.294  0.7874  0.7885 -0.1839
    3TTP    C3519147   7.899   1.092   0.213 -0.9660  1.6466 -0.4680
    3TTP    C3619148   7.899   0.945   0.247 -0.5968  0.9007 -0.2234
    3TTP    C3719149   7.953   0.852   0.143  0.1569  1.6603 -0.5556
    3TTP    C3819150   8.057   0.891   0.045 -0.4116  0.5564 -1.2545
    3TTP    C3919151   8.198   0.893   0.099 -1.2490 -0.0494 -0.7739
    3TTP    C4019152   8.279   0.770   0.068 -0.0763 -0.2406  0.1835
    3TTP    C4119153   8.282   0.664   0.176  1.0409  0.3267 -0.5399
    3TTP    C4219154   8.326   0.519   0.141 -0.0372 -1.7445  0.2237
    4FIC     F119155   9.305   0.477  -1.176 -0.1049  0.0919  0.0548
    4FIC     F219156   9.486   0.277  -1.137 -0.2861 -0.0877 -0.0169
    4FIC     O119157   9.219   0.638  -0.666  0.1295  0.0635  0.1040
    4FIC     N519158   9.685   0.105  -0.718 -0.3803 -0.3661 -0.0863
    4FIC     N619159   9.581   0.271  -0.327 -0.1609 -0.3521 -0.0334
    4FIC    C1919160   9.361   0.504  -0.448  0.0393 -0.1181  0.0522
    4FIC    C2019161   9.376   0.472  -0.578 -0.0122 -0.1040  0.0429
    4FIC    C2119162   9.299   0.545  -0.684  0.0391 -0.0085  0.0710
    4FIC    C2219163   9.338   0.485  -0.813 -0.0386 -0.0178  0.0515
    4FIC    C2319164   9.293   0.519  -0.940 -0.0267  0.0519  0.0660
    4FIC    C2419165   9.345   0.448  -1.047 -0.1111  0.0264  0.0422
    4FIC    C2519166   9.438   0.345  -1.027 -0.2046 -0.0662  0.0052
    4FIC    C2619167   9.483   0.310  -0.901 -0.2170 -0.1361 -0.0095
    4FIC    C2719168   9.432   0.381  -0.791 -0.1321 -0.1116  0.0141
    4FIC    C2819169   9.459   0.369  -0.645 -0.1202 -0.1683  0.0072
    4FIC    C2919170   9.545   0.280  -0.585 -0.1943 -0.2623 -0.0260
    4FIC    C3019171   9.621   0.184  -0.658 -0.2964 -0.3190 -0.0589
    4FIC    C3119172   9.564   0.276  -0.444 -0.1752 -0.3111 -0.0298
    5FIC     F119173   8.160   1.950  -0.615  0.2682  0.2591  0.1285
    5FIC     F219174   7.936   2.041  -0.490 -0.0374 -0.0427 -0.1931
    5FIC     O119175   8.315   1.558  -0.275  0.3369  0.5004  0.3762
    5FIC     N519176   7.725   1.893  -0.068 -0.4284 -0.3046 -0.4792
    5FIC     N619177   7.891   1.568   0.172 -0.3132 -0.0551 -0.2208
    5FIC    C1919178   8.156   1.506  -0.035  0.0693  0.2979  0.1571
    5FIC    C2019179   8.126   1.601  -0.125  0.0637  0.2489  0.1070
    5FIC    C2119180   8.212   1.621  -0.247  0.2062  0.3601  0.2272
    5FIC    C2219181   8.151   1.732  -0.323  0.1605  0.2694  0.1330
    5FIC    C2319182   8.196   1.787  -0.443  0.2532  0.3223  0.1915
    5FIC    C2419183   8.121   1.891  -0.497  0.1832  0.2148  0.0789
    5FIC    C2519184   8.006   1.938  -0.432  0.0259  0.0593 -0.0868
    5FIC    C2619185   7.961   1.883  -0.313 -0.0674  0.0057 -0.1457
    5FIC    C2719186   8.035   1.778  -0.257  0.0012  0.1129 -0.0339
    5FIC    C2819187   8.015   1.699  -0.133 -0.0646  0.0942 -0.0563
    5FIC    C2919188   7.913   1.715  -0.042 -0.2153 -0.0409 -0.2010
    5FIC    C3019189   7.810   1.813  -0.056 -0.3319 -0.1854 -0.3536
    5FIC    C3119190   7.901   1.634   0.076 -0.2683 -0.0480 -0.2110
    1BTD     S219191  10.689   3.807   5.398 -0.5113  0.4353  0.5739
    1BTD     N119192  10.675   3.731   5.235  0.1040  0.7578  0.3655
    1BTD     N219193  10.525   3.882   5.392 -0.7520 -0.0912  0.3847
    1BTD     N319194  10.168   3.898   5.088 -0.1304 -0.5818 -0.3771
    1BTD     N419195  10.353   3.712   4.895  0.9236  0.4644 -0.4007
    1BTD     C519196  10.505   3.723   5.060  0.5193  0.5920 -0.0343
    1BTD     C619197  10.556   3.764   5.188  0.0987  0.4713  0.1755
    1BTD     C719198  10.472   3.849   5.276 -0.3800 -0.0039  0.1861
    1BTD     C819199  10.341   3.888   5.231 -0.4148 -0.3347 -0.0134
    1BTD    C1519200  10.295   3.846   5.105  0.0068 -0.2010 -0.2149
    1BTD    C1619201  10.376   3.765   5.020  0.4681  0.2568 -0.2253
    1BTD    C4319202  10.227   3.643   4.841  0.3704 -1.7514  1.4631
    1BTD    C4419203  10.192   3.499   4.869  0.1839  0.8157  0.0121
    1BTD    C4519204  10.233   3.370   4.791  0.7049 -0.9047  0.2373
    1BTD    C4619205  10.207   3.386   4.635  1.2954 -0.8572  0.0153
    1BTD    C4719206  10.214   3.443   5.007  0.5344 -1.0918  0.7027
    1BTD    C4819207  10.144   3.527   5.116 -0.5208  0.5982 -0.3776
    1BTD    C4919208  10.168   3.468   5.249 -0.8707 -0.5742 -0.6547
    1BTD    C5019209  10.084   3.530   5.347 -0.7959  0.2519 -0.6760
    1BTD    C7519210  10.088   3.878   4.972  1.9268  0.7158 -1.0758
    1BTD    C7619211   9.954   3.946   4.930 -0.5424  0.8503  0.7307
    1BTD    C7719212   9.953   3.930   4.776 -0.5108 -1.4835 -0.8086
    1BTD    C7819213   9.848   4.017   4.705  0.2582 -1.2610 -0.4077
    1BTD    C7919214   9.828   3.893   4.999  0.6672  1.0477  0.2201
    1BTD    C8019215   9.737   3.778   4.939  0.1840  0.7430 -1.0445
    1BTD    C8119216   9.758   3.634   5.005  1.0215 -0.6911 -1.3041
    1BTD    C8219217   9.771   3.609   5.157 -0.2126  0.4676 -0.0942
    2TTP     S119218  10.728   3.596   4.896 -0.4731 -0.4661  0.0212
    2TTP     S519219  10.470   3.600   4.551 -0.0389  0.1408 -0.3023
    2TTP     C119220  10.637   3.549   4.499 -0.0518 -0.0924 -0.1220
    2TTP     C219221  10.726   3.545   4.602 -0.1867 -0.2936 -0.0118
    2TTP     C319222  10.666   3.582   4.726 -0.2844 -0.2708 -0.0653
    2TTP     C419223  10.561   3.647   4.948 -0.4599 -0.2329 -0.1591
    2TTP    C1719224  10.472   3.651   4.845 -0.3248 -0.0318 -0.2695
    2TTP    C1819225  10.532   3.614   4.721 -0.2270 -0.0545 -0.2158
    2TTP    C3219226  10.872   3.498   4.601 -0.2617  0.5190 -0.4602
    2TTP    C3319227  10.918   3.397   4.699  1.1671 -0.6338 -0.4622
    2TTP    C3419228  11.052   3.326   4.680 -0.6198  0.1140  1.3518
    2TTP    C3519229  11.091   3.282   4.524  0.0194 -0.7002  0.4780
    2TTP    C3619230  11.063   3.131   4.489  0.6747 -1.2356  1.4004
    2TTP    C3719231  10.927   3.072   4.546  0.7950 -0.7000  0.9988
    2TTP    C3819232  10.793   3.083   4.455 -0.6591  0.6147  0.9615
    2TTP    C3919233  10.654   3.055   4.501  0.5191 -0.1021  0.3086
    2TTP    C4019234  10.606   2.990   4.632 -0.5660 -0.2289  0.2829
    2TTP    C4119235  10.471   2.935   4.593  1.2953 -1.1033  1.1534
    2TTP    C4219236  10.410   2.857   4.701 -1.1337 -1.3016 -0.5701
    3TTP     S119237  10.237   4.097   5.410 -0.0426  0.1979 -0.2355
    3TTP     S519238   9.950   4.210   5.111 -0.2494 -0.0478 -0.1307
    3TTP     C119239   9.953   4.339   5.240 -0.1044  0.0960 -0.2772
    3TTP     C219240  10.042   4.312   5.340 -0.0322  0.1801 -0.3181
    3TTP     C319241  10.111   4.188   5.318 -0.0882  0.1345 -0.2356
    3TTP     C419242  10.234   3.969   5.282 -0.1874  0.0542 -0.0892
    3TTP    C1719243  10.145   3.996   5.182 -0.2600 -0.0301 -0.0481
    3TTP    C1819244  10.076   4.120   5.203 -0.2036  0.0157 -0.1310
    3TTP    C3219245  10.063   4.407   5.451  1.3758 -0.6634 -0.6013
    3TTP    C3319246  10.028   4.376   5.590 -1.2248  0.5971  0.1382
    3TTP    C3419247   9.897   4.363   5.662 -0.7835  0.1497 -0.6484
    3TTP    C3519248   9.862   4.283   5.784 -0.3764  1.2772 -0.0363
    3TTP    C3619249   9.733   4.302   5.869  0.7418 -1.4821 -0.2146
    3TTP    C3719250   9.702   4.447   5.921 -0.8030  1.5499 -0.0039
    3TTP    C3819251   9.814   4.478   6.022  1.0390  2.0302  0.1159
    3TTP    C3919252   9.840   4.614   6.058 -1.3626 -0.0467  0.3020
    3TTP    C4019253   9.979   4.649   6.126 -0.1286  0.0801 -0.1163
    3TTP    C4119254  10.011   4.663   6.282  0.2397 -0.3231 -0.2840
    3TTP    C4219255   9.902   4.742   6.357 -0.8678 -1.3351  0.6577
    4FIC     F119256  10.196   3.201   3.909 -0.3459  0.3266 -0.0086
    4FIC     F219257  10.422   3.179   3.758 -0.2928 -0.4821  0.1782
    4FIC     O119258  10.395   3.431   4.357 -0.0556  0.4375 -0.1940
    4FIC     N519259  10.887   3.311   3.860 -0.0088 -1.5655  0.3145
    4FIC     N619260  10.997   3.495   4.240  0.2069 -1.3160  0.1320
    4FIC    C1919261  10.681   3.491   4.372  0.0984 -0.2956 -0.0814
    4FIC    C2019262  10.622   3.434   4.265  0.0234 -0.2920 -0.0422
    4FIC    C2119263  10.475   3.406   4.265 -0.0532  0.0972 -0.1047
    4FIC    C2219264  10.444   3.345   4.134 -0.1235 -0.0066 -0.0393
    4FIC    C2319265  10.320   3.301   4.088 -0.2067  0.2543 -0.0640
    4FIC    C2419266  10.316   3.246   3.961 -0.2626  0.0859  0.0107
    4FIC    C2519267  10.432   3.235   3.883 -0.2348 -0.3308  0.1067
    4FIC    C2619268  10.556   3.278   3.929 -0.1519 -0.5929  0.1319
    4FIC    C2719269  10.562   3.334   4.057 -0.0947 -0.4280  0.0573
    4FIC    C2819270  10.677   3.389   4.134 -0.0033 -0.6199  0.0595
    4FIC    C2919271  10.807   3.396   4.093  0.0472 -1.0243  0.1402
    4FIC    C3019272  10.851   3.349   3.965  0.0160 -1.3205  0.2357
    4FIC    C3119273  10.911   3.451   4.174  0.1347 -1.1823  0.1353
    5FIC     F119274   9.146   4.384   5.127 -0.0331  0.1990  0.5003
    5FIC     F219275   9.166   4.655   5.129  0.2196  0.1909 -0.2520
    5FIC     O119276   9.661   4.242   5.213 -0.1390 -0.0445  0.7395
    5FIC     N519277   9.562   4.945   5.193  0.5071  0.0054 -1.1630
    5FIC     N619278   9.961   4.779   5.260  0.3734 -0.1831 -0.8243
    5FIC    C1919279   9.864   4.451   5.245  0.0649 -0.1388  0.1059
    5FIC    C2019280   9.733   4.476   5.223  0.0815 -0.0771  0.0751
    5FIC    C2119281   9.635   4.364   5.208 -0.0279 -0.0316  0.4139
    5FIC    C2219282   9.503   4.425   5.186  0.0231  0.0309  0.2819
    5FIC    C2319283   9.381   4.361   5.166 -0.0427  0.0880  0.4945
    5FIC    C2419284   9.270   4.441   5.147  0.0256  0.1411  0.3073
    5FIC    C2519285   9.280   4.581   5.148  0.1558  0.1366 -0.0803
    5FIC    C2619286   9.401   4.646   5.168  0.2222  0.0799 -0.2940
    5FIC    C2719287   9.516   4.566   5.187  0.1547  0.0256 -0.1094
    5FIC    C2819288   9.657   4.603   5.210  0.1957 -0.0410 -0.2521
    5FIC    C2919289   9.709   4.731   5.218  0.3164 -0.0644 -0.6174
    5FIC    C3019290   9.628   4.848   5.204  0.4208 -0.0260 -0.9159
    5FIC    C3119291   9.847   4.757   5.241  0.3471 -0.1296 -0.7291
    1BTD     S219292   8.778   9.516   1.523  0.1050 -0.3841  0.0106
    1BTD     N119293   8.916   9.554   1.413  0.0331 -0.3557 -0.0699
    1BTD     N219294   8.660   9.618   1.434  0.0887 -0.2251  0.2140
    1BTD     N319295   8.666   9.894   1.054 -0.0763  0.1500  0.4834
    1BTD     N419296   8.981   9.815   1.029 -0.1442 -0.0110  0.1335
    1BTD     C519297   8.946   9.691   1.213 -0.0589 -0.1736  0.0405
    1BTD     C619298   8.868   9.636   1.320  0.0017 -0.2353  0.0527
    1BTD     C719299   8.725   9.672   1.332  0.0327 -0.1624  0.2116
    1BTD     C819300   8.667   9.761   1.235  0.0017 -0.0312  0.3504
    1BTD    C1519301   8.747   9.812   1.132 -0.0574  0.0252  0.3328
    1BTD    C1619302   8.885   9.778   1.120 -0.0872 -0.0451  0.1796
    1BTD    C4319303   8.973   9.867   0.882  0.2587 -0.5090  1.2156
    1BTD    C4419304   8.964   9.769   0.772  0.2804 -0.8740 -0.3810
    1BTD    C4519305   8.891   9.639   0.806 -0.5434  0.5824  0.2661
    1BTD    C4619306   8.861   9.534   0.691 -0.2508 -0.3177  0.0177
    1BTD    C4719307   8.950   9.835   0.628  0.2190 -0.7171 -0.2546
    1BTD    C4819308   8.820   9.887   0.566 -0.5356 -0.7716  1.0289
    1BTD    C4919309   8.747   9.981   0.654  0.6145 -0.5534  0.5356
    1BTD    C5019310   8.646  10.055   0.577 -0.6988  0.6270  0.2229
    1BTD    C7519311   8.696  10.019   0.978  0.0224  0.8227  0.1014
    1BTD    C7619312   8.691  10.157   1.049 -2.1330  1.6204 -0.3897
    1BTD    C7719313   8.808  10.181   1.146 -0.1648 -0.5917 -1.2030
    1BTD    C7819314   8.943  10.208   1.087  0.3197  0.4560 -0.8822
    1BTD    C7919315   8.646  10.282   0.969  1.0607  0.2147  0.1703
    1BTD    C8019316   8.602  10.419   1.032  0.2094  0.5866 -0.6868
    1BTD    C8119317   8.600  10.567   0.961 -0.3153 -0.0478  0.9201
    1BTD    C8219318   8.523  10.655   1.048 -0.8224 -0.5783  0.7012
    2TTP     S119319   9.207   9.538   1.195  0.3465  0.4597  0.2221
    2TTP     S519320   9.298   9.754   0.834 -1.2693 -0.4113 -0.7305
    2TTP     C119321   9.425   9.625   0.858 -0.9748 -0.1388 -0.8074
    2TTP     C219322   9.404   9.551   0.971 -0.4590  0.1464 -0.5177
    2TTP     C319323   9.288   9.593   1.042 -0.2768  0.1600 -0.2246
    2TTP     C419324   9.081   9.667   1.170  0.0522  0.1874  0.2990
    2TTP    C1719325   9.101   9.741   1.057 -0.4640 -0.0976  0.0093
    2TTP    C1819326   9.218   9.699   0.986 -0.6456 -0.1113 -0.2838
    2TTP    C3219327   9.488   9.433   1.011 -1.1205 -0.0886 -0.4055
    2TTP    C3319328   9.445   9.291   1.032 -0.3513  0.4118  0.9037
    2TTP    C3419329   9.560   9.197   1.022  0.0577  0.5386  1.0314
    2TTP    C3519330   9.517   9.053   1.056  0.5851  0.3427 -0.7476
    2TTP    C3619331   9.407   8.977   0.988  1.0268 -1.0854 -0.3052
    2TTP    C3719332   9.351   8.955   0.849 -1.5699 -1.4079 -1.3043
    2TTP    C3819333   9.213   8.876   0.858 -0.5068 -0.7424 -1.1020
    2TTP    C3919334   9.093   8.919   0.926  0.4937 -0.0008 -1.7924
    2TTP    C4019335   9.089   8.851   1.063 -1.5035 -0.2972  0.4025
    2TTP    C4119336   8.972   8.881   1.155  1.4765  0.0598 -0.2970
    2TTP    C4219337   8.954   8.799   1.275 -0.1616  1.9533  0.3747
    3TTP     S119338   8.381   9.853   1.315  0.3122 -0.1330  0.1284
    3TTP     S519339   8.336  10.032   0.927 -0.0083 -0.0229  0.2157
    3TTP     C119340   8.179  10.050   1.018  0.1085  0.0689  0.3995
    3TTP     C219341   8.184   9.996   1.143  0.2143  0.0403  0.3833
    3TTP     C319342   8.312   9.938   1.172  0.2067 -0.0553  0.2252
    3TTP     C419343   8.538   9.834   1.224  0.1953 -0.2248 -0.0555
    3TTP    C1719344   8.533   9.889   1.099  0.0894 -0.1962 -0.0393
    3TTP    C1819345   8.406   9.947   1.070  0.0968 -0.1006  0.1188
    3TTP    C3219346   8.089  10.000   1.260 -1.1603  0.6759  0.4296
    3TTP    C3319347   8.038  10.130   1.323  0.1298 -1.3553  0.7554
    3TTP    C3419348   8.128  10.246   1.318 -0.6817 -0.2204 -0.6291
    3TTP    C3519349   8.066  10.368   1.379  1.6346  0.6527 -0.5332
    3TTP    C3619350   8.154  10.467   1.461 -0.6832  0.0150 -0.9609
    3TTP    C3719351   8.282  10.522   1.388 -0.1351  0.2662  0.5180
    3TTP    C3819352   8.376  10.617   1.470  0.6634 -0.1015 -1.2270
    3TTP    C3919353   8.465  10.563   1.580  0.7821  0.9460 -0.0742
    3TTP    C4019354   8.570  10.459   1.539  0.1152 -0.2903  0.4362
    3TTP    C4119355   8.676  10.530   1.454 -0.1919  0.2410  0.2739
    3TTP    C4219356   8.817  10.534   1.518 -0.2704 -1.0432  0.5658
    4FIC     F119357   9.420   9.632   0.041  0.4978  0.7470  0.3197
    4FIC     F219358   9.686   9.577   0.045  0.2143 -0.6931  0.5028
    4FIC     O119359   9.310   9.639   0.571  0.1640  1.3332  0.2444
    4FIC     N519360   9.991   9.503   0.427 -0.4306 -2.3460  0.7130
    4FIC     N619361   9.851   9.520   0.841 -0.6340 -1.5976  0.6173
    4FIC    C1919362   9.525   9.589   0.763 -0.2250  0.1655  0.3929
    4FIC    C2019363   9.542   9.589   0.629 -0.1299  0.0741  0.4047
    4FIC    C2119364   9.427   9.616   0.537  0.0699  0.7012  0.3249
    4FIC    C2219365   9.480   9.609   0.400  0.1302  0.4153  0.3615
    4FIC    C2319366   9.410   9.627   0.281  0.3042  0.7937  0.3134
    4FIC    C2419367   9.482   9.616   0.163  0.3289  0.4064  0.3628
    4FIC    C2519368   9.620   9.587   0.165  0.1827 -0.3353  0.4573
    4FIC    C2619369   9.690   9.569   0.283  0.0083 -0.7162  0.5056
    4FIC    C2719370   9.619   9.580   0.404 -0.0188 -0.3338  0.4568
    4FIC    C2819371   9.662   9.567   0.545 -0.1845 -0.5729  0.4871
    4FIC    C2919372   9.790   9.540   0.589 -0.3557 -1.2624  0.5749
    4FIC    C3019373   9.900   9.520   0.500 -0.3963 -1.8556  0.6506
    4FIC    C3119374   9.823   9.529   0.727 -0.5078 -1.4427  0.5977
    5FIC     F119375   7.896  10.143   0.258  0.2869  0.3889  0.0865
    5FIC     F219376   7.662  10.236   0.361  0.4281  0.7935  0.0462
    5FIC     O119377   8.174  10.039   0.711 -0.1268 -0.5066  0.1404
    5FIC     N519378   7.524  10.295   0.833  0.3359  0.7372  0.0265
    5FIC     N619379   7.788  10.196   1.166 -0.0159 -0.0436  0.0767
    5FIC    C1919380   8.049  10.091   0.970 -0.1388 -0.4378  0.1209
    5FIC    C2019381   7.988  10.114   0.852 -0.0404 -0.2286  0.1090
    5FIC    C2119382   8.059  10.084   0.723 -0.0412 -0.2801  0.1201
    5FIC    C2219383   7.965  10.120   0.615  0.0794 -0.0100  0.1024
    5FIC    C2319384   7.986  10.110   0.478  0.1217  0.0463  0.1047
    5FIC    C2419385   7.882  10.150   0.395  0.2394  0.3184  0.0855
    5FIC    C2519386   7.761  10.198   0.448  0.3118  0.5265  0.0647
    5FIC    C2619387   7.740  10.208   0.585  0.2705  0.4721  0.0623
    5FIC    C2719388   7.844  10.168   0.671  0.1515  0.1974  0.0816
    5FIC    C2819389   7.854  10.166   0.819  0.0806  0.0713  0.0847
    5FIC    C2919390   7.756  10.205   0.908  0.1199  0.2072  0.0684
    5FIC    C3019391   7.629  10.255   0.866  0.2387  0.4983  0.0454
    5FIC    C3119392   7.774  10.200   1.049  0.0449  0.0684  0.0730
    1BTD     S219393  10.301  10.531   6.918 -0.1056 -0.2155 -0.4852
    1BTD     N119394  10.332  10.567   6.745 -0.0741  0.0291 -0.4290
    1BTD     N219395  10.474  10.525   6.964 -0.1137 -0.2880 -0.4628
    1BTD     N319396  10.886  10.579   6.744 -0.0734  0.0069 -0.3158
    1BTD     N419397  10.710  10.631   6.474 -0.0248  0.3974 -0.2741
    1BTD     C519398  10.532  10.600   6.607 -0.0491  0.2170 -0.3486
    1BTD     C619399  10.464  10.573   6.731 -0.0715  0.0434 -0.3982
    1BTD     C719400  10.543  10.549   6.853 -0.0935 -0.1338 -0.4170
    1BTD     C819401  10.687  10.554   6.846 -0.0918 -0.1290 -0.3854
    1BTD    C1519402  10.749  10.581   6.722 -0.0694  0.0435 -0.3373
    1BTD    C1619403  10.673  10.603   6.604 -0.0486  0.2142 -0.3192
    1BTD    C4319404  10.845  10.687   6.426  1.0234  0.1693  1.1063
    1BTD    C4419405  10.863  10.836   6.411  0.8776 -0.0971 -0.4431
    1BTD    C4519406  10.879  10.919   6.544 -0.3806  0.0942  2.0799
    1BTD    C4619407  10.767  10.959   6.629  0.1857  1.1037  1.0086
    1BTD    C4719408  10.769  10.924   6.320  0.5252  0.9397  0.2160
    1BTD    C4819409  10.726  10.860   6.189  1.2805  0.5025  0.5949
    1BTD    C4919410  10.665  10.956   6.082  0.6241  0.1752  0.5065
    1BTD    C5019411  10.623  10.913   5.939 -0.8663  0.4973 -0.4260
    1BTD    C7519412  11.005  10.557   6.654 -0.4856  0.1060 -0.5805
    1BTD    C7619413  11.068  10.413   6.634  0.0171 -0.3654 -0.0597
    1BTD    C7719414  10.979  10.295   6.569  0.0139  0.5094 -0.6592
    1BTD    C7819415  10.960  10.333   6.429 -0.7684  0.5983  0.1328
    1BTD    C7919416  11.205  10.357   6.692  0.2840 -1.3033 -0.2213
    1BTD    C8019417  11.292  10.271   6.602  0.1063  0.8126 -0.0780
    1BTD    C8119418  11.446  10.279   6.605 -0.1798  0.5561  1.1027
    1BTD    C8219419  11.508  10.281   6.747  1.0845  0.8457  0.2844
    2TTP     S119420  10.337  10.600   6.368 -0.4140  0.2740  0.2391
    2TTP     S519421  10.679  10.523   6.119 -0.3114  0.6056  0.2768
    2TTP     C119422  10.528  10.504   6.018 -0.2772  0.5692  0.2322
    2TTP     C219423  10.414  10.526   6.090 -0.3066  0.4647  0.2178
    2TTP     C319424  10.441  10.560   6.226 -0.3579  0.4096  0.2416
    2TTP     C419425  10.488  10.620   6.468 -0.4485  0.3107  0.2837
    2TTP    C1719426  10.602  10.597   6.397 -0.4189  0.4151  0.2980
    2TTP    C1819427  10.575  10.564   6.261 -0.3679  0.4699  0.2742
    2TTP    C3219428  10.275  10.528   6.013  0.2452  0.6274 -0.5959
    2TTP    C3319429  10.183  10.420   6.097 -1.2617 -0.4201 -0.6995
    2TTP    C3419430  10.036  10.399   6.076 -0.8124 -0.8681  1.0008
    2TTP    C3519431   9.935  10.532   6.086 -0.7397 -0.2539 -0.3423
    2TTP    C3619432   9.793  10.559   6.109  1.4256  0.0829  1.5298
    2TTP    C3719433   9.721  10.448   6.193 -0.7149  0.0991  0.5639
    2TTP    C3819434   9.579  10.505   6.205  0.1090  0.3954 -0.0191
    2TTP    C3919435   9.471  10.472   6.096  0.3505 -0.1846 -0.4684
    2TTP    C4019436   9.341  10.413   6.148  0.6466 -0.2720 -0.7994
    2TTP    C4119437   9.257  10.488   6.255  0.2272  0.1795  0.4374
    2TTP    C4219438   9.217  10.639   6.245 -0.2167  1.4665  0.9562
    3TTP     S119439  10.811  10.533   7.131  0.1353  0.5737  0.5327
    3TTP     S519440  11.190  10.628   6.951 -0.0014 -0.1781 -0.1657
    3TTP     C119441  11.210  10.628   7.132  0.3210 -0.1727 -0.2004
    3TTP     C219442  11.094  10.599   7.198  0.3822  0.0601  0.0135
    3TTP     C319443  10.985  10.575   7.108  0.1764  0.2420  0.2121
    3TTP     C419444  10.791  10.533   6.950 -0.1874  0.5682  0.5672
    3TTP    C1719445  10.907  10.562   6.884 -0.2484  0.3354  0.3535
    3TTP    C1819446  11.015  10.586   6.973 -0.0432  0.1533  0.1549
    3TTP    C3219447  11.051  10.629   7.343 -0.0348  0.0543 -0.9952
    3TTP    C3319448  11.020  10.779   7.379 -0.2487 -0.1620  0.4151
    3TTP    C3419449  10.936  10.875   7.293 -0.7418  0.7896  0.9401
    3TTP    C3519450  10.931  11.029   7.335  1.6903  2.5051  0.0657
    3TTP    C3619451  11.071  11.095   7.306  0.0336  0.1600 -1.3578
    3TTP    C3719452  11.106  11.126   7.163  0.2491 -0.0951  0.3032
    3TTP    C3819453  11.088  11.259   7.095 -0.1716  0.5705 -1.9027
    3TTP    C3919454  11.151  11.380   7.145 -0.4466 -1.1014 -0.7557
    3TTP    C4019455  11.182  11.495   7.054  0.3452 -0.2847 -0.4703
    3TTP    C4119456  11.060  11.572   7.003  0.7293 -0.3989 -1.3344
    3TTP    C4219457  11.071  11.651   6.882 -0.3672 -0.1970 -0.2233
    4FIC     F119458  11.108  10.263   5.488  0.2677  0.9084  0.0192
    4FIC     F219459  10.943  10.335   5.283 -0.3443 -0.5786 -0.0378
    4FIC     O119460  10.794  10.374   5.915  0.4249  1.2720  0.0399
    4FIC     N519461  10.483  10.518   5.294 -1.1127 -2.4576 -0.1048
    4FIC     N619462  10.272  10.590   5.669 -0.8669 -1.8740 -0.0771
    4FIC    C1919463  10.526  10.482   5.872 -0.1041 -0.0197 -0.0072
    4FIC    C2019464  10.611  10.452   5.772 -0.1199 -0.0534 -0.0101
    4FIC    C2119465  10.748  10.396   5.802  0.1621  0.6351  0.0151
    4FIC    C2219466  10.814  10.374   5.673  0.0648  0.4032  0.0044
    4FIC    C2319467  10.941  10.324   5.650  0.2460  0.8476  0.0199
    4FIC    C2419468  10.982  10.312   5.518  0.1020  0.5020  0.0052
    4FIC    C2519469  10.897  10.349   5.413 -0.2132 -0.2642 -0.0242
    4FIC    C2619470  10.770  10.399   5.435 -0.3955 -0.7107 -0.0398
    4FIC    C2719471  10.727  10.412   5.568 -0.2539 -0.3712 -0.0253
    4FIC    C2819472  10.599  10.461   5.625 -0.3800 -0.6821 -0.0353
    4FIC    C2919473  10.490  10.507   5.554 -0.6804 -1.4131 -0.0628
    4FIC    C3019474  10.487  10.513   5.411 -0.9172 -1.9851 -0.0857
    4FIC    C3119475  10.371  10.552   5.618 -0.7815 -1.6625 -0.0706
    5FIC     F119476  12.015  10.535   7.023 -0.3005 -0.2830 -0.0713
    5FIC     F219477  12.056  10.701   7.235 -0.2411  0.1404 -0.4123
    5FIC     O119478  11.475  10.505   7.018 -0.2918 -0.5143  0.3078
    5FIC     N519479  11.729  10.919   7.536 -0.1495  0.5846 -0.6319
    5FIC     N619480  11.298  10.862   7.489 -0.1546  0.3188 -0.2668
    5FIC    C1919481  11.321  10.654   7.219 -0.2320 -0.1917  0.1170
    5FIC    C2019482  11.456  10.655   7.212 -0.2365 -0.1500  0.0348
    5FIC    C2119483  11.527  10.576   7.106 -0.2679 -0.3245  0.1422
    5FIC    C2219484  11.672  10.599   7.127 -0.2647 -0.2251  0.0122
    5FIC    C2319485  11.777  10.547   7.053 -0.2876 -0.3233  0.0480
    5FIC    C2419486  11.906  10.583   7.091 -0.2790 -0.1964 -0.0974
    5FIC    C2519487  11.926  10.669   7.201 -0.2484  0.0220 -0.2728
    5FIC    C2619488  11.821  10.721   7.275 -0.2254  0.1211 -0.3098
    5FIC    C2719489  11.691  10.686   7.237 -0.2337 -0.0050 -0.1643
    5FIC    C2819490  11.559  10.723   7.294 -0.2151  0.0498 -0.1572
    5FIC    C2919491  11.537  10.806   7.402 -0.1841  0.2477 -0.3012
    5FIC    C3019492  11.642  10.868   7.475 -0.1652  0.4323 -0.4824
    5FIC    C3119493  11.406  10.836   7.449 -0.1681  0.2859 -0.2813
    1BTD     S219494   6.070   1.724   6.303 -0.0665  0.3066  0.3241
    1BTD     N119495   6.244   1.707   6.344 -0.0957  0.2992  0.4468
    1BTD     N219496   6.057   1.562   6.225 -0.0187  0.3074  0.3145
    1BTD     N319497   6.347   1.202   6.140  0.0261  0.2958  0.5169
    1BTD     N419498   6.577   1.381   6.287 -0.0689  0.2855  0.6801
    1BTD     C519499   6.415   1.535   6.312 -0.0805  0.2922  0.5667
    1BTD     C619500   6.282   1.588   6.300 -0.0696  0.2978  0.4730
    1BTD     C719501   6.178   1.507   6.233 -0.0266  0.3024  0.3990
    1BTD     C819502   6.211   1.376   6.183  0.0036  0.3012  0.4221
    1BTD    C1519503   6.343   1.328   6.197 -0.0085  0.2957  0.5148
    1BTD    C1619504   6.443   1.406   6.261 -0.0500  0.2912  0.5861
    1BTD    C4319505   6.643   1.252   6.314 -0.4746  0.1631  0.2600
    1BTD    C4419506   6.774   1.204   6.248 -0.4354 -0.5560 -1.0452
    1BTD    C4519507   6.801   1.262   6.114 -0.2898 -0.1990 -1.1294
    1BTD    C4619508   6.932   1.229   6.030 -0.8191  0.6562  1.0926
    1BTD    C4719509   6.825   1.066   6.281 -0.3255 -0.4581 -0.5612
    1BTD    C4819510   6.744   0.942   6.228  0.1983 -0.8558 -0.7349
    1BTD    C4919511   6.767   0.805   6.279  0.0585 -1.0070 -0.4232
    1BTD    C5019512   6.663   0.711   6.293  1.3475  0.1553  1.0709
    1BTD    C7519513   6.457   1.138   6.068 -0.8224 -0.0016  0.3500
    1BTD    C7619514   6.464   1.137   5.908 -0.9433 -0.6139 -1.2707
    1BTD    C7719515   6.379   1.050   5.824  0.2282  0.3514  0.4101
    1BTD    C7819516   6.318   0.920   5.876  0.9930  0.4806  0.6154
    1BTD    C7919517   6.531   1.267   5.836 -0.8771 -1.8038  0.0121
    1BTD    C8019518   6.587   1.257   5.701 -0.5194 -0.3903  0.9537
    1BTD    C8119519   6.700   1.356   5.667 -0.1748  0.0572 -0.4703
    1BTD    C8219520   6.711   1.405   5.519 -0.1195 -0.4284  0.0248
    2TTP     S119521   6.575   1.736   6.460  0.0904  0.2095 -0.4308
    2TTP     S519522   6.924   1.507   6.357  0.1500 -0.1569  0.5594
    2TTP     C119523   6.978   1.666   6.429  0.1090  0.2394 -0.2637
    2TTP     C219524   6.873   1.746   6.465  0.0882  0.3758 -0.6180
    2TTP     C319525   6.747   1.685   6.437  0.1038  0.1724 -0.2520
    2TTP     C419526   6.522   1.577   6.389  0.1314 -0.1867  0.3923
    2TTP    C1719527   6.626   1.498   6.353  0.1521 -0.3232  0.7467
    2TTP    C1819528   6.753   1.559   6.380  0.1365 -0.1197  0.3808
    2TTP    C3219529   6.882   1.865   6.559  0.4565 -0.1119  1.3641
    2TTP    C3319530   6.907   2.006   6.511  0.6991 -0.4183  0.7849
    2TTP    C3419531   6.899   2.087   6.641  0.3528 -1.7400 -0.2969
    2TTP    C3519532   6.936   2.248   6.639 -0.1768 -0.2153  0.1809
    2TTP    C3619533   6.907   2.335   6.505  1.0943 -0.3011 -0.7961
    2TTP    C3719534   7.020   2.426   6.456 -1.0828  0.6711 -1.0093
    2TTP    C3819535   6.988   2.528   6.347  0.6753 -1.6086 -0.1918
    2TTP    C3919536   7.084   2.624   6.292 -0.2929 -0.2996 -0.3872
    2TTP    C4019537   7.049   2.679   6.156 -0.3458  1.8448  0.2563
    2TTP    C4119538   6.994   2.592   6.035 -0.3092 -0.8306 -0.1938
    2TTP    C4219539   6.937   2.695   5.929  0.5961  1.7214 -0.9466
    3TTP     S119540   5.955   1.244   6.158  0.1699  0.5201  0.1695
    3TTP     S519541   6.161   0.866   6.148 -0.3231  0.2597 -0.2112
    3TTP     C119542   5.984   0.835   6.181 -0.3456  0.4640 -0.1385
    3TTP     C219543   5.911   0.950   6.186 -0.1948  0.5565 -0.0166
    3TTP     C319544   5.991   1.067   6.164 -0.0559  0.4693  0.0236
    3TTP     C419545   6.132   1.275   6.124  0.1924  0.3157  0.0968
    3TTP    C1719546   6.205   1.160   6.119  0.0416  0.2232 -0.0251
    3TTP    C1819547   6.125   1.043   6.142 -0.0973  0.3105 -0.0653
    3TTP    C3219548   5.763   0.957   6.200  0.1197  0.9350  1.0336
    3TTP    C3319549   5.670   1.033   6.118  0.7697  0.2104  0.4340
    3TTP    C3419550   5.527   1.047   6.181  0.4887 -0.9245  0.9495
    3TTP    C3519551   5.448   1.158   6.122  0.0440  0.3016 -0.3074
    3TTP    C3619552   5.401   1.122   5.972  0.5146 -1.2073  0.7150
    3TTP    C3719553   5.273   1.024   5.949 -0.4961 -0.4553  0.2853
    3TTP    C3819554   5.262   0.936   5.819  0.0910 -1.3023  0.5069
    3TTP    C3919555   5.383   0.863   5.780 -0.6730  0.5635  0.7166
    3TTP    C4019556   5.367   0.714   5.774  0.6360  0.2140  1.1888
    3TTP    C4119557   5.393   0.627   5.896 -1.0164 -0.8306 -0.1169
    3TTP    C4219558   5.302   0.496   5.884  0.1706 -1.1522  1.0843
    4FIC     F119559   7.697   1.468   6.073 -0.2358 -0.6488  0.4622
    4FIC     F219560   7.821   1.639   6.245 -0.0900 -0.3595  0.0718
    4FIC     O119561   7.183   1.513   6.238 -0.1204 -0.2465  0.7162
    4FIC     N519562   7.634   1.917   6.609  0.2021  0.3431 -0.3086
    4FIC     N619563   7.207   1.917   6.703  0.2631  0.5991 -0.0315
    4FIC    C1919564   7.120   1.692   6.461  0.0603  0.1728  0.4335
    4FIC    C2019565   7.244   1.674   6.412  0.0255  0.0602  0.3846
    4FIC    C2119566   7.269   1.580   6.298 -0.0678 -0.1543  0.5383
    4FIC    C2219567   7.414   1.585   6.271 -0.0843 -0.2319  0.4363
    4FIC    C2319568   7.484   1.514   6.174 -0.1615 -0.4236  0.5176
    4FIC    C2419569   7.621   1.535   6.167 -0.1618 -0.4623  0.3915
    4FIC    C2519570   7.685   1.623   6.256 -0.0864 -0.3130  0.1902
    4FIC    C2619571   7.615   1.693   6.353 -0.0091 -0.1214  0.1081
    4FIC    C2719572   7.477   1.674   6.361 -0.0079 -0.0794  0.2335
    4FIC    C2819573   7.375   1.732   6.452  0.0628  0.1060  0.1938
    4FIC    C2919574   7.397   1.823   6.552  0.1463  0.2858  0.0145
    4FIC    C3019575   7.527   1.874   6.583  0.1768  0.3167 -0.1625
    4FIC    C3119576   7.293   1.874   6.635  0.2100  0.4571 -0.0098
    5FIC     F119577   6.297   0.161   6.510 -0.0601  0.5337  0.4790
    5FIC     F219578   6.047   0.055   6.516  0.0472  0.2131 -0.3421
    5FIC     O119579   6.196   0.649   6.296 -0.0585  0.6261  0.6888
    5FIC     N519580   5.614   0.250   6.374  0.2025 -0.1820 -1.3727
    5FIC     N619581   5.586   0.652   6.207  0.1820 -0.0451 -1.0432
    5FIC    C1919582   5.921   0.720   6.227  0.0445  0.3527 -0.0210
    5FIC    C2019583   5.956   0.602   6.281  0.0399  0.3419 -0.0417
    5FIC    C2119584   6.099   0.572   6.314 -0.0144  0.4879  0.3368
    5FIC    C2219585   6.103   0.436   6.370 -0.0050  0.4342  0.2062
    5FIC    C2319586   6.214   0.365   6.415 -0.0432  0.5269  0.4493
    5FIC    C2419587   6.192   0.237   6.463 -0.0243  0.4493  0.2567
    5FIC    C2519588   6.063   0.183   6.467  0.0308  0.2841 -0.1664
    5FIC    C2619589   5.952   0.253   6.422  0.0691  0.1909 -0.4108
    5FIC    C2719590   5.972   0.382   6.372  0.0510  0.2673 -0.2213
    5FIC    C2819591   5.876   0.482   6.318  0.0807  0.2040 -0.3903
    5FIC    C2919592   5.740   0.467   6.304  0.1357  0.0476 -0.7932
    5FIC    C3019593   5.672   0.347   6.343  0.1723 -0.0781 -1.1103
    5FIC    C3119594   5.656   0.569   6.251  0.1609 -0.0025 -0.9284
    1BTD     S219595   6.783   2.480   7.882  0.2397 -0.3101 -0.3660
    1BTD     N119596   6.612   2.475   7.936  0.1940 -0.4197 -0.5208
    1BTD     N219597   6.775   2.650   7.824  0.2317 -0.2590 -0.2183
    1BTD     N319598   6.449   2.987   7.801  0.1332 -0.3531 -0.1966
    1BTD     N419599   6.248   2.772   7.940  0.0867 -0.5510 -0.5695
    1BTD     C519600   6.424   2.633   7.936  0.1384 -0.4860 -0.5418
    1BTD     C619601   6.560   2.594   7.909  0.1761 -0.4131 -0.4575
    1BTD     C719602   6.651   2.692   7.846  0.1973 -0.3231 -0.2882
    1BTD     C819603   6.602   2.823   7.813  0.1798 -0.3106 -0.2114
    1BTD    C1519604   6.469   2.857   7.842  0.1428 -0.3839 -0.2986
    1BTD    C1619605   6.380   2.762   7.903  0.1224 -0.4705 -0.4616
    1BTD    C4319606   6.145   2.841   7.856 -0.2462 -1.6497  0.2600
    1BTD    C4419607   5.986   2.835   7.868  0.5360  0.5169 -0.0707
    1BTD    C4519608   5.910   2.692   7.832  0.4655 -0.8336 -0.2648
    1BTD    C4619609   5.758   2.693   7.841 -0.9516 -0.3650  0.8136
    1BTD    C4719610   5.916   2.953   7.933 -0.9689 -0.1500  0.5240
    1BTD    C4819611   5.850   2.954   8.068 -0.7924  0.1061  0.1553
    1BTD    C4919612   5.802   3.090   8.130  0.7284 -0.1895  0.2129
    1BTD    C5019613   5.888   3.213   8.096  0.7575 -0.0667 -0.2290
    1BTD    C7519614   6.372   3.080   7.889 -0.1299  0.4905  0.5293
    1BTD    C7619615   6.289   3.190   7.834 -1.3205 -0.8264 -0.1187
    1BTD    C7719616   6.208   3.205   7.705 -0.5329  0.9928  1.0369
    1BTD    C7819617   6.261   3.152   7.566 -1.2251  0.8894 -1.3250
    1BTD    C7919618   6.259   3.298   7.942  0.3927 -1.1271 -0.2862
    1BTD    C8019619   6.251   3.441   7.909 -0.3432 -0.5251  1.7329
    1BTD    C8119620   6.373   3.529   7.966 -1.5378  0.6661  1.4310
    1BTD    C8219621   6.395   3.538   8.113  0.6365 -0.0743 -0.3799
    2TTP     S119622   6.335   2.464   8.157  0.3321  0.2389 -0.0744
    2TTP     S519623   6.021   2.746   8.241 -0.1394 -0.4402  0.4632
    2TTP     C119624   6.039   2.635   8.384  0.0361 -0.6909  0.2482
    2TTP     C219625   6.137   2.541   8.367  0.1922 -0.4959  0.0696
    2TTP     C319626   6.201   2.554   8.240  0.1786 -0.1416  0.0958
    2TTP     C419627   6.317   2.575   8.014  0.1566  0.4896  0.1407
    2TTP    C1719628   6.219   2.669   8.032  0.0005  0.2946  0.3191
    2TTP    C1819629   6.154   2.656   8.159  0.0142 -0.0598  0.2928
    2TTP    C3219630   6.169   2.423   8.472 -0.0215  0.2654  0.2130
    2TTP    C3319631   6.297   2.395   8.551  0.2260  0.0242  0.7740
    2TTP    C3419632   6.316   2.240   8.551  0.5133  1.1295  0.5104
    2TTP    C3519633   6.387   2.192   8.670 -0.0295 -0.1517 -0.5007
    2TTP    C3619634   6.434   2.051   8.701 -0.2348  0.4020 -0.5643
    2TTP    C3719635   6.350   1.927   8.748  0.1325 -0.0471 -0.3529
    2TTP    C3819636   6.293   1.914   8.889 -1.5201 -0.7409 -1.3254
    2TTP    C3919637   6.230   1.785   8.904 -0.3092  0.6910  0.4108
    2TTP    C4019638   6.076   1.752   8.877 -0.3698 -0.1000  0.5388
    2TTP    C4119639   6.038   1.759   8.722  0.4471  1.0366 -0.6559
    2TTP    C4219640   5.885   1.750   8.700 -1.0662 -0.5639  0.3716
    3TTP     S119641   6.825   2.981   7.690 -0.3466 -0.5440 -0.0325
    3TTP     S519642   6.563   3.320   7.649  0.5937  0.2549  0.5082
    3TTP     C119643   6.729   3.366   7.589  0.7744 -0.0454  0.7656
    3TTP     C219644   6.819   3.264   7.598  0.4946 -0.3098  0.6138
    3TTP     C319645   6.761   3.146   7.653  0.1274 -0.2847  0.2886
    3TTP     C419646   6.659   2.934   7.750 -0.5274 -0.2438 -0.2902
    3TTP    C1719647   6.569   3.036   7.741 -0.2478  0.0206 -0.1382
    3TTP    C1819648   6.627   3.155   7.686  0.1196 -0.0044  0.1869
    3TTP    C3219649   6.959   3.265   7.583 -0.9352  0.0689  0.0029
    3TTP    C3319650   7.023   3.247   7.440 -0.7336  0.5817 -0.6262
    3TTP    C3419651   7.058   3.113   7.427  0.1870  1.2251  0.3947
    3TTP    C3519652   7.124   3.074   7.296 -1.9316 -0.0022 -0.1377
    3TTP    C3619653   7.071   3.100   7.164  1.2903  0.3205  0.3502
    3TTP    C3719654   7.044   2.970   7.073 -0.3868 -0.1164  0.6567
    3TTP    C3819655   6.992   3.030   6.942 -0.5195  0.9734  0.8488
    3TTP    C3919656   7.097   3.087   6.841 -0.9654  0.2242  1.2960
    3TTP    C4019657   7.056   3.198   6.745  0.3348  0.2062 -0.7418
    3TTP    C4119658   7.038   3.333   6.799 -0.0516 -1.1101  0.4587
    3TTP    C4219659   7.013   3.422   6.673  1.1420  0.9916 -0.7356
    4FIC     F119660   5.243   2.822   8.449 -0.0716  0.4829  0.0880
    4FIC     F219661   5.261   2.779   8.717 -0.1719  0.2087  0.0498
    4FIC     O119662   5.746   2.695   8.292 -0.1423  0.2043  0.0863
    4FIC     N519663   5.643   2.626   8.991 -0.3664 -0.3843 -0.0057
    4FIC     N619664   6.033   2.536   8.814 -0.4016 -0.5466  0.0007
    4FIC    C1919665   5.941   2.609   8.493 -0.2634 -0.1567  0.0495
    4FIC    C2019666   5.814   2.642   8.522 -0.2416 -0.0758  0.0513
    4FIC    C2119667   5.719   2.686   8.413 -0.1789  0.1101  0.0708
    4FIC    C2219668   5.591   2.715   8.478 -0.1700  0.1569  0.0677
    4FIC    C2319669   5.473   2.758   8.419 -0.1186  0.3158  0.0815
    4FIC    C2419670   5.363   2.779   8.501 -0.1206  0.3295  0.0751
    4FIC    C2519671   5.372   2.757   8.639 -0.1724  0.1880  0.0559
    4FIC    C2619672   5.490   2.713   8.700 -0.2236  0.0291  0.0417
    4FIC    C2719673   5.602   2.692   8.618 -0.2224  0.0128  0.0479
    4FIC    C2819674   5.739   2.646   8.650 -0.2687 -0.1359  0.0372
    4FIC    C2919675   5.788   2.614   8.774 -0.3256 -0.2982  0.0176
    4FIC    C3019676   5.708   2.621   8.893 -0.3479 -0.3450  0.0050
    4FIC    C3119677   5.922   2.571   8.796 -0.3672 -0.4339  0.0083
    5FIC     F119678   6.419   4.125   7.569 -0.0434 -0.1647 -0.6500
    5FIC     F219679   6.643   4.208   7.439  0.0765 -0.2366 -0.4902
    5FIC     O119680   6.534   3.602   7.649 -0.1410 -0.1342 -0.3048
    5FIC     N519681   7.048   3.954   7.309  0.1793 -0.3183 -0.0141
    5FIC     N619682   7.093   3.529   7.398  0.0789 -0.2800  0.2235
    5FIC    C1919683   6.790   3.495   7.554 -0.0611 -0.1920 -0.0295
    5FIC    C2019684   6.752   3.624   7.539 -0.0412 -0.1969 -0.1225
    5FIC    C2119685   6.619   3.671   7.591 -0.0851 -0.1657 -0.2620
    5FIC    C2219686   6.610   3.814   7.558 -0.0486 -0.1804 -0.3369
    5FIC    C2319687   6.505   3.901   7.586 -0.0693 -0.1618 -0.4703
    5FIC    C2419688   6.519   4.033   7.545 -0.0261 -0.1814 -0.5191
    5FIC    C2519689   6.634   4.076   7.478  0.0357 -0.2185 -0.4364
    5FIC    C2619690   6.739   3.989   7.450  0.0565 -0.2372 -0.3033
    5FIC    C2719691   6.727   3.856   7.490  0.0135 -0.2178 -0.2521
    5FIC    C2819692   6.819   3.740   7.476  0.0205 -0.2295 -0.1171
    5FIC    C2919693   6.943   3.741   7.416  0.0740 -0.2638 -0.0081
    5FIC    C3019694   7.000   3.858   7.358  0.1317 -0.2936 -0.0118
    5FIC    C3119695   7.025   3.624   7.406  0.0764 -0.2726  0.1187
    1BTD     S219696   1.722   6.643   4.976 -0.4023 -0.5008  0.3432
    1BTD     N119697   1.856   6.576   4.876  0.3546  0.1003  0.9369
    1BTD     N219698   1.700   6.493   5.073 -0.8163 -0.9248 -0.3873
    1BTD     N319699   1.897   6.067   5.091 -0.2933 -0.7030 -0.8041
    1BTD     N419700   2.090   6.170   4.850  1.1494  0.5602  0.8278
    1BTD     C519701   1.976   6.363   4.865  0.7522  0.3251  0.8602
    1BTD     C619702   1.877   6.452   4.919  0.2644 -0.0386  0.5784
    1BTD     C719703   1.789   6.406   5.029 -0.3910 -0.6126 -0.1627
    1BTD     C819704   1.805   6.272   5.080 -0.5259 -0.7938 -0.5852
    1BTD    C1519705   1.904   6.188   5.024 -0.0332 -0.4233 -0.2873
    1BTD    C1619706   1.988   6.233   4.918  0.5982  0.1297  0.4270
    1BTD    C4319707   2.153   6.039   4.887  0.1960 -0.6773 -0.6685
    1BTD    C4419708   2.270   5.976   4.809 -0.6018 -0.2939  0.5173
    1BTD    C4519709   2.266   5.836   4.813 -0.9096  0.0341 -0.4262
    1BTD    C4619710   2.299   5.781   4.676  0.8547 -0.0441  1.1354
    1BTD    C4719711   2.417   6.044   4.819  0.6165  1.3288 -1.1097
    1BTD    C4819712   2.509   6.008   4.944  0.1450 -1.2270  0.8558
    1BTD    C4919713   2.441   5.949   5.079 -0.6134  0.2061 -1.3016
    1BTD    C5019714   2.343   6.013   5.188 -0.9715 -0.3869  0.4550
    1BTD    C7519715   1.907   5.927   5.035 -1.8376 -0.6224 -0.1212
    1BTD    C7619716   1.820   5.886   4.900 -1.0411  0.6627 -1.7417
    1BTD    C7719717   1.827   5.738   4.893  0.2882  0.5331  0.1546
    1BTD    C7819718   1.963   5.696   4.832  0.1414 -0.8031 -0.0643
    1BTD    C7919719   1.689   5.952   4.909  0.8118  1.1498  0.1499
    1BTD    C8019720   1.610   5.937   4.786 -0.2851 -0.6685  0.0523
    1BTD    C8119721   1.519   6.056   4.741  1.3816 -0.3126 -0.6373
    1BTD    C8219722   1.584   6.174   4.658 -1.5558  0.6689  0.0471
    2TTP     S119723   2.157   6.501   4.653 -0.1348  0.2487 -0.0113
    2TTP     S519724   2.269   6.112   4.508 -0.7529  0.1924 -0.3463
    2TTP     C119725   2.340   6.238   4.398 -0.5275  0.1763 -0.2204
    2TTP     C219726   2.310   6.365   4.436 -0.3234  0.1926 -0.1097
    2TTP     C319727   2.229   6.368   4.554 -0.3375  0.2186 -0.1202
    2TTP     C419728   2.086   6.376   4.763 -0.3601  0.2648 -0.1371
    2TTP    C1719729   2.116   6.248   4.725 -0.5642  0.2484 -0.2478
    2TTP    C1819730   2.197   6.245   4.607 -0.5501  0.2226 -0.2375
    2TTP    C3219731   2.341   6.512   4.392 -0.5736  0.9301 -0.5769
    2TTP    C3319732   2.232   6.580   4.312 -0.6790 -1.0113 -0.3150
    2TTP    C3419733   2.211   6.726   4.339 -1.3628  0.1341 -0.5092
    2TTP    C3519734   2.054   6.767   4.336 -0.0021 -0.4232  1.3807
    2TTP    C3619735   2.031   6.908   4.389 -0.5520  0.0073  0.6424
    2TTP    C3719736   2.102   7.019   4.312 -0.7553  0.4246  0.2140
    2TTP    C3819737   2.054   7.163   4.360  1.0730  0.0734 -0.1344
    2TTP    C3919738   2.144   7.251   4.444 -0.9671  0.5779 -1.2090
    2TTP    C4019739   2.298   7.252   4.421 -0.6499  0.4578  0.4993
    2TTP    C4119740   2.359   7.285   4.560 -0.5728  0.2296  0.1300
    2TTP    C4219741   2.424   7.177   4.648 -0.1481 -0.7170 -0.1823
    3TTP     S119742   1.641   6.251   5.338  0.2652 -0.3814 -0.2221
    3TTP     S519743   1.853   5.886   5.422  0.4231 -0.0196  0.9953
    3TTP     C119744   1.747   5.925   5.564  0.1796  0.2524  0.7419
    3TTP     C219745   1.675   6.040   5.547  0.1165  0.1566  0.3511
    3TTP     C319746   1.701   6.101   5.420  0.2581 -0.1347  0.2376
    3TTP     C419747   1.747   6.211   5.196  0.5087 -0.6533  0.0311
    3TTP    C1719748   1.818   6.097   5.213  0.5717 -0.5575  0.4222
    3TTP    C1819749   1.792   6.035   5.340  0.4301 -0.2660  0.5356
    3TTP    C3219750   1.565   6.103   5.615  0.5634  0.5006  0.2758
    3TTP    C3319751   1.600   6.177   5.743 -1.6517  0.4177 -1.6319
    3TTP    C3419752   1.528   6.112   5.878  1.1932  0.3143  0.5337
    3TTP    C3519753   1.375   6.119   5.880  0.1917  1.0086  0.1974
    3TTP    C3619754   1.325   6.261   5.861  1.2267 -0.5616 -0.4162
    3TTP    C3719755   1.333   6.388   5.955 -0.8122 -0.1686  0.9746
    3TTP    C3819756   1.233   6.405   6.063 -1.0936  0.2641 -0.0422
    3TTP    C3919757   1.246   6.538   6.143  0.5946  0.4110 -0.4522
    3TTP    C4019758   1.315   6.678   6.099  0.9544 -0.6117  0.4171
    3TTP    C4119759   1.321   6.786   6.210 -1.0098  0.6651 -0.2733
    3TTP    C4219760   1.469   6.830   6.231 -0.0146  0.4260  0.3709
    4FIC     F119761   2.793   5.609   4.114  0.0519 -0.0073  0.4076
    4FIC     F219762   2.854   5.762   3.897 -0.2657  0.0408  0.3515
    4FIC     O119763   2.488   5.953   4.399  0.1380 -0.2065  0.7405
    4FIC     N519764   2.723   6.227   3.788 -0.6608 -0.0323  0.5081
    4FIC     N619765   2.473   6.465   4.055 -0.5295 -0.1978  0.7795
    4FIC    C1919766   2.438   6.221   4.294 -0.1347 -0.2313  0.8052
    4FIC    C2019767   2.512   6.129   4.230 -0.1440 -0.1832  0.7236
    4FIC    C2119768   2.534   5.993   4.291  0.0015 -0.1734  0.6952
    4FIC    C2219769   2.618   5.918   4.197 -0.0502 -0.1172  0.6036
    4FIC    C2319770   2.665   5.787   4.210  0.0428 -0.0898  0.5493
    4FIC    C2419771   2.744   5.737   4.107 -0.0329 -0.0367  0.4646
    4FIC    C2519772   2.775   5.816   3.996 -0.1966 -0.0123  0.4361
    4FIC    C2619773   2.729   5.946   3.982 -0.2900 -0.0393  0.4898
    4FIC    C2719774   2.649   5.999   4.085 -0.2156 -0.0932  0.5755
    4FIC    C2819775   2.585   6.132   4.101 -0.2797 -0.1326  0.6483
    4FIC    C2919776   2.591   6.237   4.013 -0.4351 -0.1240  0.6460
    4FIC    C3019777   2.664   6.231   3.890 -0.5587 -0.0737  0.5702
    4FIC    C3119778   2.526   6.362   4.037 -0.4861 -0.1646  0.7195
    5FIC     F119779   2.203   5.355   5.929 -0.1927 -0.0206  0.4716
    5FIC     F219780   1.976   5.247   6.031 -0.2714  0.0114  0.3303
    5FIC     O119781   2.003   5.787   5.670  0.0437  0.0848  0.4642
    5FIC     N519782   1.506   5.398   5.993 -0.2161  0.1324  0.1217
    5FIC     N619783   1.396   5.757   5.771 -0.0155  0.2083  0.1445
    5FIC    C1919784   1.715   5.836   5.676  0.0524  0.1526  0.3263
    5FIC    C2019785   1.774   5.732   5.737 -0.0039  0.1248  0.3339
    5FIC    C2119786   1.923   5.713   5.730 -0.0045  0.0908  0.4064
    5FIC    C2219787   1.954   5.591   5.806 -0.0731  0.0664  0.3952
    5FIC    C2319788   2.079   5.534   5.828 -0.0979  0.0317  0.4468
    5FIC    C2419789   2.083   5.418   5.904 -0.1649  0.0139  0.4234
    5FIC    C2519790   1.966   5.362   5.956 -0.2053  0.0304  0.3507
    5FIC    C2619791   1.841   5.419   5.935 -0.1809  0.0650  0.2989
    5FIC    C2719792   1.834   5.536   5.858 -0.1133  0.0836  0.3214
    5FIC    C2819793   1.719   5.620   5.818 -0.0724  0.1202  0.2809
    5FIC    C2919794   1.587   5.599   5.850 -0.0938  0.1450  0.2080
    5FIC    C3019795   1.543   5.488   5.928 -0.1610  0.1380  0.1607
    5FIC    C3119796   1.482   5.686   5.806 -0.0506  0.1795  0.1736
    1BTD     S219797   6.315   6.722   3.261  0.1046  0.2298  0.0591
    1BTD     N119798   6.251   6.711   3.429 -0.0981  0.1724 -0.0219
    1BTD     N219799   6.391   6.559   3.263  0.4077  0.3717  0.2201
    1BTD     N319800   6.429   6.206   3.571  0.6591  0.5568  0.4019
    1BTD     N419801   6.257   6.393   3.774  0.0359  0.3113  0.1036
    1BTD     C519802   6.256   6.543   3.607 -0.0206  0.2477  0.0472
    1BTD     C619803   6.287   6.592   3.475  0.0621  0.2573  0.0703
    1BTD     C719804   6.366   6.507   3.383  0.3453  0.3690  0.2059
    1BTD     C819805   6.409   6.377   3.426  0.5313  0.4653  0.3114
    1BTD    C1519806   6.376   6.333   3.556  0.4415  0.4519  0.2841
    1BTD    C1619807   6.300   6.415   3.645  0.1685  0.3444  0.1536
    1BTD    C4319808   6.298   6.282   3.873  1.3974 -0.8346 -1.1892
    1BTD    C4419809   6.405   6.286   3.983  1.1116 -0.5575 -0.0585
    1BTD    C4519810   6.388   6.389   4.092 -0.2357 -0.6832 -0.8593
    1BTD    C4619811   6.282   6.318   4.196 -2.2055 -0.0247 -0.6254
    1BTD    C4719812   6.510   6.172   3.987  0.7891  0.7187 -1.1678
    1BTD    C4819813   6.474   6.022   3.993 -0.8937  1.0380  0.0328
    1BTD    C4919814   6.597   5.919   4.000 -1.1228  0.7374 -0.7560
    1BTD    C5019815   6.655   5.887   3.861 -0.7128  0.0229  1.4944
    1BTD    C7519816   6.346   6.082   3.624 -0.2461  1.4333 -1.0477
    1BTD    C7619817   6.260   5.973   3.532  0.5388  0.9863 -0.5568
    1BTD    C7719818   6.174   6.014   3.407 -1.0403 -0.2355 -0.0093
    1BTD    C7819819   6.047   6.086   3.427  0.7156  0.2350  0.5108
    1BTD    C7919820   6.272   5.825   3.575  0.3430  0.2529 -1.4636
    1BTD    C8019821   6.129   5.743   3.611 -1.2057 -0.7858 -0.1976
    1BTD    C8119822   6.050   5.804   3.726  0.1618 -0.9650 -0.7871
    1BTD    C8219823   5.911   5.761   3.683 -0.5655  0.6784 -0.5098
    2TTP     S119824   6.043   6.718   3.730 -0.3950 -0.1392 -0.1925
    2TTP     S519825   5.982   6.412   4.026  0.2773  0.2356  0.3396
    2TTP     C119826   5.854   6.540   4.047  0.3336  0.2686  0.4765
    2TTP     C219827   5.866   6.642   3.957  0.1291  0.1551  0.3202
    2TTP     C319828   5.975   6.623   3.868 -0.0793  0.0373  0.0868
    2TTP     C419829   6.171   6.590   3.708 -0.4513 -0.1724 -0.3292
    2TTP    C1719830   6.159   6.488   3.798 -0.2468 -0.0588 -0.1730
    2TTP    C1819831   6.049   6.507   3.887 -0.0386  0.0587  0.0604
    2TTP    C3219832   5.783   6.769   3.933 -0.1697 -1.3503  0.8992
    2TTP    C3319833   5.744   6.877   4.051 -0.8099  0.2205  2.0501
    2TTP    C3419834   5.841   6.882   4.181  0.6747  0.8553  0.4337
    2TTP    C3519835   5.977   6.931   4.150  0.8152 -1.3178 -0.0817
    2TTP    C3619836   5.993   7.079   4.165  0.3521  1.6527  0.6843
    2TTP    C3719837   6.097   7.130   4.062 -0.3977 -0.0458  0.3971
    2TTP    C3819838   6.078   7.108   3.913  0.6386  0.6269 -0.2695
    2TTP    C3919839   5.938   7.183   3.863 -0.9775  0.9192 -1.0367
    2TTP    C4019840   5.906   7.213   3.728  1.5460 -0.2799 -0.6897
    2TTP    C4119841   5.766   7.297   3.729 -0.4085 -0.0092  1.0201
    2TTP    C4219842   5.777   7.432   3.789  0.7765  1.1482  0.2243
    3TTP     S119843   6.539   6.221   3.192  0.3858  0.0706 -0.0251
    3TTP     S519844   6.637   5.902   3.463 -0.7007  0.1835  0.5107
    3TTP     C119845   6.699   5.858   3.298 -0.0245  0.1189  0.7761
    3TTP     C219846   6.673   5.954   3.204  0.3507  0.0802  0.6263
    3TTP     C319847   6.602   6.065   3.260  0.1179  0.1003  0.2965
    3TTP     C419848   6.477   6.264   3.357 -0.2903  0.1351 -0.2905
    3TTP    C1719849   6.503   6.168   3.451 -0.6657  0.1740 -0.1405
    3TTP    C1819850   6.574   6.057   3.395 -0.4330  0.1539  0.1892
    3TTP    C3219851   6.696   5.962   3.061 -0.2662  0.1050  0.2037
    3TTP    C3319852   6.632   5.878   2.953  1.0071 -0.1140  1.1311
    3TTP    C3419853   6.678   5.890   2.812  1.0349 -1.0670 -0.2818
    3TTP    C3519854   6.635   5.801   2.692 -0.0080 -0.8379  0.3776
    3TTP    C3619855   6.711   5.677   2.732  0.3868  0.8278 -0.2700
    3TTP    C3719856   6.627   5.544   2.766 -0.3764 -0.4362  0.0205
    3TTP    C3819857   6.484   5.534   2.728  0.2781 -0.0626 -0.3332
    3TTP    C3919858   6.418   5.393   2.750 -0.9110 -0.5429  0.7026
    3TTP    C4019859   6.265   5.374   2.769 -0.7999 -1.2816 -1.0874
    3TTP    C4119860   6.151   5.465   2.721 -0.2542 -0.6013  0.6015
    3TTP    C4219861   6.087   5.535   2.848  0.4079  0.4373 -0.2420
    4FIC     F119862   5.681   6.089   4.714 -0.3188 -1.0108 -0.5215
    4FIC     F219863   5.424   6.176   4.697 -0.0615 -0.0834  0.1657
    4FIC     O119864   5.907   6.357   4.301 -0.1482 -0.6847 -0.2183
    4FIC     N519865   5.215   6.492   4.378  0.4300  1.4819  1.3697
    4FIC     N619866   5.443   6.684   4.059  0.5113  1.5498  1.4683
    4FIC    C1919867   5.741   6.535   4.138  0.1581  0.3171  0.5460
    4FIC    C2019868   5.694   6.464   4.243  0.1051  0.1988  0.4430
    4FIC    C2119869   5.786   6.375   4.322 -0.0536 -0.3246  0.0443
    4FIC    C2219870   5.703   6.313   4.427 -0.0741 -0.3233  0.0294
    4FIC    C2319871   5.744   6.223   4.525 -0.2030 -0.7235 -0.2809
    4FIC    C2419872   5.648   6.179   4.615 -0.1955 -0.6320 -0.2266
    4FIC    C2519873   5.515   6.224   4.606 -0.0628 -0.1537  0.1276
    4FIC    C2619874   5.474   6.314   4.508  0.0662  0.2469  0.4383
    4FIC    C2719875   5.570   6.360   4.417  0.0607  0.1615  0.3890
    4FIC    C2819876   5.559   6.454   4.303  0.1762  0.5014  0.6573
    4FIC    C2919877   5.446   6.520   4.262  0.3210  1.0010  1.0324
    4FIC    C3019878   5.319   6.504   4.326  0.3803  1.2637  1.2166
    4FIC    C3119879   5.445   6.610   4.151  0.4249  1.3001  1.2701
    5FIC     F119880   6.458   5.128   3.574 -0.4205  0.1929 -0.7517
    5FIC     F219881   6.689   5.021   3.478 -0.0149  0.2344  0.1632
    5FIC     O119882   6.510   5.643   3.413 -0.1657  0.0665 -1.0760
    5FIC     N519883   7.059   5.233   3.227  0.7499  0.2040  1.2475
    5FIC     N619884   7.053   5.657   3.120  0.8675  0.0969  0.8096
    5FIC    C1919885   6.750   5.723   3.265  0.3123  0.0614 -0.3171
    5FIC    C2019886   6.728   5.598   3.309  0.2326  0.0914 -0.2713
    5FIC    C2119887   6.602   5.564   3.384 -0.0157  0.0920 -0.6776
    5FIC    C2219888   6.610   5.421   3.417 -0.0442  0.1287 -0.5087
    5FIC    C2319889   6.517   5.344   3.487 -0.2441  0.1422 -0.7596
    5FIC    C2419890   6.546   5.210   3.506 -0.2292  0.1777 -0.5247
    5FIC    C2519891   6.665   5.155   3.457 -0.0200  0.1992 -0.0532
    5FIC    C2619892   6.759   5.231   3.387  0.1801  0.1860  0.1994
    5FIC    C2719893   6.731   5.367   3.367  0.1684  0.1500 -0.0327
    5FIC    C2819894   6.808   5.473   3.298  0.3468  0.1278  0.1319
    5FIC    C2919895   6.930   5.459   3.237  0.5745  0.1390  0.5736
    5FIC    C3019896   7.000   5.335   3.231  0.6702  0.1746  0.9425
    5FIC    C3119897   6.997   5.568   3.173  0.7342  0.1158  0.7009
    1BTD     S219898   9.418   2.724  10.040  0.5472  0.0088  0.2356
    1BTD     N119899   9.282   2.817   9.967  0.3715  0.0352  0.5915
    1BTD     N219900   9.546   2.836   9.981  0.4199 -0.0453 -0.1473
    1BTD     N319901   9.562   3.232   9.729 -0.1557 -0.1077 -0.2844
    1BTD     N419902   9.237   3.209   9.712 -0.2153 -0.0086  0.6256
    1BTD     C519903   9.263   3.022   9.835  0.0658  0.0111  0.5987
    1BTD     C619904   9.337   2.921   9.906  0.2344  0.0040  0.4158
    1BTD     C719905   9.484   2.932   9.914  0.2615 -0.0410  0.0024
    1BTD     C819906   9.550   3.042   9.849  0.1187 -0.0766 -0.2079
    1BTD    C1519907   9.474   3.138   9.780 -0.0444 -0.0681 -0.0172
    1BTD    C1619908   9.331   3.128   9.773 -0.0702 -0.0247  0.3813
    1BTD    C4319909   9.246   3.351   9.682  0.1307  0.1138  1.3413
    1BTD    C4419910   9.210   3.466   9.768  0.0392  1.0493  0.0774
    1BTD    C4519911   9.338   3.490   9.845  1.2889  0.0842  1.4727
    1BTD    C4619912   9.292   3.486   9.986 -0.3795  0.6564 -1.7209
    1BTD    C4719913   9.119   3.580   9.722 -0.6023 -0.8652  0.4628
    1BTD    C4819914   9.191   3.678   9.642 -0.6150 -0.7771  1.8389
    1BTD    C4919915   9.092   3.753   9.559 -0.5309  0.3670  0.3020
    1BTD    C5019916   9.104   3.737   9.414  0.7093  0.7125 -0.3982
    1BTD    C7519917   9.534   3.297   9.590  1.6950  0.5206  0.4646
    1BTD    C7619918   9.622   3.377   9.496 -0.4082  0.9846  0.2844
    1BTD    C7719919   9.618   3.531   9.523  0.8502  0.7078  0.5231
    1BTD    C7819920   9.607   3.620   9.401  0.3140 -0.3365 -0.1372
    1BTD    C7919921   9.763   3.331   9.457  0.3609 -0.3880  0.2672
    1BTD    C8019922   9.760   3.193   9.387 -1.0419  0.4790 -0.5101
    1BTD    C8119923   9.863   3.171   9.263  1.1399  0.5676 -0.1575
    1BTD    C8219924   9.838   3.027   9.225 -0.6052  0.5331  1.1654
    2TTP     S119925   8.965   2.954   9.845  0.0237 -0.1419 -0.1622
    2TTP     S519926   8.897   3.270   9.561  0.2820 -0.4691 -0.5901
    2TTP     C119927   8.740   3.183   9.589  0.3032 -0.5788 -0.8045
    2TTP     C219928   8.752   3.080   9.679  0.2251 -0.4843 -0.6847
    2TTP     C319929   8.885   3.066   9.728  0.1447 -0.3217 -0.4194
    2TTP     C419930   9.122   3.041   9.817  0.0024 -0.0321  0.0525
    2TTP    C1719931   9.111   3.143   9.727  0.0806 -0.1267 -0.0673
    2TTP    C1819932   8.977   3.157   9.678  0.1602 -0.2892 -0.3326
    2TTP    C3219933   8.637   2.981   9.735 -0.0432 -0.3181 -0.2136
    2TTP    C3319934   8.600   2.837   9.665  0.1237  0.0909 -0.0355
    2TTP    C3419935   8.445   2.807   9.672  0.3014  0.0126 -0.6833
    2TTP    C3519936   8.403   2.696   9.580 -0.3184 -0.0700 -0.2186
    2TTP    C3619937   8.272   2.646   9.595  0.3767 -0.1005  0.1687
    2TTP    C3719938   8.175   2.703   9.485  0.4988  0.7298 -0.5149
    2TTP    C3819939   8.149   2.607   9.365  1.3170 -0.5507  0.1082
    2TTP    C3919940   8.031   2.599   9.270 -0.8471 -0.5156 -0.8945
    2TTP    C4019941   7.991   2.738   9.233  0.4580  0.3737  0.0491
    2TTP    C4119942   7.874   2.730   9.133  0.6849  0.4110 -0.4423
    2TTP    C4219943   7.893   2.769   8.994  0.2249 -1.1538  0.2381
    3TTP     S119944   9.826   3.051   9.945 -0.2788 -0.1233  0.4718
    3TTP     S519945   9.858   3.455   9.802 -0.5267 -0.3516 -0.2389
    3TTP     C119946  10.002   3.420   9.908 -0.5800 -0.0314 -0.0560
    3TTP     C219947  10.000   3.293   9.958 -0.5062  0.0580  0.1743
    3TTP     C319948   9.886   3.219   9.915 -0.4058 -0.1232  0.2146
    3TTP     C419949   9.682   3.087   9.839 -0.2253 -0.4436  0.2890
    3TTP    C1719950   9.684   3.214   9.789 -0.2992 -0.5329  0.0586
    3TTP    C1819951   9.798   3.287   9.832 -0.4003 -0.3517  0.0181
    3TTP    C3219952  10.114   3.215  10.036  0.5737  0.6644 -0.1675
    3TTP    C3319953  10.210   3.090  10.009  1.2313 -0.2753 -0.3422
    3TTP    C3419954  10.339   3.093  10.092 -0.2043 -0.6916  0.1667
    3TTP    C3519955  10.343   3.059  10.239 -1.3644 -0.9531 -1.0064
    3TTP    C3619956  10.288   2.945  10.316  0.5924  0.1430  0.0693
    3TTP    C3719957  10.292   2.820  10.246  0.8772 -0.1730  0.7817
    3TTP    C3819958  10.298   2.717  10.363  0.3742 -1.5305 -1.3272
    3TTP    C3919959  10.277   2.570  10.334 -1.0197 -0.1018 -0.1651
    3TTP    C4019960  10.136   2.561  10.345  0.0185  0.2185 -0.1534
    3TTP    C4119961  10.066   2.467  10.448 -0.8164 -0.6212 -0.2735
    3TTP    C4219962   9.917   2.476  10.429  0.0767 -0.2649 -0.1116
    4FIC     F119963   8.491   3.913   9.313  0.3688  0.2539  0.4447
    4FIC     F219964   8.251   3.802   9.250  0.4716  0.4303 -0.2704
    4FIC     O119965   8.750   3.486   9.520 -0.2275 -0.1637  0.3350
    4FIC     N519966   8.090   3.337   9.306  0.1931  0.3861 -1.3766
    4FIC     N619967   8.341   3.026   9.481 -0.2935  0.0241 -1.3185
    4FIC    C1919968   8.613   3.227   9.533 -0.3418 -0.1436 -0.3875
    4FIC    C2019969   8.557   3.339   9.483 -0.1955 -0.0455 -0.3316
    4FIC    C2119970   8.634   3.468   9.480 -0.1457 -0.0632  0.0482
    4FIC    C2219971   8.544   3.569   9.420  0.0188  0.0616  0.0103
    4FIC    C2319972   8.572   3.704   9.397  0.1152  0.0923  0.2873
    4FIC    C2419973   8.471   3.780   9.339  0.2671  0.2170  0.1852
    4FIC    C2519974   8.347   3.722   9.307  0.3194  0.3078 -0.1840
    4FIC    C2619975   8.319   3.588   9.330  0.2236  0.2778 -0.4618
    4FIC    C2719976   8.420   3.509   9.388  0.0696  0.1519 -0.3631
    4FIC    C2819977   8.423   3.366   9.426 -0.0601  0.0897 -0.5879
    4FIC    C2919978   8.321   3.275   9.410 -0.0551  0.1467 -0.9623
    4FIC    C3019979   8.194   3.310   9.353  0.0815  0.2781 -1.1888
    4FIC    C3119980   8.333   3.138   9.449 -0.1867  0.0789 -1.1561
    5FIC     F119981  10.447   3.962   9.490  0.2794  0.0913  0.0198
    5FIC     F219982  10.526   4.070   9.727  0.0758  0.3363 -0.0246
    5FIC     O119983  10.139   3.551   9.662  0.3641  0.0945  0.1805
    5FIC     N519984  10.420   3.933  10.190 -0.1564  0.6908  0.0269
    5FIC     N619985  10.163   3.590  10.277 -0.0491  0.6439  0.1614
    5FIC    C1919986  10.105   3.509   9.949  0.1999  0.3297  0.1954
    5FIC    C2019987  10.180   3.608   9.897  0.1867  0.3194  0.1566
    5FIC    C2119988  10.192   3.623   9.748  0.2747  0.1951  0.1516
    5FIC    C2219989  10.280   3.740   9.725  0.2337  0.2171  0.1056
    5FIC    C2319990  10.320   3.793   9.603  0.2871  0.1298  0.0856
    5FIC    C2419991  10.403   3.905   9.607  0.2317  0.1726  0.0416
    5FIC    C2519992  10.444   3.960   9.729  0.1265  0.2988  0.0192
    5FIC    C2619993  10.403   3.907   9.851  0.0734  0.3864  0.0391
    5FIC    C2719994  10.319   3.795   9.849  0.1280  0.3449  0.0832
    5FIC    C2819995  10.260   3.716   9.960  0.0947  0.4128  0.1137
    5FIC    C2919996  10.275   3.739  10.095 -0.0029  0.5382  0.1042
    5FIC    C3019997  10.355   3.845  10.147 -0.0868  0.6217  0.0615
    5FIC    C3119998  10.214   3.657  10.194 -0.0279  0.5956  0.1357
    1BTD     S219999   4.387   5.187   5.811 -0.3480 -0.2247  0.4969
    1BTD     N120000   4.406   5.351   5.882  0.0503 -0.4588  0.9441
    1BTD     N220001   4.545   5.190   5.725 -0.7565 -0.0067 -0.2640
    1BTD     N320002   4.900   5.493   5.678 -0.8696  0.0149 -1.0070
    1BTD     N420003   4.729   5.691   5.871  0.1247 -0.5425  0.4818
    1BTD     C520004   4.577   5.526   5.874  0.0770 -0.4958  0.6847
    1BTD     C620005   4.523   5.397   5.840 -0.1322 -0.3670  0.5250
    1BTD     C720006   4.600   5.307   5.752 -0.5839 -0.1142 -0.1513
    1BTD     C820007   4.728   5.350   5.702 -0.8036 -0.0023 -0.6340
    1BTD    C1520008   4.777   5.477   5.738 -0.5858 -0.1350 -0.4553
    1BTD    C1620009   4.702   5.564   5.823 -0.1505 -0.3790  0.1964
    1BTD    C4320010   4.842   5.782   5.857 -0.4550  0.1158 -0.6802
    1BTD    C4420011   4.846   5.884   5.751  0.4676 -0.2648 -0.1834
    1BTD    C4520012   4.975   5.963   5.766  0.1558 -1.1616  1.3272
    1BTD    C4620013   5.032   6.030   5.635  0.1026  0.2048 -1.0712
    1BTD    C4720014   4.727   5.981   5.713  0.1960  0.5175  0.2904
    1BTD    C4820015   4.636   5.876   5.655 -0.1198  0.0114 -1.8596
    1BTD    C4920016   4.519   5.941   5.593 -0.6881  0.4359  0.7438
    1BTD    C5020017   4.407   5.844   5.548 -1.2672 -0.3081  0.1076
    1BTD    C7520018   5.008   5.587   5.715  0.1271 -0.3785 -0.6438
    1BTD    C7620019   5.159   5.565   5.738 -0.9468  0.1727 -0.1584
    1BTD    C7720020   5.213   5.442   5.819 -0.9496  0.6347 -1.2245
    1BTD    C7820021   5.207   5.470   5.966  0.2541  0.2713  0.1841
    1BTD    C7920022   5.255   5.691   5.759 -0.0905  0.1223  0.1639
    1BTD    C8020023   5.394   5.678   5.711  1.1592  0.8061 -0.5237
    1BTD    C8120024   5.455   5.796   5.720 -0.1494 -0.6218 -1.2723
    1BTD    C8220025   5.602   5.768   5.717 -0.6765  0.4673  0.1148
    2TTP     S120026   4.418   5.643   6.088  0.7532 -0.1615  0.1355
    2TTP     S520027   4.701   5.963   6.135  0.3455  0.1760  0.2940
    2TTP     C120028   4.584   5.968   6.275  0.3638 -0.0672  0.3188
    2TTP     C220029   4.490   5.869   6.268  0.4908 -0.1860  0.2713
    2TTP     C320030   4.506   5.786   6.153  0.5782 -0.0888  0.2135
    2TTP     C420031   4.535   5.638   5.949  0.7347  0.0818  0.1106
    2TTP    C1720032   4.629   5.737   5.955  0.6077  0.2003  0.1580
    2TTP    C1820033   4.612   5.820   6.070  0.5203  0.1034  0.2159
    2TTP    C3220034   4.359   5.857   6.356 -1.2502 -0.2623  1.1160
    2TTP    C3320035   4.226   5.884   6.288  0.3182 -0.1600 -0.4649
    2TTP    C3420036   4.229   6.019   6.216  0.0303  0.2804  0.1874
    2TTP    C3520037   4.101   6.082   6.169 -0.3202 -0.8528  0.6298
    2TTP    C3620038   4.137   6.188   6.070  0.3338 -0.4119  0.6212
    2TTP    C3720039   4.035   6.259   5.983 -0.8753  0.6008  0.4531
    2TTP    C3820040   4.105   6.368   5.889  1.4288  0.6521 -0.1815
    2TTP    C3920041   4.209   6.323   5.799 -0.4274 -0.8156 -0.9739
    2TTP    C4020042   4.290   6.453   5.781 -0.2710  0.7011  1.9034
    2TTP    C4120043   4.431   6.435   5.790  0.1236 -0.2099  0.7489
    2TTP    C4220044   4.512   6.566   5.767 -0.7604  1.3900 -0.8882
    3TTP     S120045   4.848   5.154   5.498  0.0482 -0.1494  0.3134
    3TTP     S520046   5.197   5.402   5.462  0.3583 -0.5594  0.4849
    3TTP     C120047   5.211   5.265   5.343  0.0970 -0.3886  0.2548
    3TTP     C220048   5.104   5.181   5.347 -0.0142 -0.2518  0.1882
    3TTP     C320049   5.007   5.221   5.444  0.1030 -0.2772  0.3169
    3TTP     C420050   4.834   5.291   5.616  0.3096 -0.3202  0.5435
    3TTP    C1720051   4.941   5.376   5.613  0.4209 -0.4570  0.6102
    3TTP    C1820052   5.038   5.336   5.516  0.3035 -0.4317  0.4818
    3TTP    C3220053   5.055   5.068   5.243  0.9969  0.3651 -1.0685
    3TTP    C3320054   5.065   4.908   5.261  0.4834  0.2967 -0.2238
    3TTP    C3420055   5.077   4.860   5.416 -0.1510 -0.9943  0.4105
    3TTP    C3520056   5.161   4.742   5.448 -0.6682  0.4418  0.0703
    3TTP    C3620057   5.237   4.760   5.585 -0.2155 -0.9612 -1.0650
    3TTP    C3720058   5.303   4.627   5.626  0.3570  1.0299  0.4144
    3TTP    C3820059   5.221   4.524   5.683  1.1516 -0.2878 -0.7460
    3TTP    C3920060   5.154   4.546   5.810  1.1296  1.0051 -0.9997
    3TTP    C4020061   5.021   4.468   5.846 -1.0414  0.2292  0.6316
    3TTP    C4120062   4.951   4.466   5.974  0.0459  0.1575  0.3539
    3TTP    C4220063   5.022   4.390   6.086 -0.3212  0.7369 -0.3173
    4FIC     F120064   4.838   6.741   6.290  0.2636  0.0259 -0.3191
    4FIC     F220065   4.810   6.738   6.560 -0.3668  0.4835 -0.3752
    4FIC     O120066   4.675   6.240   6.165  0.4014 -0.1324  0.1328
    4FIC     N520067   4.654   6.377   6.861 -1.1752  1.0288 -0.1334
    4FIC     N620068   4.532   5.986   6.709 -0.9406  0.8128  0.2310
    4FIC    C1920069   4.591   6.059   6.379 -0.1523  0.2486  0.2399
    4FIC    C2020070   4.633   6.185   6.400 -0.1624  0.2706  0.1285
    4FIC    C2120071   4.675   6.272   6.285  0.1324  0.0666  0.0795
    4FIC    C2220072   4.714   6.402   6.342  0.0384  0.1501 -0.0428
    4FIC    C2320073   4.760   6.514   6.274  0.2303  0.0236 -0.1237
    4FIC    C2420074   4.792   6.626   6.350  0.0876  0.1403 -0.2348
    4FIC    C2520075   4.777   6.624   6.490 -0.2372  0.3762 -0.2634
    4FIC    C2620076   4.731   6.513   6.558 -0.4302  0.5033 -0.1833
    4FIC    C2720077   4.699   6.398   6.483 -0.2900  0.3884 -0.0703
    4FIC    C2820078   4.648   6.265   6.524 -0.4262  0.4716  0.0339
    4FIC    C2920079   4.621   6.224   6.653 -0.7374  0.6928  0.0411
    4FIC    C3020080   4.639   6.308   6.767 -0.9770  0.8768 -0.0548
    4FIC    C3120081   4.573   6.093   6.683 -0.8473  0.7577  0.1456
    5FIC     F120082   5.860   5.715   5.128 -0.5698  0.1745  0.1177
    5FIC     F220083   6.003   5.484   5.109 -0.4482  0.3098 -0.6611
    5FIC     O120084   5.370   5.521   5.253 -0.0983 -0.3963  1.0982
    5FIC     N520085   5.861   5.014   5.170  0.0628  0.0974 -1.0821
    5FIC     N620086   5.449   4.909   5.272  0.4069 -0.3760 -0.1591
    5FIC    C1920087   5.333   5.231   5.279  0.1856 -0.4699  0.7022
    5FIC    C2020088   5.451   5.289   5.249  0.0621 -0.3315  0.4859
    5FIC    C2120089   5.462   5.439   5.237 -0.0798 -0.3024  0.7119
    5FIC    C2220090   5.602   5.468   5.203 -0.1910 -0.1417  0.3852
    5FIC    C2320091   5.661   5.592   5.181 -0.3389 -0.0625  0.4420
    5FIC    C2420092   5.796   5.595   5.150 -0.4230  0.0894  0.0843
    5FIC    C2520093   5.869   5.476   5.140 -0.3599  0.1586 -0.3166
    5FIC    C2620094   5.812   5.351   5.161 -0.2123  0.0802 -0.3757
    5FIC    C2720095   5.675   5.347   5.193 -0.1255 -0.0734 -0.0173
    5FIC    C2820096   5.585   5.232   5.221  0.0324 -0.1873  0.0287
    5FIC    C2920097   5.620   5.099   5.221  0.1318 -0.1636 -0.2915
    5FIC    C3020098   5.752   5.053   5.193  0.0936 -0.0203 -0.7252
    5FIC    C3120099   5.526   4.995   5.249  0.2826 -0.2805 -0.2167
    1BTD     S220100   7.989   4.326   0.441 -0.3355  0.0209 -0.1890
    1BTD     N120101   7.819   4.313   0.498 -0.4853 -0.0874 -0.6501
    1BTD     N220102   8.028   4.154   0.475 -0.1512  0.1769  0.4203
    1BTD     N320103   7.802   3.779   0.646 -0.0454  0.2994  0.8293
    1BTD     N420104   7.544   3.976   0.675 -0.4568 -0.0263 -0.4897
    1BTD     C520105   7.678   4.134   0.590 -0.4655 -0.0516 -0.5504
    1BTD     C620106   7.801   4.187   0.537 -0.3946 -0.0060 -0.3421
    1BTD     C720107   7.918   4.098   0.524 -0.2077  0.1420  0.2571
    1BTD     C820108   7.907   3.961   0.565 -0.1009  0.2369  0.6179
    1BTD    C1520109   7.785   3.913   0.616 -0.1761  0.1875  0.3956
    1BTD    C1620110   7.672   3.999   0.629 -0.3561  0.0449 -0.1817
    1BTD    C4320111   7.479   3.857   0.755  1.3385 -1.0695 -0.9177
    1BTD    C4420112   7.405   3.854   0.889  0.9895 -0.2197  0.3230
    1BTD    C4520113   7.494   3.819   0.992 -0.2154 -0.9962 -2.9650
    1BTD    C4620114   7.534   3.940   1.091  0.6222 -0.2200 -0.5313
    1BTD    C4720115   7.324   3.715   0.874  0.7760  1.1722  0.1277
    1BTD    C4820116   7.193   3.709   0.780 -0.0477 -0.0423  0.4685
    1BTD    C4920117   7.091   3.591   0.787 -0.7018 -0.7543  0.4754
    1BTD    C5020118   7.065   3.533   0.923  0.2405  0.6757  0.2833
    1BTD    C7520119   7.716   3.674   0.589 -0.5982 -0.1543 -0.0866
    1BTD    C7620120   7.687   3.636   0.428  0.2291 -0.7269 -1.7635
    1BTD    C7720121   7.566   3.540   0.420  0.4239 -0.6689  0.0724
    1BTD    C7820122   7.433   3.584   0.466  0.0001  0.5788  0.5372
    1BTD    C7920123   7.697   3.759   0.347 -0.6890 -0.3481  0.2885
    1BTD    C8020124   7.714   3.752   0.203 -0.5233 -0.3648 -0.6480
    1BTD    C8120125   7.847   3.678   0.149 -0.6254  0.0570  0.8552
    1BTD    C8220126   7.926   3.774   0.055 -0.0600 -0.0519 -0.3995
    2TTP     S120127   7.473   4.335   0.550 -0.0162  0.3569  0.3380
    2TTP     S520128   7.182   4.020   0.588  0.6359 -0.3604 -0.5225
    2TTP     C120129   7.104   4.161   0.505  0.4318 -0.4158 -0.4255
    2TTP     C220130   7.189   4.267   0.488  0.2186 -0.1974 -0.1541
    2TTP     C320131   7.319   4.240   0.540  0.2084  0.0215 -0.0129
    2TTP     C420132   7.551   4.193   0.633  0.1879  0.4123  0.2411
    2TTP    C1720133   7.466   4.088   0.649  0.4012  0.1942 -0.0304
    2TTP    C1820134   7.336   4.115   0.597  0.4113 -0.0248 -0.1716
    2TTP    C3220135   7.172   4.395   0.410 -0.4236 -0.6049 -1.1035
    2TTP    C3320136   7.242   4.526   0.433 -0.2579 -1.1042  0.2474
    2TTP    C3420137   7.210   4.642   0.323 -0.7326 -0.5054 -0.7227
    2TTP    C3520138   7.325   4.755   0.320  0.7602  0.3853  0.2513
    2TTP    C3620139   7.463   4.691   0.281 -1.3826 -0.3310 -0.3605
    2TTP    C3720140   7.480   4.639   0.142  0.3258  1.3498 -0.4212
    2TTP    C3820141   7.581   4.528   0.117  0.3241  0.2006 -0.3898
    2TTP    C3920142   7.545   4.385   0.185  0.6573  0.0918 -0.8863
    2TTP    C4020143   7.652   4.274   0.199 -0.3768  0.0548  1.1890
    2TTP    C4120144   7.763   4.291   0.095 -0.2190  0.2369  1.2215
    2TTP    C4220145   7.880   4.196   0.051  0.1118  0.6013 -0.9640
    3TTP     S120146   8.171   3.832   0.520  0.3157 -0.0301 -0.4365
    3TTP     S520147   8.030   3.494   0.746 -0.1426  0.3330 -0.1767
    3TTP     C120148   8.210   3.480   0.727 -0.1590  0.0819 -0.1535
    3TTP     C220149   8.264   3.583   0.656 -0.0184 -0.0451 -0.2324
    3TTP     C320150   8.165   3.678   0.614  0.1075  0.0514 -0.3140
    3TTP     C420151   7.990   3.846   0.539  0.3324  0.2210 -0.4597
    3TTP    C1720152   7.936   3.742   0.609  0.1916  0.3480 -0.3808
    3TTP    C1820153   8.035   3.648   0.652  0.0658  0.2514 -0.2992
    3TTP    C3220154   8.411   3.595   0.602 -0.5200 -1.9019 -0.6206
    3TTP    C3320155   8.492   3.497   0.531  1.7475  0.2473 -0.8802
    3TTP    C3420156   8.445   3.431   0.396 -0.4482 -1.6095  0.1664
    3TTP    C3520157   8.295   3.400   0.361 -0.9631  1.4711 -1.3128
    3TTP    C3620158   8.266   3.255   0.411 -0.2818  0.3107 -0.5152
    3TTP    C3720159   8.134   3.184   0.350  0.0512  0.0186 -0.5749
    3TTP    C3820160   8.119   3.161   0.204  0.8781  0.2749  0.3872
    3TTP    C3920161   8.195   3.054   0.116  0.3880  0.8739 -0.8748
    3TTP    C4020162   8.343   3.071   0.123 -0.2345  0.7884 -2.0056
    3TTP    C4120163   8.399   3.204   0.072 -0.7022 -1.2215 -0.8763
    3TTP    C4220164   8.483   3.206  -0.049  0.3579 -1.2925 -0.0324
    4FIC     F120165   6.694   3.573   0.119 -0.0668  0.2974 -0.5399
    4FIC     F220166   6.463   3.710   0.166 -0.1590 -0.2789  0.7761
    4FIC     O120167   7.060   3.912   0.329  0.0956  0.3257 -0.8674
    4FIC     N520168   6.393   4.149   0.384 -0.1757 -1.0877  2.4346
    4FIC     N620169   6.726   4.386   0.538 -0.0304 -0.9494  1.9134
    4FIC    C1920170   6.970   4.164   0.449  0.0652 -0.2148  0.2735
    4FIC    C2020171   6.887   4.073   0.394  0.0280 -0.1994  0.3045
    4FIC    C2120172   6.940   3.946   0.335  0.0468  0.0865 -0.3037
    4FIC    C2220173   6.824   3.871   0.284 -0.0039  0.0257 -0.0967
    4FIC    C2320174   6.824   3.747   0.221 -0.0075  0.2230 -0.4886
    4FIC    C2420175   6.701   3.695   0.182 -0.0602  0.1144 -0.1816
    4FIC    C2520176   6.583   3.766   0.207 -0.1077 -0.1827  0.4964
    4FIC    C2620177   6.582   3.890   0.270 -0.1043 -0.3808  0.8904
    4FIC    C2720178   6.705   3.943   0.310 -0.0515 -0.2748  0.5885
    4FIC    C2820179   6.739   4.071   0.378 -0.0337 -0.4250  0.8620
    4FIC    C2920180   6.651   4.168   0.419 -0.0679 -0.7174  1.5084
    4FIC    C3020181   6.509   4.157   0.399 -0.1272 -0.9198  2.0154
    4FIC    C3120182   6.692   4.287   0.484 -0.0470 -0.8433  1.7275
    5FIC     F120183   8.068   3.054   1.420 -0.0060 -0.2692 -0.6258
    5FIC     F220184   8.332   2.990   1.432  0.3321  1.1778  0.1813
    5FIC     O120185   8.056   3.353   0.969 -0.3612 -0.7240 -0.9194
    5FIC     N520186   8.703   3.110   1.128  0.5651  2.9342  1.1322
    5FIC     N620187   8.641   3.357   0.773  0.2186  2.2871  0.7401
    5FIC    C1920188   8.304   3.398   0.820 -0.1648  0.4970 -0.2527
    5FIC    C2020189   8.297   3.325   0.933 -0.0887  0.5548 -0.2103
    5FIC    C2120190   8.166   3.307   1.004 -0.1986 -0.0978 -0.5675
    5FIC    C2220191   8.193   3.223   1.122 -0.0746  0.1544 -0.4165
    5FIC    C2320192   8.103   3.179   1.218 -0.1154 -0.2555 -0.6362
    5FIC    C2420193   8.152   3.101   1.322  0.0248  0.1033 -0.4271
    5FIC    C2520194   8.288   3.068   1.328  0.1985  0.8488 -0.0113
    5FIC    C2620195   8.379   3.111   1.232  0.2396  1.2611  0.2097
    5FIC    C2720196   8.331   3.191   1.127  0.1001  0.9075  0.0034
    5FIC    C2820197   8.400   3.252   1.011  0.0987  1.1833  0.1466
    5FIC    C2920198   8.534   3.243   0.981  0.2434  1.8865  0.5356
    5FIC    C3020199   8.627   3.170   1.062  0.4196  2.4601  0.8623
    5FIC    C3120200   8.592   3.305   0.867  0.2289  2.1029  0.6459
    1BTD     S220201   2.627  10.298  10.778 -0.0059  0.2638 -0.4823
    1BTD     N120202   2.705  10.443  10.707 -0.1398  0.1838 -0.7977
    1BTD     N220203   2.761  10.186  10.732  0.2182  0.3340 -0.0064
    1BTD     N320204   3.174  10.223  10.512  0.4334  0.3312  0.3943
    1BTD     N420205   3.105  10.540  10.481 -0.0075  0.1459 -0.5808
    1BTD     C520206   2.914  10.490  10.589 -0.0653  0.1664 -0.6723
    1BTD     C620207   2.820  10.404  10.656 -0.0167  0.2115 -0.5453
    1BTD     C720208   2.852  10.260  10.670  0.1835  0.2959 -0.1020
    1BTD     C820209   2.975  10.209  10.617  0.3253  0.3304  0.1910
    1BTD    C1520210   3.064  10.297  10.553  0.2712  0.2838  0.0520
    1BTD    C1620211   3.034  10.436  10.539  0.0782  0.2026 -0.3746
    1BTD    C4320212   3.253  10.546  10.428  1.4899  0.8832  0.8837
    1BTD    C4420213   3.261  10.565  10.276 -0.5193 -0.9276 -0.9334
    1BTD    C4520214   3.418  10.545  10.267  0.1646 -1.0385  0.8517
    1BTD    C4620215   3.475  10.599  10.135 -0.4754  0.6278  0.4964
    1BTD    C4720216   3.154  10.498  10.175 -0.6225 -0.5015  0.4420
    1BTD    C4820217   3.110  10.359  10.191 -0.8146  0.2537 -1.3428
    1BTD    C4920218   3.193  10.238  10.132  0.6468  0.6160  0.4138
    1BTD    C5020219   3.315  10.273  10.053 -0.3867 -0.8604 -0.8146
    1BTD    C7520220   3.308  10.265  10.509 -1.7273 -0.3298  0.9880
    1BTD    C7620221   3.418  10.254  10.625 -0.4915  0.1803  0.9298
    1BTD    C7720222   3.482  10.370  10.671 -0.3902  0.0866 -0.2406
    1BTD    C7820223   3.399  10.454  10.766 -1.1560  0.0252  1.2012
    1BTD    C7920224   3.492  10.126  10.650  0.6518  0.3875 -0.0046
    1BTD    C8020225   3.608  10.101  10.560  0.2479 -0.6713 -0.5068
    1BTD    C8120226   3.692   9.988  10.610  0.6115  0.0901  0.0973
    1BTD    C8220227   3.807   9.925  10.528 -0.0800 -0.9724 -1.0602
    2TTP     S120228   2.815  10.781  10.593 -0.0923  0.1534  0.1492
    2TTP     S520229   3.186  10.900  10.411 -0.3186  0.0041 -0.4151
    2TTP     C120230   3.088  11.049  10.444 -0.4475  0.0030 -0.7854
    2TTP     C220231   2.967  11.021  10.502 -0.3851  0.0489 -0.6330
    2TTP     C320232   2.949  10.881  10.522 -0.2335  0.0870 -0.2182
    2TTP     C420233   2.914  10.632  10.560  0.0365  0.1550  0.5193
    2TTP    C1720234   3.035  10.659  10.502 -0.0259  0.1088  0.3669
    2TTP    C1820235   3.053  10.800  10.481 -0.1775  0.0710 -0.0479
    2TTP    C3220236   2.872  11.117  10.574 -0.4408 -0.7711  1.4794
    2TTP    C3320237   2.734  11.149  10.510 -0.8643 -0.6925 -0.0084
    2TTP    C3420238   2.608  11.154  10.588 -0.8362 -0.1245  0.4092
    2TTP    C3520239   2.574  11.287  10.624 -0.3125  0.9041 -1.0014
    2TTP    C3620240   2.444  11.353  10.562 -0.4866  0.7151  0.6253
    2TTP    C3720241   2.313  11.316  10.646  0.1934 -2.0033  1.1914
    2TTP    C3820242   2.281  11.173  10.644  0.1800  2.0869 -0.9462
    2TTP    C3920243   2.181  11.136  10.530  0.5844 -0.0065 -0.8244
    2TTP    C4020244   2.144  11.199  10.398  0.6423  0.2223  0.1993
    2TTP    C4120245   2.064  11.333  10.396  0.8579  0.0432  0.5941
    2TTP    C4220246   1.959  11.337  10.279 -0.7242  0.8760  0.5366
    3TTP     S120247   2.988   9.905  10.643  0.3427  0.5234 -0.1136
    3TTP     S520248   3.308   9.897  10.356 -0.2519 -0.2873 -0.7634
    3TTP     C120249   3.260   9.725  10.394  0.0223 -0.1921  0.0469
    3TTP     C220250   3.158   9.718  10.485  0.2221  0.0639  0.2952
    3TTP     C320251   3.115   9.847  10.528  0.1658  0.1938 -0.1457
    3TTP     C420252   3.036  10.076  10.605  0.0685  0.4282 -0.9241
    3TTP    C1720253   3.138  10.084  10.514 -0.1313  0.1720 -1.1725
    3TTP    C1820254   3.181   9.954  10.472 -0.0750  0.0420 -0.7317
    3TTP    C3220255   3.083   9.597  10.524  1.0604  0.9653  0.6031
    3TTP    C3320256   3.098   9.535  10.661 -0.8065  0.1056 -0.0120
    3TTP    C3420257   3.032   9.398  10.655 -1.0469  0.1891  0.1965
    3TTP    C3520258   3.034   9.325  10.794  1.0440  0.0153  0.0237
    3TTP    C3620259   2.897   9.282  10.839  0.8849  0.6313 -0.3915
    3TTP    C3720260   2.887   9.126  10.866  0.5286 -0.0508 -0.5559
    3TTP    C3820261   2.750   9.044  10.855 -0.1368  0.5289  0.0423
    3TTP    C3920262   2.719   8.924  10.776 -0.3643  0.2918  1.0399
    3TTP    C4020263   2.823   8.823  10.814 -0.9096 -0.0032  0.3348
    3TTP    C4120264   2.875   8.757  10.682  0.3829  0.3816  0.3756
    3TTP    C4220265   2.977   8.651  10.718 -0.2062 -0.3815 -0.2525
    4FIC     F120266   3.695  11.405  10.024 -0.1923  0.0030 -0.3054
    4FIC     F220267   3.580  11.646  10.077  0.0894  0.0208  0.2451
    4FIC     O120268   3.349  11.071  10.273 -0.2030 -0.1091 -0.4692
    4FIC     N520269   3.169  11.755  10.329  0.4871 -0.0332  0.9193
    4FIC     N620270   2.922  11.445  10.514  0.4220 -0.1244  0.6802
    4FIC    C1920271   3.117  11.183  10.412  0.0625 -0.1317 -0.0018
    4FIC    C2020272   3.208  11.257  10.347  0.0542 -0.1043  0.0179
    4FIC    C2120273   3.325  11.192  10.278 -0.0862 -0.0942 -0.2317
    4FIC    C2220274   3.404  11.302  10.218 -0.0573 -0.0635 -0.1380
    4FIC    C2320275   3.521  11.291  10.145 -0.1546 -0.0449 -0.2961
    4FIC    C2420276   3.578  11.408  10.098 -0.1022 -0.0166 -0.1617
    4FIC    C2520277   3.519  11.532  10.125  0.0431 -0.0074  0.1219
    4FIC    C2620278   3.402  11.544  10.199  0.1407 -0.0259  0.2806
    4FIC    C2720279   3.343  11.426  10.247  0.0896 -0.0546  0.1483
    4FIC    C2820280   3.220  11.404  10.327  0.1640 -0.0793  0.2553
    4FIC    C2920281   3.134  11.500  10.373  0.3071 -0.0790  0.5236
    4FIC    C3020282   3.153  11.640  10.349  0.4056 -0.0538  0.7403
    4FIC    C3120283   3.018  11.469  10.450  0.3695 -0.1040  0.6084
    5FIC     F120284   4.020   9.624  10.096 -0.3301  0.9785 -0.6151
    5FIC     F220285   3.936   9.396   9.973  0.3513  0.0789  0.5562
    5FIC     O120286   3.568   9.771  10.357 -0.6947  0.8299 -1.1594
    5FIC     N520287   3.495   9.172   9.983  1.0707 -1.3206  1.8516
    5FIC     N620288   3.159   9.333  10.212  0.6485 -1.2550  1.1907
    5FIC    C1920289   3.328   9.605  10.332 -0.1733 -0.0821 -0.2337
    5FIC    C2020290   3.445   9.577  10.271 -0.1082 -0.0095 -0.1426
    5FIC    C2120291   3.564   9.667  10.289 -0.3898  0.4694 -0.6406
    5FIC    C2220292   3.674   9.608  10.210 -0.2319  0.4244 -0.3908
    5FIC    C2320293   3.803   9.656  10.195 -0.3914  0.7753 -0.6835
    5FIC    C2420294   3.890   9.583  10.115 -0.1888  0.6488 -0.3536
    5FIC    C2520295   3.847   9.465  10.052  0.1621  0.1852  0.2496
    5FIC    C2620296   3.717   9.417  10.066  0.3229 -0.1664  0.5443
    5FIC    C2720297   3.628   9.489  10.147  0.1219 -0.0453  0.2179
    5FIC    C2820298   3.486   9.466  10.182  0.2120 -0.3304  0.3943
    5FIC    C2920299   3.408   9.361  10.140  0.5311 -0.8020  0.9496
    5FIC    C3020300   3.456   9.257  10.054  0.8267 -1.0855  1.4436
    5FIC    C3120301   3.272   9.346  10.180  0.5937 -1.0488  1.0788
    1BTD     S220302   1.700   5.300   0.095  0.2127 -0.5090 -0.2696
    1BTD     N120303   1.843   5.398   0.048  0.2747 -0.5648 -0.1977
    1BTD     N220304   1.598   5.357  -0.042  0.1599 -0.1465 -0.0837
    1BTD     N320305   1.649   5.649  -0.407  0.1642  0.4920  0.4251
    1BTD     N420306   1.951   5.700  -0.296  0.3056 -0.0232  0.2844
    1BTD     C520307   1.895   5.555  -0.133  0.2891 -0.2757  0.0558
    1BTD     C620308   1.809   5.465  -0.062  0.2539 -0.3226 -0.0465
    1BTD     C720309   1.672   5.441  -0.113  0.1896 -0.0886  0.0172
    1BTD     C820310   1.628   5.510  -0.231  0.1639  0.1807  0.1802
    1BTD    C1520311   1.716   5.598  -0.297  0.2001  0.2170  0.2760
    1BTD    C1620312   1.848   5.620  -0.249  0.2620 -0.0088  0.2146
    1BTD    C4320313   1.952   5.796  -0.405  1.4179 -0.1735  1.9760
    1BTD    C4420314   2.076   5.826  -0.495  0.5917 -0.5514 -0.7357
    1BTD    C4520315   2.123   5.706  -0.581  0.0942  0.1163  1.2453
    1BTD    C4620316   2.225   5.613  -0.502  0.3372  1.2495  1.0364
    1BTD    C4720317   2.079   5.942  -0.600  0.0309 -0.2094 -0.0701
    1BTD    C4820318   1.982   5.957  -0.716 -0.3375 -0.3589 -0.4810
    1BTD    C4920319   1.998   6.093  -0.779  0.9345  1.3554 -0.0895
    1BTD    C5020320   1.849   6.126  -0.810  1.5557 -0.2484 -0.4917
    1BTD    C7520321   1.681   5.700  -0.541 -0.4596  0.4641 -0.8705
    1BTD    C7620322   1.747   5.625  -0.654  0.3631 -0.0082  1.5264
    1BTD    C7720323   1.741   5.698  -0.793  0.6088 -1.2624 -0.6120
    1BTD    C7820324   1.623   5.793  -0.831 -0.9587  0.1092 -0.3637
    1BTD    C7920325   1.775   5.475  -0.664  0.8479  0.2645 -0.4411
    1BTD    C8020326   1.814   5.421  -0.804 -0.2340  0.5822 -0.8187
    1BTD    C8120327   1.965   5.435  -0.840 -1.2265 -0.2040 -0.1522
    1BTD    C8220328   1.985   5.471  -0.994  0.5693  0.1218  0.0976
    2TTP     S120329   2.094   5.649   0.068 -0.0882 -0.2370  0.0276
    2TTP     S520330   2.206   5.950  -0.217 -0.0153 -0.4174 -0.1347
    2TTP     C120331   2.291   5.984  -0.060  0.1959 -0.5022 -0.2310
    2TTP     C220332   2.262   5.893   0.037  0.1857 -0.4514 -0.1864
    2TTP     C320333   2.170   5.793  -0.009  0.0110 -0.3438 -0.0749
    2TTP     C420334   2.008   5.615  -0.089 -0.2995 -0.1522  0.1237
    2TTP    C1720335   2.038   5.706  -0.186 -0.2893 -0.2029  0.0791
    2TTP    C1820336   2.129   5.806  -0.140 -0.1144 -0.3105 -0.0324
    2TTP    C3220337   2.317   5.928   0.164  0.4061  0.7894 -2.0561
    2TTP    C3320338   2.235   6.013   0.271  0.5010 -0.8445 -0.1396
    2TTP    C3420339   2.295   6.013   0.403 -0.3846  0.5005 -0.3122
    2TTP    C3520340   2.435   6.066   0.454 -0.6626  0.2416  0.4009
    2TTP    C3620341   2.503   5.984   0.573 -0.0001  1.8364  0.2824
    2TTP    C3720342   2.590   6.052   0.679  0.6919 -0.3888  0.4106
    2TTP    C3820343   2.618   6.211   0.652 -0.3074  0.1538 -0.3954
    2TTP    C3920344   2.689   6.270   0.534  0.8644  1.9886 -0.0871
    2TTP    C4020345   2.666   6.416   0.524  1.2223 -1.2194  0.8870
    2TTP    C4120346   2.529   6.493   0.523 -0.3802  0.1678 -1.0671
    2TTP    C4220347   2.416   6.414   0.459 -1.8906 -0.3266  0.4763
    3TTP     S120348   1.340   5.445  -0.287 -0.3295 -0.0989 -0.2141
    3TTP     S520349   1.346   5.718  -0.619 -0.1698  0.8018  0.5252
    3TTP     C120350   1.178   5.650  -0.603 -0.2783  1.0590  0.5000
    3TTP     C220351   1.166   5.561  -0.500 -0.3340  0.7961  0.2704
    3TTP     C320352   1.289   5.544  -0.429 -0.2930  0.3821  0.1059
    3TTP     C420353   1.507   5.513  -0.303 -0.2210 -0.3560 -0.1886
    3TTP    C1720354   1.519   5.602  -0.406 -0.1653 -0.0930  0.0408
    3TTP    C1820355   1.396   5.619  -0.477 -0.2063  0.3210  0.2053
    3TTP    C3220356   1.030   5.511  -0.444 -0.4998  0.1216 -0.1748
    3TTP    C3320357   0.972   5.611  -0.333  0.2134 -0.1770 -0.3956
    3TTP    C3420358   1.050   5.690  -0.219 -0.2397 -0.3725 -1.3347
    3TTP    C3520359   0.973   5.794  -0.120 -2.0318 -0.2109  0.2099
    3TTP    C3620360   1.060   5.841   0.004  0.6987  0.0979  0.7425
    3TTP    C3720361   1.211   5.862  -0.024  0.5023 -0.5381  0.4840
    3TTP    C3820362   1.231   6.004  -0.082  0.2382  0.7568  0.4713
    3TTP    C3920363   1.374   6.023  -0.139  1.2228 -1.3096 -0.3011
    3TTP    C4020364   1.404   6.168  -0.194 -1.0835  0.3294  0.6399
    3TTP    C4120365   1.508   6.266  -0.119  0.2639  0.8126  1.0030
    3TTP    C4220366   1.483   6.294   0.025  1.0910  0.3846 -0.4029
    4FIC     F120367   2.342   6.718  -0.430  0.1482 -0.1776 -0.7052
    4FIC     F220368   2.579   6.758  -0.301 -0.1321 -0.0468 -0.2277
    4FIC     O120369   2.204   6.230  -0.239 -0.3288  0.0709 -0.4127
    4FIC     N520370   2.819   6.469   0.020 -0.8749  0.3182  0.6664
    4FIC     N620371   2.663   6.080   0.144 -1.1910  0.4859  0.7987
    4FIC    C1920372   2.380   6.096  -0.048 -0.7659  0.2841  0.1466
    4FIC    C2020373   2.406   6.217  -0.101 -0.6350  0.2165  0.0546
    4FIC    C2120374   2.310   6.280  -0.199 -0.4123  0.1081 -0.2360
    4FIC    C2220375   2.368   6.410  -0.236 -0.3144  0.0557 -0.2677
    4FIC    C2320376   2.315   6.504  -0.324 -0.1094 -0.0458 -0.5012
    4FIC    C2420377   2.388   6.620  -0.344 -0.0523 -0.0783 -0.4817
    4FIC    C2520378   2.510   6.641  -0.278 -0.1969 -0.0107 -0.2355
    4FIC    C2620379   2.563   6.547  -0.190 -0.4018  0.0907 -0.0019
    4FIC    C2720380   2.491   6.429  -0.168 -0.4624  0.1248 -0.0176
    4FIC    C2820381   2.519   6.311  -0.083 -0.6652  0.2263  0.1903
    4FIC    C2920382   2.629   6.293  -0.002 -0.8462  0.3128  0.4573
    4FIC    C3020383   2.733   6.390   0.010 -0.8613  0.3154  0.5713
    4FIC    C3120384   2.647   6.176   0.078 -1.0350  0.4076  0.6437
    5FIC     F120385   1.127   5.852  -1.399 -0.2258  0.2444  0.1743
    5FIC     F220386   0.859   5.805  -1.390 -0.1337 -0.2892  0.1941
    5FIC     O120387   1.269   5.744  -0.888 -0.0242  0.8655  0.2520
    5FIC     N520388   0.575   5.660  -1.011  0.1425 -0.6135  0.2780
    5FIC     N620389   0.740   5.585  -0.614  0.2814 -0.0206  0.3347
    5FIC    C1920390   1.063   5.660  -0.697  0.1354  0.5764  0.2986
    5FIC    C2020391   1.038   5.689  -0.826  0.0811  0.4410  0.2782
    5FIC    C2120392   1.149   5.732  -0.918  0.0002  0.6044  0.2551
    5FIC    C2220393   1.087   5.755  -1.050 -0.0436  0.3936  0.2365
    5FIC    C2320394   1.151   5.796  -1.167 -0.1210  0.4438  0.2122
    5FIC    C2420395   1.071   5.812  -1.280 -0.1497  0.2100  0.1985
    5FIC    C2520396   0.933   5.788  -1.275 -0.1021 -0.0646  0.2085
    5FIC    C2620397   0.870   5.747  -1.158 -0.0249 -0.1162  0.2327
    5FIC    C2720398   0.948   5.730  -1.043  0.0053  0.1177  0.2470
    5FIC    C2820399   0.912   5.689  -0.905  0.0838  0.1360  0.2732
    5FIC    C2920400   0.787   5.656  -0.860  0.1469 -0.0875  0.2894
    5FIC    C3020401   0.671   5.659  -0.943  0.1442 -0.3759  0.2830
    5FIC    C3120402   0.762   5.617  -0.725  0.2206 -0.0495  0.3140
    1BTD     S220403   5.107   4.778   3.160  0.3206  0.3495 -0.0034
    1BTD     N120404   5.075   4.912   3.276  0.1575  0.2350  0.0850
    1BTD     N220405   5.280   4.760   3.206  0.3164  0.4628  0.0566
    1BTD     N320406   5.575   4.966   3.507  0.0132  0.4858  0.3382
    1BTD     N420407   5.323   5.153   3.594 -0.1824  0.2049  0.3733
    1BTD     C520408   5.208   5.035   3.441 -0.0176  0.2226  0.2351
    1BTD     C620409   5.189   4.935   3.339  0.1109  0.2841  0.1512
    1BTD     C720410   5.304   4.850   3.300  0.1996  0.4117  0.1352
    1BTD     C820411   5.431   4.870   3.364  0.1557  0.4715  0.2040
    1BTD    C1520412   5.444   4.969   3.463  0.0292  0.4075  0.2851
    1BTD    C1620413   5.334   5.051   3.501 -0.0564  0.2846  0.3005
    1BTD    C4320414   5.420   5.179   3.714  1.0021  0.3415  0.0951
    1BTD    C4420415   5.385   5.151   3.854 -0.0278  0.1424 -0.3357
    1BTD    C4520416   5.284   5.028   3.888  0.4702 -1.6786  0.4153
    1BTD    C4620417   5.232   5.014   4.040 -0.5864 -0.2313  0.3121
    1BTD    C4720418   5.491   5.163   3.958 -0.0864 -0.3632 -0.6709
    1BTD    C4820419   5.578   5.303   3.968  0.4988  0.4410  0.3905
    1BTD    C4920420   5.565   5.409   3.867 -0.0310 -0.0726 -1.0349
    1BTD    C5020421   5.595   5.542   3.938  1.2297  0.8220 -0.4321
    1BTD    C7520422   5.654   5.047   3.604 -0.1203  0.2940  1.8435
    1BTD    C7620423   5.744   5.166   3.548  0.7276  1.0846  0.4842
    1BTD    C7720424   5.881   5.198   3.609  0.1285 -0.4079  0.3629
    1BTD    C7820425   5.982   5.090   3.631  0.7271  0.9817  0.5972
    1BTD    C7920426   5.710   5.218   3.398  0.4305  1.1540 -0.3900
    1BTD    C8020427   5.764   5.357   3.376 -0.2493  0.7028 -0.0004
    1BTD    C8120428   5.642   5.468   3.378  0.7355  1.0473 -0.4788
    1BTD    C8220429   5.645   5.539   3.511  0.8686 -0.5774  0.2464
    2TTP     S120430   4.948   5.207   3.490 -0.0460  0.2694 -0.1698
    2TTP     S520431   5.166   5.425   3.790  0.3272  0.4629 -0.5804
    2TTP     C120432   4.998   5.496   3.777  0.3229  0.4783 -0.4436
    2TTP     C220433   4.921   5.432   3.684  0.2074  0.4194 -0.3087
    2TTP     C320434   4.991   5.326   3.619  0.1180  0.3600 -0.3086
    2TTP     C420435   5.115   5.136   3.503 -0.0416  0.2542 -0.3067
    2TTP    C1720436   5.192   5.200   3.596  0.0739  0.3129 -0.4414
    2TTP    C1820437   5.122   5.306   3.661  0.1630  0.3723 -0.4417
    2TTP    C3220438   4.783   5.463   3.651  0.2013 -0.1597  0.1203
    2TTP    C3320439   4.698   5.382   3.566 -0.4879 -0.2573 -0.0453
    2TTP    C3420440   4.615   5.293   3.656 -0.5076 -0.8102  0.7539
    2TTP    C3520441   4.470   5.335   3.686 -0.2656  0.1114 -0.5211
    2TTP    C3620442   4.407   5.245   3.807  1.4184 -0.1172  0.3388
    2TTP    C3720443   4.277   5.300   3.871  0.5432 -0.8677  0.2452
    2TTP    C3820444   4.154   5.211   3.860  0.6060 -0.5218  0.0287
    2TTP    C3920445   4.151   5.095   3.976  1.6969  0.2219  0.3001
    2TTP    C4020446   4.147   5.133   4.123 -0.8327 -0.0336  0.8582
    2TTP    C4120447   4.142   5.024   4.224 -0.1344  0.2979 -0.9394
    2TTP    C4220448   4.185   5.080   4.364 -0.2137 -0.0478  0.1466
    3TTP     S120449   5.637   4.685   3.241  0.4487 -0.1032  0.2299
    3TTP     S520450   5.903   4.781   3.565 -0.1335  0.4511  0.5484
    3TTP     C120451   5.973   4.641   3.472  0.2229  0.5354  0.6858
    3TTP     C220452   5.895   4.603   3.366  0.4236  0.3693  0.5956
    3TTP     C320453   5.777   4.683   3.355  0.3033  0.1693  0.4146
    3TTP     C420454   5.567   4.825   3.333  0.0924 -0.1876  0.0925
    3TTP    C1720455   5.645   4.863   3.439 -0.1085 -0.0216  0.1828
    3TTP    C1820456   5.763   4.783   3.450  0.0120  0.1785  0.3637
    3TTP    C3220457   5.920   4.514   3.240  0.4045  1.2932  0.1325
    3TTP    C3320458   5.981   4.567   3.115  0.0580 -0.8444 -0.5409
    3TTP    C3420459   6.132   4.607   3.109  1.0468 -1.0672  0.6500
    3TTP    C3520460   6.241   4.512   3.138  0.2727  0.8703 -0.1070
    3TTP    C3620461   6.343   4.471   3.028  0.6740 -0.3267  0.5837
    3TTP    C3720462   6.281   4.429   2.884 -0.5338  0.9975 -0.1386
    3TTP    C3820463   6.190   4.294   2.889 -0.4526 -0.1714  0.3853
    3TTP    C3920464   6.104   4.270   2.770 -0.0423 -0.3272  0.6858
    3TTP    C4020465   6.023   4.148   2.773  0.2843  0.3646  0.2185
    3TTP    C4120466   6.106   4.043   2.699 -0.7138 -0.3152 -0.2814
    3TTP    C4220467   6.020   3.936   2.640  0.9936  1.3587  0.0846
    4FIC     F120468   5.321   6.097   4.230  0.1295  0.3449 -0.9006
    4FIC     F220469   5.071   6.150   4.322  0.1869 -0.2614 -0.3860
    4FIC     O120470   5.219   5.699   3.878  0.3266  0.3458 -0.9591
    4FIC     N520471   4.638   5.941   4.204  0.4098 -1.1324  0.3119
    4FIC     N620472   4.609   5.619   3.911  0.5522 -1.0092  0.1625
    4FIC    C1920473   4.944   5.607   3.841  0.4516 -0.2330 -0.4883
    4FIC    C2020474   4.979   5.705   3.926  0.3996 -0.2097 -0.4937
    4FIC    C2120475   5.123   5.747   3.940  0.3370  0.0962 -0.7433
    4FIC    C2220476   5.126   5.855   4.040  0.2912  0.0396 -0.6803
    4FIC    C2320477   5.237   5.925   4.085  0.2270  0.2536 -0.8492
    4FIC    C2420478   5.216   6.024   4.180  0.1931  0.1457 -0.7447
    4FIC    C2520479   5.086   6.051   4.228  0.2227 -0.1666 -0.4796
    4FIC    C2620480   4.975   5.981   4.183  0.2868 -0.3815 -0.3102
    4FIC    C2720481   4.995   5.881   4.086  0.3219 -0.2766 -0.4122
    4FIC    C2820482   4.899   5.790   4.019  0.3897 -0.4423 -0.2869
    4FIC    C2920483   4.763   5.785   4.038  0.4348 -0.7517 -0.0287
    4FIC    C3020484   4.695   5.871   4.129  0.4209 -0.9600  0.1576
    4FIC    C3120485   4.679   5.694   3.968  0.4991 -0.8916  0.0750
    5FIC     F120486   6.672   4.893   3.813  0.3116 -0.1016 -0.1389
    5FIC     F220487   6.725   4.633   3.876 -0.3480 -0.0709  0.5725
    5FIC     O120488   6.206   4.840   3.543  0.6710  0.2505 -0.8327
    5FIC     N520489   6.469   4.222   3.774 -1.0395  0.2241  1.1008
    5FIC     N620490   6.094   4.233   3.550 -0.6257  0.4929  0.4152
    5FIC    C1920491   6.091   4.573   3.507  0.1690  0.4047 -0.3996
    5FIC    C2020492   6.206   4.596   3.572  0.1042  0.3151 -0.2528
    5FIC    C2120493   6.259   4.736   3.587  0.3755  0.2397 -0.4935
    5FIC    C2220494   6.385   4.726   3.663  0.2210  0.1512 -0.2474
    5FIC    C2320495   6.470   4.830   3.701  0.3740  0.0619 -0.3442
    5FIC    C2420496   6.584   4.795   3.773  0.1765 -0.0115 -0.0626
    5FIC    C2520497   6.611   4.662   3.805 -0.1634  0.0044  0.3037
    5FIC    C2620498   6.526   4.558   3.767 -0.3173  0.0933  0.4024
    5FIC    C2720499   6.411   4.591   3.695 -0.1215  0.1682  0.1210
    5FIC    C2820500   6.302   4.505   3.640 -0.2069  0.2697  0.1322
    5FIC    C2920501   6.292   4.369   3.651 -0.5152  0.3134  0.4407
    5FIC    C3020502   6.389   4.289   3.719 -0.8025  0.2639  0.8025
    5FIC    C3120503   6.183   4.295   3.595 -0.5742  0.4119  0.4249
    1BTD     S220504   4.523  10.590   6.211 -0.1997  0.2080 -0.0132
    1BTD     N120505   4.560  10.447   6.313  0.4196  0.3374 -0.0509
    1BTD     N220506   4.481  10.696   6.350 -0.8028 -0.0465  0.0060
    1BTD     N320507   4.463  10.654   6.817 -0.9136 -0.3309 -0.0240
    1BTD     N420508   4.561  10.347   6.772  0.5927  0.1419 -0.0938
    1BTD     C520509   4.559  10.398   6.553  0.4920  0.2296 -0.0725
    1BTD     C620510   4.541  10.484   6.439  0.1585  0.1919 -0.0476
    1BTD     C720511   4.496  10.623   6.459 -0.5257 -0.0229 -0.0160
    1BTD     C820512   4.473  10.671   6.593 -0.8426 -0.1891 -0.0105
    1BTD    C1520513   4.493  10.583   6.702 -0.4970 -0.1451 -0.0355
    1BTD    C1620514   4.535  10.449   6.682  0.1623  0.0621 -0.0661
    1BTD    C4320515   4.595  10.336   6.915 -0.7706 -0.2159 -0.6487
    1BTD    C4420516   4.491  10.272   7.014  0.7476 -0.3327 -0.6527
    1BTD    C4520517   4.367  10.181   6.976  1.2339 -0.4787 -0.9338
    1BTD    C4620518   4.419  10.062   6.915 -0.2194  0.9403  0.5517
    1BTD    C4720519   4.541  10.249   7.155 -0.5845 -0.5994 -1.7981
    1BTD    C4820520   4.687  10.245   7.195 -0.0717  0.3883 -0.6861
    1BTD    C4920521   4.723  10.214   7.335  0.8602  0.0409  0.2834
    1BTD    C5020522   4.813  10.310   7.413  0.3761  0.6985 -1.5358
    1BTD    C7520523   4.438  10.605   6.954 -1.0143  0.5989  0.0296
    1BTD    C7620524   4.306  10.594   7.035  0.3088 -0.6069 -0.1165
    1BTD    C7720525   4.190  10.542   6.961 -0.2743 -0.1482  0.5764
    1BTD    C7820526   4.045  10.544   7.020 -0.4257  0.3415 -0.1507
    1BTD    C7920527   4.333  10.575   7.173  0.6471  0.1867 -1.7090
    1BTD    C8020528   4.257  10.674   7.262 -0.4894 -0.0379  0.3430
    1BTD    C8120529   4.274  10.647   7.406 -0.1382 -1.4737  0.2174
    1BTD    C8220530   4.174  10.742   7.481  0.2250 -0.6941  0.7738
    2TTP     S120531   4.710  10.157   6.471  0.4268  0.4482  0.0118
    2TTP     S520532   4.793  10.063   6.882 -0.5099  0.7124  0.2677
    2TTP     C120533   4.897   9.957   6.776 -0.5760  0.3445  0.5667
    2TTP     C220534   4.877   9.980   6.643 -0.2906  0.2410  0.5052
    2TTP     C320535   4.779  10.082   6.620 -0.0095  0.4489  0.2198
    2TTP     C420536   4.606  10.263   6.577  0.4928  0.8159 -0.2871
    2TTP    C1720537   4.626  10.240   6.710  0.2075  0.9194 -0.2258
    2TTP    C1820538   4.723  10.138   6.733 -0.0736  0.7117  0.0596
    2TTP    C3220539   4.947   9.913   6.525 -0.0624 -1.1724  0.5840
    2TTP    C3320540   4.900   9.786   6.445  0.2899 -0.5785 -0.6035
    2TTP    C3420541   4.741   9.780   6.426 -0.1084  0.1683 -0.2565
    2TTP    C3520542   4.665   9.714   6.543  0.6984  0.2303  0.5113
    2TTP    C3620543   4.576   9.777   6.652  0.6156 -1.5166  0.2349
    2TTP    C3720544   4.442   9.820   6.591  0.2654  0.0489  0.6987
    2TTP    C3820545   4.337   9.788   6.691 -0.4589  0.4299  1.4632
    2TTP    C3920546   4.207   9.784   6.599  0.4889  1.4232 -1.0972
    2TTP    C4020547   4.063   9.761   6.682 -1.3560 -0.1978  0.8504
    2TTP    C4120548   4.067   9.845   6.811  0.0295 -0.2923 -1.6897
    2TTP    C4220549   3.969   9.771   6.921  0.7016 -0.9417 -0.6937
    3TTP     S120550   4.427  10.969   6.599 -0.5435 -0.0677 -0.3471
    3TTP     S520551   4.365  10.948   7.024 -0.3988  0.2856 -0.3076
    3TTP     C120552   4.359  11.122   6.973 -0.5153  0.2365 -0.4661
    3TTP     C220553   4.378  11.139   6.839 -0.5670  0.1240 -0.4878
    3TTP     C320554   4.397  11.015   6.771 -0.5163  0.0732 -0.3798
    3TTP     C420555   4.432  10.794   6.649 -0.4268 -0.0188 -0.1887
    3TTP    C1720556   4.414  10.777   6.783 -0.3753  0.0938 -0.1670
    3TTP    C1820557   4.394  10.902   6.851 -0.4261  0.1447 -0.2750
    3TTP    C3220558   4.360  11.257   6.743 -0.6245 -0.8052 -1.7722
    3TTP    C3320559   4.256  11.256   6.635  0.5366  0.5344 -0.0160
    3TTP    C3420560   4.098  11.255   6.653  0.3129  1.4648  0.3024
    3TTP    C3520561   3.992  11.291   6.548 -0.4892 -1.7781 -0.6740
    3TTP    C3620562   4.011  11.445   6.517 -0.4827  0.2204 -0.2533
    3TTP    C3720563   3.989  11.483   6.379  1.1236 -1.5351  1.2683
    3TTP    C3820564   4.018  11.630   6.366  0.2387  0.4211  0.4266
    3TTP    C3920565   4.074  11.671   6.225  0.6034 -0.0937 -1.3654
    3TTP    C4020566   4.080  11.830   6.213 -0.8185  1.0643  1.2771
    3TTP    C4120567   4.171  11.870   6.085  0.6180  1.0361 -1.6762
    3TTP    C4220568   4.234  11.997   6.069 -1.2648 -0.1939  0.5519
    4FIC     F120569   5.094   9.653   7.518  0.1931 -0.4985 -0.0129
    4FIC     F220570   5.204   9.436   7.396  0.3686 -0.2911 -0.2249
    4FIC     O120571   4.931   9.941   7.090 -0.1481 -0.2677  0.2711
    4FIC     N520572   5.246   9.330   6.914  0.3777  0.1719 -0.3276
    4FIC     N620573   5.096   9.599   6.604  0.0758  0.3107 -0.0629
    4FIC    C1920574   4.978   9.837   6.821 -0.1015  0.0125  0.1693
    4FIC    C2020575   5.015   9.772   6.933 -0.0226 -0.0534  0.1062
    4FIC    C2120576   4.987   9.833   7.068 -0.0529 -0.1976  0.1646
    4FIC    C2220577   5.040   9.738   7.168  0.0519 -0.2384  0.0714
    4FIC    C2320578   5.037   9.750   7.307  0.0658 -0.3631  0.0832
    4FIC    C2420579   5.093   9.647   7.381  0.1733 -0.3779 -0.0181
    4FIC    C2520580   5.150   9.536   7.317  0.2635 -0.2709 -0.1272
    4FIC    C2620581   5.153   9.523   7.179  0.2503 -0.1459 -0.1396
    4FIC    C2720582   5.096   9.626   7.102  0.1421 -0.1292 -0.0381
    4FIC    C2820583   5.083   9.643   6.956  0.0999 -0.0112 -0.0212
    4FIC    C2920584   5.127   9.555   6.859  0.1624  0.1128 -0.1070
    4FIC    C3020585   5.192   9.432   6.890  0.2806  0.1447 -0.2280
    4FIC    C3120586   5.110   9.580   6.719  0.1144  0.2208 -0.0821
    5FIC     F120587   4.300  11.329   7.770 -0.3681 -0.0151 -0.1036
    5FIC     F220588   4.457  11.545   7.717  0.0404 -0.2537  0.1255
    5FIC     O120589   4.248  11.115   7.276 -0.3124  0.2937 -0.2443
    5FIC     N520590   4.646  11.702   7.287  0.6673 -0.3767  0.3552
    5FIC     N620591   4.575  11.490   6.912  0.6285 -0.0874  0.1993
    5FIC    C1920592   4.380  11.244   7.049  0.0976  0.1753 -0.0751
    5FIC    C2020593   4.387  11.290   7.176  0.0676  0.1070 -0.0486
    5FIC    C2120594   4.316  11.218   7.287 -0.1479  0.1748 -0.1404
    5FIC    C2220595   4.344  11.293   7.410 -0.1246  0.0725 -0.0826
    5FIC    C2320596   4.300  11.265   7.539 -0.2812  0.0881 -0.1324
    5FIC    C2420597   4.340  11.351   7.640 -0.2211 -0.0234 -0.0601
    5FIC    C2520598   4.421  11.462   7.612 -0.0105 -0.1462  0.0579
    5FIC    C2620599   4.465  11.491   7.484  0.1466 -0.1625  0.1082
    5FIC    C2720600   4.426  11.405   7.380  0.0888 -0.0508  0.0365
    5FIC    C2820601   4.456  11.407   7.235  0.2154 -0.0345  0.0620
    5FIC    C2920602   4.532  11.500   7.168  0.4284 -0.1319  0.1681
    5FIC    C3020603   4.595  11.611   7.234  0.5590 -0.2662  0.2706
    5FIC    C3120604   4.555  11.494   7.028  0.5372 -0.1069  0.1844
    1BTD     S220605   9.850   6.868   4.306 -0.2363 -0.2507 -0.5436
    1BTD     N120606  10.017   6.917   4.262 -0.1235 -0.2862 -0.1682
    1BTD     N220607   9.775   7.020   4.247 -0.0508 -0.1699 -0.5749
    1BTD     N320608   9.922   7.417   4.044  0.5302 -0.0690  0.0391
    1BTD     N420609  10.222   7.290   4.062  0.4408 -0.2124  0.5403
    1BTD     C520610  10.120   7.113   4.157  0.1724 -0.2458  0.1957
    1BTD     C620611  10.009   7.037   4.207  0.0381 -0.2384 -0.0896
    1BTD     C720612   9.873   7.095   4.199  0.0789 -0.1734 -0.3173
    1BTD     C820613   9.855   7.225   4.141  0.2515 -0.1191 -0.2483
    1BTD    C1520614   9.967   7.296   4.094  0.3786 -0.1288  0.0340
    1BTD    C1620615  10.099   7.240   4.102  0.3396 -0.1914  0.2532
    1BTD    C4320616  10.289   7.423   4.038  0.2779  0.0489  0.1513
    1BTD    C4420617  10.350   7.511   4.159  0.3967  0.0958  2.4238
    1BTD    C4520618  10.473   7.451   4.190 -0.5844  0.6768 -0.4201
    1BTD    C4620619  10.540   7.514   4.326  0.8212 -1.2290  0.3857
    1BTD    C4720620  10.352   7.660   4.113  0.1680  0.2437 -0.7148
    1BTD    C4820621  10.407   7.738   4.002  0.0496 -0.0913  1.7980
    1BTD    C4920622  10.390   7.890   4.028  0.1355 -0.5055 -0.3772
    1BTD    C5020623  10.496   7.995   3.989  0.3166  0.3488 -0.5730
    1BTD    C7520624   9.986   7.540   4.015  0.2454 -0.0319 -0.4397
    1BTD    C7620625   9.951   7.662   4.090 -0.3298 -0.6538 -0.8244
    1BTD    C7720626   9.999   7.790   4.027  0.6721 -0.3284 -1.1119
    1BTD    C7820627   9.977   7.842   3.879  0.2245 -1.3907  0.1021
    1BTD    C7920628   9.986   7.654   4.245 -0.2891 -0.7696  0.3586
    1BTD    C8020629   9.921   7.757   4.337 -0.5043  0.6153 -0.5073
    1BTD    C8120630   9.841   7.692   4.437 -0.1208  0.0142 -0.8962
    1BTD    C8220631   9.876   7.557   4.509 -0.6919  0.5735  2.1077
    2TTP     S120632  10.378   6.946   4.162 -0.4276  0.1587 -0.0386
    2TTP     S520633  10.574   7.245   3.923  0.8051 -0.1901  0.5224
    2TTP     C120634  10.687   7.104   3.944  0.3192 -0.5941  0.4637
    2TTP     C220635  10.633   7.004   4.019 -0.0899 -0.5103  0.2871
    2TTP     C320636  10.501   7.034   4.063 -0.0348 -0.1239  0.1915
    2TTP     C420637  10.265   7.087   4.141  0.0584  0.5627  0.0199
    2TTP    C1720638  10.319   7.188   4.066  0.4674  0.4788  0.1967
    2TTP    C1820639  10.452   7.157   4.023  0.4122  0.0924  0.2921
    2TTP    C3220640  10.680   6.866   4.065 -0.4708 -0.2130 -0.0005
    2TTP    C3320641  10.743   6.871   4.208 -0.2607  0.0331  0.4473
    2TTP    C3420642  10.652   6.798   4.296  1.5282  0.4195  0.0259
    2TTP    C3520643  10.698   6.681   4.360 -1.4015  1.8605 -0.3536
    2TTP    C3620644  10.657   6.551   4.289 -0.3567 -0.9192  0.0456
    2TTP    C3720645  10.753   6.430   4.289  0.0779 -0.6965  0.6526
    2TTP    C3820646  10.850   6.423   4.164  0.3591 -0.3999  0.5013
    2TTP    C3920647  10.961   6.305   4.183 -0.7031 -0.2104 -0.0006
    2TTP    C4020648  11.060   6.272   4.060  0.8796  0.2272  0.6060
    2TTP    C4120649  11.140   6.394   4.033  0.3291  0.3303  0.5781
    2TTP    C4220650  11.245   6.334   3.930  0.1452 -0.0320 -1.1147
    3TTP     S120651   9.555   7.285   4.121 -0.2552 -0.5456 -0.3135
    3TTP     S520652   9.643   7.639   3.893  0.3862 -0.4933  0.0111
    3TTP     C120653   9.463   7.617   3.899  0.3548 -0.2943 -0.1952
    3TTP     C220654   9.425   7.507   3.969  0.1550 -0.2985 -0.3077
    3TTP     C320655   9.537   7.435   4.022  0.0193 -0.4594 -0.2350
    3TTP     C420656   9.736   7.306   4.115 -0.2239 -0.7447 -0.1072
    3TTP    C1720657   9.774   7.417   4.044 -0.0238 -0.7402  0.0054
    3TTP    C1820658   9.661   7.489   3.992  0.1118 -0.5796 -0.0675
    3TTP    C3220659   9.293   7.450   3.992  0.8956 -0.2196  0.3598
    3TTP    C3320660   9.236   7.380   3.866  0.2610  0.8203  0.0883
    3TTP    C3420661   9.093   7.337   3.822  0.4148 -0.1231 -0.2981
    3TTP    C3520662   8.985   7.442   3.790  0.5370  0.3417 -0.0536
    3TTP    C3620663   8.903   7.416   3.661  1.1552  0.9009 -0.5353
    3TTP    C3720664   8.790   7.306   3.660  0.0035  0.6647 -0.8522
    3TTP    C3820665   8.809   7.166   3.724  0.4570  1.0000  0.4606
    3TTP    C3920666   8.684   7.075   3.741 -0.0705  0.1148 -0.0608
    3TTP    C4020667   8.687   6.930   3.790 -0.0896  0.7755  0.4367
    3TTP    C4120668   8.606   6.893   3.915 -0.6972  1.2296  0.7971
    3TTP    C4220669   8.462   6.858   3.901  0.9160 -0.0608 -1.1527
    4FIC     F120670  11.052   7.330   3.257  0.5243  0.2049  0.4000
    4FIC     F220671  11.241   7.140   3.304  0.1223 -0.2589  0.1636
    4FIC     O120672  10.738   7.273   3.694  0.4449  0.3748  0.3654
    4FIC     N520673  11.290   6.827   3.684 -0.5124 -0.8044 -0.2012
    4FIC     N620674  11.006   6.820   4.016 -0.4928 -0.5782 -0.1805
    4FIC    C1920675  10.808   7.072   3.895  0.0326 -0.0078  0.1272
    4FIC    C2020676  10.879   7.093   3.783  0.0687 -0.0325  0.1451
    4FIC    C2120677  10.837   7.199   3.685  0.2849  0.1726  0.2703
    4FIC    C2220678  10.936   7.196   3.575  0.2682  0.0855  0.2574
    4FIC    C2320679  10.939   7.275   3.461  0.4277  0.2112  0.3486
    4FIC    C2420680  11.043   7.254   3.372  0.3743  0.0910  0.3144
    4FIC    C2520681  11.140   7.157   3.396  0.1670 -0.1481  0.1924
    4FIC    C2620682  11.138   7.077   3.510  0.0069 -0.2747  0.1009
    4FIC    C2720683  11.034   7.097   3.602  0.0582 -0.1559  0.1339
    4FIC    C2820684  11.002   7.030   3.730 -0.0727 -0.2378  0.0600
    4FIC    C2920685  11.074   6.928   3.789 -0.2844 -0.4613 -0.0635
    4FIC    C3020686  11.192   6.873   3.731 -0.4086 -0.6492 -0.1387
    4FIC    C3120687  11.036   6.869   3.914 -0.3979 -0.5243 -0.1271
    5FIC     F120688   9.530   8.048   3.205 -0.3018 -0.6056 -0.3866
    5FIC     F220689   9.268   8.116   3.227  0.1168  0.7896  0.6007
    5FIC     O120690   9.595   7.736   3.642 -0.3920 -1.2329 -0.8189
    5FIC     N520691   8.936   7.990   3.572  0.6557  2.3478  1.7120
    5FIC     N620692   9.039   7.732   3.910  0.5012  1.5763  1.1755
    5FIC    C1920693   9.366   7.689   3.819 -0.0230 -0.1231 -0.0291
    5FIC    C2020694   9.360   7.765   3.708 -0.0169 -0.0197  0.0411
    5FIC    C2120695   9.482   7.785   3.622 -0.2134 -0.6166 -0.3834
    5FIC    C2220696   9.441   7.872   3.511 -0.1509 -0.3244 -0.1797
    5FIC    C2320697   9.520   7.918   3.405 -0.2789 -0.6773 -0.4323
    5FIC    C2420698   9.459   7.999   3.312 -0.1846 -0.2891 -0.1602
    5FIC    C2520699   9.323   8.034   3.324  0.0313  0.4295  0.3484
    5FIC    C2620700   9.244   7.989   3.428  0.1600  0.7849  0.6028
    5FIC    C2720701   9.304   7.906   3.525  0.0670  0.4010  0.3335
    5FIC    C2820702   9.249   7.842   3.646  0.1581  0.6167  0.4894
    5FIC    C2920703   9.120   7.851   3.693  0.3650  1.2797  0.9597
    5FIC    C3020704   9.019   7.927   3.626  0.5240  1.8647  1.3717
    5FIC    C3120705   9.076   7.786   3.812  0.4389  1.4391  1.0756
    1BTD     S220706   7.380   6.628   6.112 -0.0543  0.1911 -0.0309
    1BTD     N120707   7.305   6.659   6.273 -0.1975  0.0784 -0.0753
    1BTD     N220708   7.464   6.477   6.164  0.0253  0.2393 -0.0198
    1BTD     N320709   7.500   6.227   6.560 -0.0714  0.1341 -0.0771
    1BTD     N420710   7.304   6.451   6.694 -0.3459 -0.0640 -0.1458
    1BTD     C520711   7.307   6.547   6.491 -0.2717  0.0064 -0.1113
    1BTD     C620712   7.344   6.561   6.353 -0.1795  0.0825 -0.0794
    1BTD     C720713   7.433   6.459   6.292 -0.0550  0.1725 -0.0482
    1BTD     C820714   7.480   6.350   6.373 -0.0285  0.1820 -0.0505
    1BTD    C1520715   7.441   6.341   6.508 -0.1214  0.1058 -0.0824
    1BTD    C1620716   7.355   6.439   6.566 -0.2414  0.0190 -0.1125
    1BTD    C4320717   7.329   6.388   6.831 -0.0270 -0.6515 -0.2730
    1BTD    C4420718   7.436   6.446   6.934 -0.1270 -0.1007  0.4166
    1BTD    C4520719   7.570   6.518   6.877  0.6598 -0.3859  0.5779
    1BTD    C4620720   7.537   6.663   6.838  2.0123  0.2038 -0.0213
    1BTD    C4720721   7.442   6.388   7.077 -0.7873 -0.5609  1.1955
    1BTD    C4820722   7.315   6.411   7.148 -0.1076 -0.2380 -0.0367
    1BTD    C4920723   7.264   6.532   7.208 -0.1232 -0.0209  0.0656
    1BTD    C5020724   7.318   6.677   7.173 -0.3319 -0.6693  0.1362
    1BTD    C7520725   7.451   6.137   6.672  0.4103 -1.2639  1.9431
    1BTD    C7620726   7.343   6.026   6.639 -0.5739 -0.3893 -0.3499
    1BTD    C7720727   7.291   5.969   6.764 -0.3565  0.0846 -1.6948
    1BTD    C7820728   7.199   5.844   6.732  0.0744 -0.2954 -0.3824
    1BTD    C7920729   7.256   6.066   6.525 -0.8190  0.2732  1.2201
    1BTD    C8020730   7.207   5.954   6.429  0.1045 -0.4362 -1.1380
    1BTD    C8120731   7.328   5.881   6.367  0.2922 -0.4811 -0.7019
    1BTD    C8220732   7.313   5.772   6.276 -1.4987  0.1850  0.9865
    2TTP     S120733   7.117   6.766   6.560  0.4268  0.1994 -0.0290
    2TTP     S520734   7.067   6.583   6.946 -0.2410  0.1484 -0.1366
    2TTP     C120735   6.944   6.716   6.929 -0.0437  0.3200 -0.2310
    2TTP     C220736   6.952   6.780   6.809  0.1742  0.3459 -0.2035
    2TTP     C320737   7.056   6.727   6.726  0.1931  0.2310 -0.1065
    2TTP     C420738   7.240   6.634   6.577  0.2294  0.0274  0.0657
    2TTP    C1720739   7.232   6.569   6.697  0.0115  0.0017  0.0380
    2TTP    C1820740   7.128   6.622   6.780 -0.0075  0.1166 -0.0589
    2TTP    C3220741   6.860   6.887   6.753 -0.0042  0.0966  1.3050
    2TTP    C3320742   6.906   7.034   6.772 -0.4235  0.2789 -2.0721
    2TTP    C3420743   6.988   7.079   6.894  0.6787  0.8055 -1.0890
    2TTP    C3520744   7.140   7.101   6.873  0.0861 -0.2689  1.2385
    2TTP    C3620745   7.213   7.195   6.962  0.6565 -0.5302  0.0906
    2TTP    C3720746   7.174   7.342   6.943  0.2736  0.5844  0.9465
    2TTP    C3820747   7.235   7.447   7.026  0.4747  0.8066 -1.0580
    2TTP    C3920748   7.278   7.565   6.939 -1.3180  0.8909 -1.1961
    2TTP    C4020749   7.337   7.686   7.029  0.3465  0.7500 -0.7165
    2TTP    C4120750   7.360   7.836   6.989 -0.6791 -0.2212 -0.9182
    2TTP    C4220751   7.330   7.935   7.100  0.2840 -0.0292 -0.6314
    3TTP     S120752   7.671   6.192   6.209  0.7387 -0.0776 -0.3050
    3TTP     S520753   7.757   5.937   6.545 -0.1497 -0.0594 -0.0587
    3TTP     C120754   7.860   5.885   6.404 -0.1127 -0.3633  0.0802
    3TTP     C220755   7.840   5.961   6.293  0.1640 -0.3870  0.0123
    3TTP     C320756   7.742   6.063   6.314  0.3564 -0.1657 -0.1519
    3TTP     C420757   7.568   6.244   6.350  0.7017  0.2264 -0.4439
    3TTP    C1720758   7.588   6.169   6.461  0.4250  0.2500 -0.3761
    3TTP    C1820759   7.686   6.067   6.440  0.2325  0.0288 -0.2120
    3TTP    C3220760   7.897   5.940   6.154  1.1602  1.0736 -0.2050
    3TTP    C3320761   7.792   5.898   6.050 -0.2951  1.0410 -0.7040
    3TTP    C3420762   7.835   5.912   5.907 -1.3102  0.3298 -0.2914
    3TTP    C3520763   7.853   6.051   5.855  0.1471  0.7960  1.8033
    3TTP    C3620764   7.711   6.105   5.816  0.3679 -0.8328 -0.0549
    3TTP    C3720765   7.694   6.241   5.742  0.5387 -1.5849  0.1708
    3TTP    C3820766   7.742   6.365   5.815 -1.3199  1.3283 -0.1087
    3TTP    C3920767   7.829   6.451   5.732 -1.8643 -1.4099 -0.3938
    3TTP    C4020768   7.837   6.477   5.574  0.8495 -0.4820  0.1082
    3TTP    C4120769   7.767   6.604   5.541  0.5835 -0.6175  1.1284
    3TTP    C4220770   7.720   6.625   5.389 -1.0824 -0.6596  1.0180
    4FIC     F120771   6.601   6.256   7.520  0.1010  0.0290 -0.0020
    4FIC     F220772   6.413   6.450   7.554 -0.0458 -0.1086 -0.0225
    4FIC     O120773   6.907   6.476   7.132 -0.2047  0.1154 -0.1953
    4FIC     N520774   6.362   6.886   7.326 -0.4747 -0.2451 -0.1901
    4FIC     N620775   6.640   7.020   7.016 -0.6838 -0.1498 -0.3369
    4FIC    C1920776   6.837   6.740   7.027 -0.4535  0.0145 -0.2839
    4FIC    C2020777   6.767   6.677   7.123 -0.3707 -0.0017 -0.2344
    4FIC    C2120778   6.810   6.541   7.172 -0.2446  0.0530 -0.1910
    4FIC    C2220779   6.713   6.502   7.276 -0.1791  0.0176 -0.1428
    4FIC    C2320780   6.711   6.385   7.350 -0.0591  0.0471 -0.0923
    4FIC    C2420781   6.609   6.370   7.443 -0.0166  0.0033 -0.0527
    4FIC    C2520782   6.512   6.470   7.460 -0.0926 -0.0675 -0.0633
    4FIC    C2620783   6.514   6.588   7.387 -0.2122 -0.0972 -0.1134
    4FIC    C2720784   6.616   6.604   7.292 -0.2567 -0.0538 -0.1541
    4FIC    C2820785   6.646   6.716   7.199 -0.3777 -0.0685 -0.2110
    4FIC    C2920786   6.574   6.833   7.185 -0.4771 -0.1321 -0.2369
    4FIC    C3020787   6.458   6.862   7.263 -0.4754 -0.1941 -0.2110
    4FIC    C3120788   6.611   6.935   7.092 -0.5903 -0.1415 -0.2917
    5FIC     F120789   7.840   5.165   6.800 -0.0932 -0.1637 -0.8683
    5FIC     F220790   8.088   5.109   6.702  0.3810  0.4573 -0.0451
    5FIC     O120791   7.747   5.646   6.570 -0.3376 -0.1807 -0.8042
    5FIC     N520792   8.378   5.372   6.398  0.8891  1.3378  1.1840
    5FIC     N620793   8.254   5.759   6.239  0.6025  1.1994  1.0681
    5FIC    C1920794   7.950   5.764   6.396  0.0289  0.4066  0.0050
    5FIC    C2020795   7.964   5.645   6.457  0.0718  0.3865 -0.0433
    5FIC    C2120796   7.855   5.591   6.545 -0.1259  0.0762 -0.4694
    5FIC    C2220797   7.902   5.461   6.596 -0.0185  0.1380 -0.4098
    5FIC    C2320798   7.836   5.374   6.681 -0.1318 -0.0774 -0.7148
    5FIC    C2420799   7.901   5.256   6.715  0.0071  0.0365 -0.5831
    5FIC    C2520800   8.028   5.227   6.665  0.2518  0.3565 -0.1588
    5FIC    C2620801   8.095   5.314   6.580  0.3655  0.5728  0.1472
    5FIC    C2720802   8.031   5.434   6.544  0.2282  0.4619  0.0198
    5FIC    C2820803   8.074   5.546   6.457  0.2933  0.6273  0.2620
    5FIC    C2920804   8.193   5.555   6.389  0.5162  0.9432  0.6877
    5FIC    C3020805   8.294   5.454   6.394  0.7203  1.1591  0.9590
    5FIC    C3120806   8.226   5.667   6.307  0.5622  1.0823  0.8945
    1BTD     S220807   8.159   3.479   3.703  0.3087  0.0115  0.4276
    1BTD     N120808   8.035   3.354   3.667  0.0281  0.3496  0.2077
    1BTD     N220809   8.150   3.457   3.881  0.1426 -0.1667  0.3982
    1BTD     N320810   7.907   3.187   4.179 -0.7026  0.0805 -0.0591
    1BTD     N420811   7.766   3.060   3.915 -0.8435  0.7165 -0.2939
    1BTD     C520812   7.896   3.202   3.799 -0.4255  0.5335 -0.0514
    1BTD     C620813   7.995   3.305   3.783 -0.1649  0.3140  0.1277
    1BTD     C720814   8.060   3.363   3.903 -0.1011  0.0250  0.2344
    1BTD     C820815   8.022   3.315   4.033 -0.3006 -0.0299  0.1566
    1BTD    C1520816   7.924   3.214   4.044 -0.5526  0.1915 -0.0192
    1BTD    C1620817   7.862   3.158   3.929 -0.6143  0.4699 -0.1220
    1BTD    C4320818   7.704   2.943   3.992 -0.0939 -0.8757  0.4751
    1BTD    C4420819   7.577   2.947   4.087 -0.3883 -0.8691 -0.1273
    1BTD    C4520820   7.459   3.018   4.038  0.3012  0.3301 -0.2502
    1BTD    C4620821   7.389   2.971   3.908  0.0741  0.6320  1.4293
    1BTD    C4720822   7.533   2.811   4.154  0.4464  0.0305 -0.2979
    1BTD    C4820823   7.630   2.757   4.244 -0.2374  0.2795 -0.3069
    1BTD    C4920824   7.674   2.610   4.221  0.8783  0.2945  0.3354
    1BTD    C5020825   7.806   2.599   4.144  0.7439  0.6389 -1.4144
    1BTD    C7520826   7.832   3.088   4.252  0.1723  0.8088 -0.9466
    1BTD    C7620827   7.852   3.035   4.408 -0.5046 -0.3626  0.0305
    1BTD    C7720828   7.994   2.963   4.451  0.2836 -0.6717 -0.2387
    1BTD    C7820829   7.995   2.933   4.600  0.0453  0.0506 -1.0565
    1BTD    C7920830   7.710   3.025   4.464 -0.1326 -1.0471 -0.0378
    1BTD    C8020831   7.684   3.072   4.613  0.9859  0.0042  1.4850
    1BTD    C8120832   7.642   2.966   4.729 -0.0426 -1.2015  0.0944
    1BTD    C8220833   7.494   2.932   4.712  0.1362  0.1221 -0.1778
    2TTP     S120834   7.790   3.126   3.527 -0.0676  0.2865 -0.1772
    2TTP     S520835   7.578   2.794   3.699  0.9010 -0.7985 -1.0512
    2TTP     C120836   7.543   2.799   3.521  0.0865  0.1817 -0.8802
    2TTP     C220837   7.606   2.902   3.457 -0.2606  0.5746 -0.6004
    2TTP     C320838   7.685   2.980   3.547  0.1043  0.1155 -0.5108
    2TTP     C420839   7.825   3.121   3.706  0.7468 -0.6937 -0.3481
    2TTP    C1720840   7.762   3.018   3.769  1.0940 -1.0865 -0.6281
    2TTP    C1820841   7.683   2.940   3.679  0.7291 -0.6276 -0.7178
    2TTP    C3220842   7.583   2.962   3.314 -0.5153 -0.6264 -0.7017
    2TTP    C3320843   7.480   3.074   3.315 -0.4677 -0.3028  0.2732
    2TTP    C3420844   7.336   3.034   3.326  0.1999 -0.5919 -0.2439
    2TTP    C3520845   7.256   3.179   3.354  0.0352  0.4314  0.9257
    2TTP    C3620846   7.271   3.306   3.278 -0.2764 -0.3014  0.2483
    2TTP    C3720847   7.374   3.410   3.318 -0.4528  1.2160 -0.9557
    2TTP    C3820848   7.443   3.414   3.455  1.6784  1.1162  0.1671
    2TTP    C3920849   7.435   3.543   3.528  0.7764 -0.2200 -0.0280
    2TTP    C4020850   7.481   3.552   3.683 -0.6601  0.1318  0.1496
    2TTP    C4120851   7.597   3.658   3.731  0.4975  0.8423  0.0168
    2TTP    C4220852   7.560   3.761   3.824 -0.0340 -0.1619  0.5625
    3TTP     S120853   8.154   3.487   4.232  0.0991 -0.2216 -0.2940
    3TTP     S520854   7.938   3.296   4.551  0.2675  0.4941  0.2564
    3TTP     C120855   8.032   3.435   4.620  0.2890  0.6650 -0.1103
    3TTP     C220856   8.104   3.503   4.526  0.2379  0.4540 -0.3017
    3TTP     C320857   8.088   3.447   4.396  0.1802  0.1498 -0.1659
    3TTP     C420858   8.060   3.348   4.163  0.0777 -0.3925  0.0727
    3TTP    C1720859   7.988   3.281   4.257  0.1284 -0.1816  0.2642
    3TTP    C1820860   8.004   3.337   4.388  0.1862  0.1226  0.1283
    3TTP    C3220861   8.194   3.625   4.546  0.7481 -0.4316  0.8222
    3TTP    C3320862   8.332   3.645   4.502  0.4677  0.6880 -0.0142
    3TTP    C3420863   8.438   3.572   4.583 -0.1222 -2.1791  0.6514
    3TTP    C3520864   8.455   3.424   4.539  0.1244 -0.9128 -0.4247
    3TTP    C3620865   8.535   3.361   4.654 -2.0317  0.5757  0.8478
    3TTP    C3720866   8.520   3.417   4.806  0.3757  1.0433 -0.3338
    3TTP    C3820867   8.384   3.410   4.871  0.8658 -0.4581 -0.2790
    3TTP    C3920868   8.368   3.496   4.997  0.5313 -0.0952 -0.8050
    3TTP    C4020869   8.436   3.435   5.120 -0.8164  0.3509 -0.5482
    3TTP    C4120870   8.384   3.486   5.250  1.0758 -0.0113 -0.5169
    3TTP    C4220871   8.338   3.367   5.322 -2.0260  1.6323 -1.6175
    4FIC     F120872   7.054   2.156   3.643 -0.1013 -0.0788 -0.1584
    4FIC     F220873   7.072   2.099   3.377 -0.2383  0.0355 -0.1925
    4FIC     O120874   7.356   2.604   3.673  0.0759 -0.2025 -0.0853
    4FIC     N520875   7.314   2.337   3.017 -0.3088  0.1116 -0.1894
    4FIC     N620876   7.546   2.699   3.094 -0.1427 -0.0082 -0.1254
    4FIC    C1920877   7.480   2.709   3.430  0.0081 -0.1373 -0.0919
    4FIC    C2020878   7.404   2.599   3.433 -0.0310 -0.1107 -0.1090
    4FIC    C2120879   7.343   2.551   3.562  0.0077 -0.1472 -0.1042
    4FIC    C2220880   7.266   2.429   3.529 -0.0510 -0.1044 -0.1264
    4FIC    C2320881   7.193   2.350   3.616 -0.0422 -0.1173 -0.1306
    4FIC    C2420882   7.129   2.239   3.563 -0.1062 -0.0693 -0.1529
    4FIC    C2520883   7.138   2.210   3.426 -0.1765 -0.0105 -0.1705
    4FIC    C2620884   7.212   2.289   3.338 -0.1858  0.0027 -0.1664
    4FIC    C2720885   7.277   2.401   3.391 -0.1218 -0.0454 -0.1439
    4FIC    C2820886   7.362   2.504   3.326 -0.1122 -0.0468 -0.1339
    4FIC    C2920887   7.395   2.511   3.193 -0.1681  0.0017 -0.1455
    4FIC    C3020888   7.350   2.415   3.097 -0.2453  0.0620 -0.1696
    4FIC    C3120889   7.478   2.615   3.139 -0.1539 -0.0040 -0.1343
    5FIC     F120890   7.896   3.036   5.315  0.7193  0.1239  0.0653
    5FIC     F220891   7.837   3.275   5.432 -0.6527 -0.0195 -0.3039
    5FIC     O120892   8.044   3.198   4.820  0.9434  0.2902  0.1861
    5FIC     N520893   7.857   3.733   5.246 -2.4651 -0.1070 -0.7488
    5FIC     N620894   7.984   3.812   4.836 -2.0134  0.0519 -0.5801
    5FIC    C1920895   8.039   3.484   4.755 -0.2879  0.2124 -0.1239
    5FIC    C2020896   8.004   3.434   4.875 -0.2904  0.1761 -0.1398
    5FIC    C2120897   8.009   3.286   4.901  0.3633  0.2201  0.0260
    5FIC    C2220898   7.966   3.266   5.040  0.1782  0.1636 -0.0397
    5FIC    C2320899   7.954   3.145   5.109  0.6129  0.1772  0.0639
    5FIC    C2420900   7.910   3.152   5.241  0.3191  0.1144 -0.0286
    5FIC    C2520901   7.880   3.275   5.301 -0.3878  0.0408 -0.2188
    5FIC    C2620902   7.891   3.395   5.233 -0.8245  0.0267 -0.3231
    5FIC    C2720903   7.935   3.391   5.099 -0.5367  0.0895 -0.2317
    5FIC    C2820904   7.958   3.499   5.000 -0.8529  0.0942 -0.3009
    5FIC    C2920905   7.939   3.634   5.020 -1.5358  0.0342 -0.4801
    5FIC    C3020906   7.894   3.688   5.145 -2.0447 -0.0432 -0.6272
    5FIC    C3120907   7.964   3.731   4.919 -1.7947  0.0444 -0.5339
    1BTD     S220908  10.664   0.428   1.589  0.1804  0.2672  0.1770
    1BTD     N120909  10.772   0.296   1.646  0.0079  0.1006  0.1167
    1BTD     N220910  10.530   0.388   1.701  0.1595  0.4424  0.2153
    1BTD     N320911  10.450   0.066   2.033 -0.1955  0.4985  0.1847
    1BTD     N420912  10.747  -0.047   1.965 -0.3827  0.0772  0.0632
    1BTD     C520913  10.755   0.118   1.813 -0.1938  0.0935  0.0903
    1BTD     C620914  10.705   0.232   1.741 -0.0534  0.1800  0.1277
    1BTD     C720915  10.570   0.283   1.772  0.0315  0.3713  0.1829
    1BTD     C820916  10.491   0.218   1.874 -0.0281  0.4666  0.1979
    1BTD    C1520917  10.545   0.107   1.942 -0.1660  0.3765  0.1599
    1BTD    C1620918  10.675   0.058   1.912 -0.2475  0.1921  0.1067
    1BTD    C4320919  10.714  -0.140   2.070  0.9766 -0.0319  0.0663
    1BTD    C4420920  10.782  -0.259   2.148 -0.4744 -0.2338 -0.2580
    1BTD    C4520921  10.852  -0.218   2.283  0.1003  1.2655  1.3735
    1BTD    C4620922  10.906  -0.332   2.377 -1.0492 -0.9101 -0.7859
    1BTD    C4720923  10.697  -0.386   2.163  0.3799  0.2791 -0.1075
    1BTD    C4820924  10.567  -0.364   2.267  0.8082 -0.4059  0.6303
    1BTD    C4920925  10.493  -0.494   2.295 -0.1197  0.3461 -1.1426
    1BTD    C5020926  10.577  -0.613   2.351  0.1545 -1.2795 -0.7210
    1BTD    C7520927  10.412  -0.078   2.066  0.3823 -0.2395 -0.7014
    1BTD    C7620928  10.297  -0.153   1.989  1.0306 -0.7944 -0.9065
    1BTD    C7720929  10.276  -0.286   2.063  0.1441  0.4602 -0.1538
    1BTD    C7820930  10.133  -0.267   2.147 -0.5782 -0.1985  0.6569
    1BTD    C7920931  10.277  -0.116   1.837 -0.3360  0.1901 -1.0263
    1BTD    C8020932  10.191  -0.187   1.731 -0.7142 -0.3525 -0.4961
    1BTD    C8120933  10.231  -0.329   1.708 -0.0090  1.0630 -0.6160
    1BTD    C8220934  10.167  -0.375   1.568  0.1412  0.2165  0.2479
    2TTP     S120935  10.985   0.014   1.665  0.5945 -0.3219  0.5768
    2TTP     S520936  10.937  -0.362   1.867 -0.4706 -0.5021  0.0015
    2TTP     C120937  11.048  -0.386   1.726  0.3022 -0.3688  0.5743
    2TTP     C220938  11.070  -0.272   1.655  0.6764 -0.3054  0.7858
    2TTP     C320939  10.999  -0.160   1.710  0.3664 -0.3595  0.5029
    2TTP     C420940  10.874   0.039   1.806 -0.1783 -0.4554  0.0039
    2TTP    C1720941  10.852  -0.076   1.877 -0.5528 -0.5189 -0.2075
    2TTP    C1820942  10.923  -0.187   1.822 -0.2429 -0.4647  0.0753
    2TTP    C3220943  11.173  -0.245   1.542 -0.4170  0.6525  0.4060
    2TTP    C3320944  11.173  -0.315   1.404  1.3350  0.1471 -0.3232
    2TTP    C3420945  11.066  -0.419   1.344 -0.6115  0.1090 -0.2866
    2TTP    C3520946  11.133  -0.546   1.298  0.8264 -0.3998  0.1836
    2TTP    C3620947  11.036  -0.655   1.253 -0.3702  0.9431 -0.9617
    2TTP    C3720948  11.097  -0.782   1.194  0.1323 -1.3462 -0.0621
    2TTP    C3820949  10.985  -0.865   1.124  0.2597  0.8546  1.4271
    2TTP    C3920950  11.006  -1.006   1.078  0.4619  0.4863 -1.3765
    2TTP    C4020951  10.991  -1.123   1.173  2.0786  0.5863 -0.1307
    2TTP    C4120952  10.852  -1.166   1.228  1.0980  0.5794  0.2168
    2TTP    C4220953  10.855  -1.256   1.346 -0.1128  0.5199  0.9479
    3TTP     S120954  10.220   0.352   1.881 -0.0641  0.1708 -0.1986
    3TTP     S520955  10.106   0.075   2.190  0.2003  0.2273 -0.0498
    3TTP     C120956   9.962   0.179   2.150  0.1152  0.1019 -0.0706
    3TTP     C220957   9.989   0.271   2.052  0.0284  0.0771 -0.1178
    3TTP     C320958  10.124   0.262   2.005  0.0262  0.1562 -0.1392
    3TTP     C420959  10.363   0.248   1.922  0.0210  0.2962 -0.1779
    3TTP    C1720960  10.337   0.156   2.020  0.1079  0.3211 -0.1307
    3TTP    C1820961  10.202   0.165   2.066  0.1101  0.2420 -0.1093
    3TTP    C3220962   9.883   0.376   2.012 -1.5699 -0.9817  0.1611
    3TTP    C3320963   9.894   0.467   1.900 -0.4754  0.0867  0.1943
    3TTP    C3420964   9.786   0.563   1.888 -0.6155 -0.5375  0.3615
    3TTP    C3520965   9.823   0.651   1.772  0.4342  0.2937  0.1715
    3TTP    C3620966   9.768   0.792   1.745 -0.8451  0.6757 -0.2869
    3TTP    C3720967   9.893   0.877   1.719 -0.3229  0.4778  0.3097
    3TTP    C3820968   9.880   1.024   1.653 -0.1912  0.5046 -0.7257
    3TTP    C3920969   9.815   1.128   1.747 -0.6382 -2.2613 -0.5875
    3TTP    C4020970   9.704   1.228   1.710 -0.0458  0.6346  0.9100
    3TTP    C4120971   9.711   1.291   1.561  0.5226  0.1829  0.1656
    3TTP    C4220972   9.575   1.296   1.483 -0.0177 -0.1572 -0.4557
    4FIC     F120973  10.677  -1.102   1.811 -0.1051  0.2842  0.3370
    4FIC     F220974  10.921  -1.221   1.815 -0.1907  0.0608 -0.5275
    4FIC     O120975  10.816  -0.588   1.713  0.0522  0.2470  0.3690
    4FIC     N520976  11.372  -1.027   1.753 -0.2022 -0.2871 -1.7477
    4FIC     N620977  11.431  -0.601   1.676 -0.0618 -0.2706 -1.5485
    4FIC    C1920978  11.099  -0.519   1.683  0.0266  0.0206 -0.4457
    4FIC    C2020979  11.054  -0.644   1.708 -0.0100  0.0386 -0.4199
    4FIC    C2120980  10.907  -0.671   1.722  0.0067  0.1578  0.0109
    4FIC    C2220981  10.894  -0.816   1.747 -0.0422  0.1464 -0.0776
    4FIC    C2320982  10.777  -0.888   1.767 -0.0470  0.2337  0.2207
    4FIC    C2420983  10.789  -1.024   1.790 -0.0977  0.2022  0.0601
    4FIC    C2520984  10.915  -1.085   1.792 -0.1420  0.0870 -0.3855
    4FIC    C2620985  11.032  -1.014   1.773 -0.1373 -0.0002 -0.6849
    4FIC    C2720986  11.022  -0.876   1.749 -0.0865  0.0296 -0.5284
    4FIC    C2820987  11.126  -0.773   1.725 -0.0682 -0.0412 -0.7566
    4FIC    C2920988  11.262  -0.793   1.720 -0.0997 -0.1585 -1.1958
    4FIC    C3020989  11.322  -0.921   1.738 -0.1557 -0.2284 -1.4977
    4FIC    C3120990  11.354  -0.687   1.696 -0.0787 -0.2193 -1.3872
    5FIC     F120991   9.531  -0.485   2.342  0.2172 -0.1769  0.2837
    5FIC     F220992   9.339  -0.322   2.445 -0.0293 -0.2058 -0.1260
    5FIC     O120993   9.889  -0.120   2.163  0.1252 -0.1061  0.2425
    5FIC     N520994   9.317   0.172   2.466 -0.4497 -0.1965 -0.7441
    5FIC     N620995   9.636   0.424   2.305 -0.4714 -0.1353 -0.6936
    5FIC    C1920996   9.832   0.165   2.198 -0.1430 -0.1083 -0.1633
    5FIC    C2020997   9.750   0.067   2.239 -0.1104 -0.1251 -0.1370
    5FIC    C2120998   9.786  -0.078   2.218  0.0296 -0.1225  0.0767
    5FIC    C2220999   9.675  -0.157   2.274  0.0308 -0.1438  0.0494
    5FIC    C2321000   9.663  -0.296   2.277  0.1385 -0.1495  0.2031
    5FIC    C2421001   9.549  -0.349   2.335  0.1150 -0.1704  0.1397
    5FIC    C2521002   9.450  -0.265   2.388 -0.0118 -0.1850 -0.0715
    5FIC    C2621003   9.461  -0.126   2.385 -0.1197 -0.1795 -0.2257
    5FIC    C2721004   9.576  -0.071   2.327 -0.0982 -0.1585 -0.1644
    5FIC    C2821005   9.618   0.070   2.307 -0.1903 -0.1476 -0.2874
    5FIC    C2921006   9.548   0.182   2.346 -0.3233 -0.1566 -0.4999
    5FIC    C3021007   9.422   0.176   2.412 -0.3920 -0.1785 -0.6334
    5FIC    C3121008   9.597   0.314   2.323 -0.4039 -0.1448 -0.6052
    1BTD     S221009   7.491   8.294   6.721 -0.1670 -0.5182 -0.3377
    1BTD     N121010   7.427   8.432   6.816 -0.1003 -0.1447 -0.8276
    1BTD     N221011   7.349   8.188   6.751 -0.1302 -0.4239  0.2067
    1BTD     N321012   6.942   8.222   6.981  0.0651  0.4420  0.4313
    1BTD     N421013   7.037   8.523   7.063  0.1017  0.7865 -0.8430
    1BTD     C521014   7.222   8.476   6.944  0.0048  0.3374 -0.8203
    1BTD     C621015   7.308   8.395   6.863 -0.0564  0.0224 -0.5733
    1BTD     C721016   7.265   8.258   6.826 -0.0731 -0.1340  0.0057
    1BTD     C821017   7.137   8.210   6.872 -0.0278  0.0322  0.3085
    1BTD    C1521018   7.056   8.293   6.951  0.0315  0.3402  0.0498
    1BTD    C1621019   7.098   8.425   6.987  0.0474  0.4907 -0.5077
    1BTD    C4321020   6.887   8.541   7.080 -1.2999  0.5006  1.3355
    1BTD    C4421021   6.814   8.677   7.103 -0.7088  0.2686  0.4828
    1BTD    C4521022   6.831   8.783   6.984 -0.1730  0.6316 -0.7818
    1BTD    C4621023   6.837   8.743   6.841  0.5273  0.5157  0.7739
    1BTD    C4721024   6.665   8.669   7.149 -0.5937  0.5961  0.2468
    1BTD    C4821025   6.608   8.782   7.215 -1.0006 -2.0094  0.4166
    1BTD    C4921026   6.459   8.788   7.233  0.8816 -1.1263  1.6352
    1BTD    C5021027   6.363   8.895   7.174  0.0647  0.8460 -0.0627
    1BTD    C7521028   6.849   8.236   7.085  0.6258 -0.1231 -0.9153
    1BTD    C7621029   6.859   8.176   7.233  0.1249  0.5808  1.7477
    1BTD    C7721030   6.991   8.198   7.296 -0.8048 -1.7152  0.0798
    1BTD    C7821031   7.118   8.157   7.242 -0.2562 -0.2232  1.4354
    1BTD    C7921032   6.721   8.205   7.296  0.1855 -0.1449 -1.0603
    1BTD    C8021033   6.679   8.338   7.344 -0.6366  1.1695  0.1391
    1BTD    C8121034   6.759   8.389   7.459 -1.1489  0.0823 -0.7446
    1BTD    C8221035   6.732   8.523   7.509  0.5485 -0.0254  0.3740
    2TTP     S121036   7.378   8.720   7.049  0.5226 -0.4534  0.1588
    2TTP     S521037   7.062   8.790   7.332  0.5674 -0.0603  0.1122
    2TTP     C121038   7.201   8.901   7.371  0.3533  0.4051 -0.4105
    2TTP     C221039   7.307   8.885   7.286  0.3269  0.3111 -0.4272
    2TTP     C321040   7.282   8.786   7.187  0.4746 -0.1321 -0.0273
    2TTP     C421041   7.240   8.609   7.009  0.7366 -0.9186  0.6818
    2TTP    C1721042   7.134   8.624   7.094  0.7631 -0.8252  0.6982
    2TTP    C1821043   7.158   8.724   7.194  0.6152 -0.3819  0.2984
    2TTP    C3221044   7.436   8.976   7.300 -0.3885  0.1125 -0.5963
    2TTP    C3321045   7.486   9.066   7.185  1.0363  0.8492  0.3937
    2TTP    C3421046   7.625   9.018   7.144  0.2384  0.1671  0.3620
    2TTP    C3521047   7.732   9.098   7.096  0.3759 -0.0189  1.2138
    2TTP    C3621048   7.675   9.154   6.961 -0.2101 -0.0720 -0.1639
    2TTP    C3721049   7.738   9.262   6.890  0.2827  0.0930  1.3085
    2TTP    C3821050   7.679   9.308   6.756 -0.6054  0.7751 -0.6732
    2TTP    C3921051   7.673   9.199   6.639  0.1081 -0.3651  0.6646
    2TTP    C4021052   7.556   9.217   6.532  1.0594  1.3913  0.5084
    2TTP    C4121053   7.530   9.089   6.446  0.4274  1.0051  0.4305
    2TTP    C4221054   7.639   9.071   6.339  0.2362  0.4103  1.1953
    3TTP     S121055   7.105   7.911   6.801  0.3733 -0.0244 -0.2819
    3TTP     S521056   6.728   7.915   7.007  0.2962 -0.6809 -0.4046
    3TTP     C121057   6.754   7.749   6.937  0.2102 -0.3978 -1.1286
    3TTP     C221058   6.872   7.738   6.870  0.2289 -0.1783 -1.1332
    3TTP     C321059   6.946   7.860   6.870  0.3120 -0.2260 -0.5654
    3TTP     C421060   7.079   8.077   6.870  0.4594 -0.3076  0.4420
    3TTP    C1721061   6.961   8.088   6.938  0.4408 -0.5267  0.4466
    3TTP    C1821062   6.887   7.966   6.938  0.3577 -0.4793 -0.1212
    3TTP    C3221063   6.922   7.604   6.815  1.0539  0.1625  0.0002
    3TTP    C3321064   6.910   7.593   6.665  0.1624 -0.6992 -0.5672
    3TTP    C3421065   6.965   7.451   6.634 -0.3496  0.4883  0.0505
    3TTP    C3521066   7.098   7.423   6.561  0.3971 -1.1331 -0.2336
    3TTP    C3621067   7.080   7.353   6.421 -1.0896 -1.0621  0.9518
    3TTP    C3721068   7.212   7.279   6.391 -0.0860  1.0113 -0.5537
    3TTP    C3821069   7.188   7.118   6.404 -0.7522 -0.1280 -1.3666
    3TTP    C3921070   7.316   7.024   6.448  0.2416  0.7544  0.5259
    3TTP    C4021071   7.446   7.063   6.375  0.0367 -0.3871  1.2279
    3TTP    C4121072   7.521   6.934   6.340  1.7766  0.9098  0.3601
    3TTP    C4221073   7.611   6.972   6.228 -0.6828 -0.6195 -1.1465
    4FIC     F121074   6.662   9.522   7.485  0.0225 -0.2029  0.0663
    4FIC     F221075   6.851   9.645   7.638  0.1994 -0.0250 -0.2908
    4FIC     O121076   6.918   9.063   7.356 -0.1490 -0.3796  0.3498
    4FIC     N521077   7.304   9.494   7.767  0.3321  0.1047 -0.6016
    4FIC     N621078   7.466   9.111   7.635  0.1628 -0.0691 -0.3083
    4FIC    C1921079   7.189   9.017   7.456 -0.0407 -0.2721  0.1096
    4FIC    C2021080   7.118   9.128   7.483 -0.0044 -0.2346  0.0521
    4FIC    C2121081   6.979   9.144   7.428 -0.0645 -0.2947  0.1841
    4FIC    C2221082   6.930   9.275   7.475 -0.0036 -0.2322  0.0772
    4FIC    C2321083   6.806   9.334   7.450 -0.0279 -0.2553  0.1403
    4FIC    C2421084   6.782   9.458   7.506  0.0418 -0.1846  0.0134
    4FIC    C2521085   6.880   9.521   7.585  0.1330 -0.0930 -0.1705
    4FIC    C2621086   7.003   9.463   7.611  0.1578 -0.0689 -0.2342
    4FIC    C2721087   7.029   9.337   7.555  0.0881 -0.1400 -0.1079
    4FIC    C2821088   7.148   9.249   7.563  0.0912 -0.1380 -0.1307
    4FIC    C2921089   7.265   9.276   7.631  0.1681 -0.0613 -0.2905
    4FIC    C3021090   7.286   9.396   7.705  0.2580  0.0298 -0.4611
    4FIC    C3121091   7.375   9.185   7.633  0.1646 -0.0660 -0.2993
    5FIC     F121092   5.944   7.745   7.073  0.2528  0.1937 -0.4770
    5FIC     F221093   5.979   7.515   7.213  0.0927  0.1806 -0.4575
    5FIC     O121094   6.444   7.827   6.883  0.4321  0.1193 -0.0392
    5FIC     N521095   6.387   7.242   7.280 -0.0100  0.1086 -0.1177
    5FIC     N621096   6.771   7.353   7.103  0.1622  0.0534  0.2205
    5FIC    C1921097   6.656   7.636   6.949  0.3427  0.0805  0.1350
    5FIC    C2021098   6.529   7.625   6.992  0.3040  0.0995  0.0241
    5FIC    C2121099   6.425   7.727   6.953  0.3542  0.1190 -0.0604
    5FIC    C2221100   6.299   7.684   7.016  0.2929  0.1370 -0.1724
    5FIC    C2321101   6.175   7.747   7.008  0.3096  0.1581 -0.2767
    5FIC    C2421102   6.069   7.688   7.076  0.2411  0.1723 -0.3713
    5FIC    C2521103   6.088   7.569   7.148  0.1585  0.1658 -0.3610
    5FIC    C2621104   6.211   7.506   7.156  0.1414  0.1447 -0.2573
    5FIC    C2721105   6.319   7.564   7.088  0.2099  0.1299 -0.1605
    5FIC    C2821106   6.461   7.523   7.076  0.2134  0.1066 -0.0395
    5FIC    C2921107   6.519   7.412   7.133  0.1458  0.0942  0.0054
    5FIC    C3021108   6.446   7.319   7.213  0.0603  0.1022 -0.0625
    5FIC    C3121109   6.657   7.380   7.116  0.1552  0.0718  0.1234
    1BTD     S221110   1.679   0.221   2.327 -0.2449 -0.2229  0.0748
    1BTD     N121111   1.618   0.347   2.214 -0.4222 -0.2040  0.1907
    1BTD     N221112   1.718   0.103   2.197 -0.1818 -0.0910 -0.0262
    1BTD     N321113   1.689   0.090   1.729 -0.3733  0.2119 -0.0227
    1BTD     N421114   1.565   0.391   1.750 -0.6697  0.0727  0.2446
    1BTD     C521115   1.592   0.366   1.972 -0.5478 -0.0578  0.2156
    1BTD     C621116   1.629   0.297   2.092 -0.4251 -0.1054  0.1503
    1BTD     C721117   1.685   0.160   2.082 -0.2905 -0.0422  0.0288
    1BTD     C821118   1.701   0.100   1.953 -0.2854  0.0655 -0.0212
    1BTD    C1521119   1.663   0.171   1.838 -0.4082  0.1088  0.0461
    1BTD    C1621120   1.609   0.303   1.847 -0.5378  0.0479  0.1631
    1BTD    C4321121   1.490   0.357   1.625  0.7080 -0.1260  0.4662
    1BTD    C4421122   1.336   0.351   1.625 -0.3962  1.8744 -1.4786
    1BTD    C4521123   1.291   0.284   1.757 -0.2356  0.2149  1.1225
    1BTD    C4621124   1.151   0.233   1.775  0.8888 -0.7438 -0.0185
    1BTD    C4721125   1.268   0.483   1.589  0.9398  0.0218 -0.0355
    1BTD    C4821126   1.301   0.560   1.454 -0.2284  2.6811 -1.3166
    1BTD    C4921127   1.164   0.560   1.385 -0.4983  0.9895  1.9017
    1BTD    C5021128   1.052   0.674   1.415  0.0729 -0.3863 -0.6555
    1BTD    C7521129   1.743   0.151   1.601  2.0174  0.3601 -0.1505
    1BTD    C7621130   1.756   0.090   1.466  1.5301 -0.2196 -0.1816
    1BTD    C7721131   1.868   0.158   1.387  0.8165 -1.2693 -0.5979
    1BTD    C7821132   1.852   0.315   1.353  0.7359  0.7349 -0.2655
    1BTD    C7921133   1.631   0.066   1.371  1.0659 -1.0272 -0.2533
    1BTD    C8021134   1.501   0.014   1.439 -0.1586  0.6903  1.7288
    1BTD    C8121135   1.371   0.051   1.384  0.2627 -0.3544 -0.0406
    1BTD    C8221136   1.265  -0.034   1.443 -0.2337  1.1823 -0.1889
    2TTP     S121137   1.489   0.632   2.044 -0.3639  0.0839 -0.4190
    2TTP     S521138   1.531   0.756   1.634  0.3895 -0.1698 -0.4213
    2TTP     C121139   1.489   0.901   1.735  0.1003 -0.1258 -0.6043
    2TTP     C221140   1.473   0.872   1.867 -0.1493 -0.0449 -0.6143
    2TTP     C321141   1.494   0.733   1.894 -0.1214 -0.0147 -0.4779
    2TTP     C421142   1.531   0.486   1.943 -0.0747  0.0399 -0.2359
    2TTP    C1721143   1.547   0.516   1.811  0.1749 -0.0410 -0.2259
    2TTP    C1821144   1.526   0.655   1.784  0.1469 -0.0712 -0.3623
    2TTP    C3221145   1.434   0.963   1.988 -0.4914  0.4306 -1.0809
    2TTP    C3321146   1.544   1.017   2.089 -0.0676 -0.0774 -0.0836
    2TTP    C3421147   1.627   1.136   2.026  0.4100  1.1175  1.3088
    2TTP    C3521148   1.727   1.190   2.126 -0.2794  0.1196 -0.2135
    2TTP    C3621149   1.860   1.104   2.122  0.4413  0.4207  0.4269
    2TTP    C3721150   1.949   1.152   2.226 -0.2892 -0.8370 -0.3756
    2TTP    C3821151   2.041   1.034   2.256 -0.4825 -0.9359  0.6353
    2TTP    C3921152   2.191   1.070   2.295  0.0014 -0.5108 -0.3380
    2TTP    C4021153   2.204   1.062   2.446  0.5278 -0.1749 -0.4883
    2TTP    C4121154   2.331   1.142   2.499  2.0363  0.1523 -1.3712
    2TTP    C4221155   2.472   1.087   2.471  0.0233 -1.5975 -1.4330
    3TTP     S121156   1.780  -0.178   1.987 -0.4640  0.0155  0.0256
    3TTP     S521157   1.921  -0.196   1.581 -0.0699 -0.8626  0.1968
    3TTP     C121158   1.980  -0.344   1.670  0.0060 -0.5798  0.6263
    3TTP     C221159   1.940  -0.347   1.800 -0.1113 -0.2921  0.5987
    3TTP     C321160   1.861  -0.232   1.835 -0.2653 -0.2844  0.2374
    3TTP     C421161   1.722  -0.030   1.899 -0.5400 -0.2670 -0.4039
    3TTP    C1721162   1.762  -0.027   1.769 -0.4228 -0.5551 -0.3763
    3TTP    C1821163   1.840  -0.141   1.733 -0.2687 -0.5627 -0.0150
    3TTP    C3221164   1.970  -0.442   1.908  0.7403 -0.1171  1.2618
    3TTP    C3321165   2.051  -0.379   2.020 -1.1785  0.0306 -1.1965
    3TTP    C3421166   2.172  -0.463   2.061  0.6067 -0.6206  0.3705
    3TTP    C3521167   2.190  -0.438   2.205 -0.2254  1.4843 -1.4709
    3TTP    C3621168   2.300  -0.515   2.282 -0.7646  1.4308 -0.5508
    3TTP    C3721169   2.354  -0.457   2.398  0.6821 -0.8338 -1.6807
    3TTP    C3821170   2.474  -0.525   2.480 -0.6114  1.0382  0.1070
    3TTP    C3921171   2.592  -0.470   2.391 -0.2587 -0.0902 -0.8517
    3TTP    C4021172   2.704  -0.564   2.385  0.9564  0.3054  0.7886
    3TTP    C4121173   2.823  -0.506   2.306 -1.2650  0.6322  0.6849
    3TTP    C4221174   2.948  -0.483   2.396 -0.4968  0.6079  1.6494
    4FIC     F121175   1.780   1.316   1.086 -0.2570  0.3835  0.0623
    4FIC     F221176   1.666   1.542   1.185 -0.0356  0.2804  0.5569
    4FIC     O121177   1.638   0.955   1.464 -0.0669 -0.1741 -0.3949
    4FIC     N521178   1.401   1.611   1.598  0.4182 -0.2653  0.9421
    4FIC     N621179   1.313   1.283   1.873  0.5220 -0.6802  0.4852
    4FIC    C1921180   1.479   1.043   1.694  0.2120 -0.4707 -0.0848
    4FIC    C2021181   1.519   1.125   1.595  0.1556 -0.3264  0.0109
    4FIC    C2121182   1.600   1.073   1.480  0.0115 -0.1793 -0.1608
    4FIC    C2221183   1.627   1.187   1.391 -0.0173 -0.0441  0.0038
    4FIC    C2321184   1.699   1.187   1.272 -0.1377  0.1164 -0.0691
    4FIC    C2421185   1.710   1.308   1.205 -0.1410  0.2230  0.1211
    4FIC    C2521186   1.651   1.425   1.256 -0.0268  0.1695  0.3757
    4FIC    C2621187   1.580   1.425   1.375  0.0937  0.0096  0.4498
    4FIC    C2721188   1.567   1.304   1.444  0.0989 -0.1000  0.2601
    4FIC    C2821189   1.498   1.270   1.571  0.2097 -0.2757  0.2745
    4FIC    C2921190   1.429   1.357   1.652  0.3379 -0.3726  0.4910
    4FIC    C3021191   1.414   1.496   1.622  0.3816 -0.3133  0.7383
    4FIC    C3121192   1.366   1.316   1.773  0.4385 -0.5413  0.4865
    5FIC     F121193   2.520  -0.386   1.056 -0.5123 -0.5052 -0.1160
    5FIC     F221194   2.542  -0.654   1.100 -0.2838 -0.4010  0.4113
    5FIC     O121195   2.157  -0.251   1.434 -0.4593 -0.0317 -0.2338
    5FIC     N521196   2.317  -0.942   1.433  0.0824  0.0863  1.0856
    5FIC     N621197   2.028  -0.782   1.720  0.0778  0.4351  0.8872
    5FIC    C1921198   2.050  -0.458   1.611 -0.2222  0.2360  0.2282
    5FIC    C2021199   2.140  -0.482   1.514 -0.2444  0.1128  0.2373
    5FIC    C2121200   2.190  -0.370   1.427 -0.3688 -0.0203 -0.0088
    5FIC    C2221201   2.287  -0.430   1.333 -0.3613 -0.1338  0.0707
    5FIC    C2321202   2.359  -0.366   1.233 -0.4538 -0.2756 -0.0893
    5FIC    C2421203   2.445  -0.444   1.156 -0.4251 -0.3634  0.0306
    5FIC    C2521204   2.456  -0.581   1.179 -0.3073 -0.3096  0.3023
    5FIC    C2621205   2.384  -0.646   1.279 -0.2146 -0.1678  0.4632
    5FIC    C2721206   2.297  -0.569   1.357 -0.2420 -0.0775  0.3453
    5FIC    C2821207   2.208  -0.606   1.470 -0.1654  0.0763  0.4584
    5FIC    C2921208   2.190  -0.732   1.522 -0.0445  0.1669  0.7186
    5FIC    C3021209   2.260  -0.847   1.473  0.0249  0.1221  0.9194
    5FIC    C3121210   2.101  -0.759   1.631  0.0222  0.3140  0.8098
    1BTD     S221211   1.064   0.763   5.567  0.3331  0.2888 -0.0798
    1BTD     N121212   1.101   0.638   5.443  0.2944  0.3538 -0.1575
    1BTD     N221213   1.215   0.736   5.660  0.3712  0.2521 -0.1515
    1BTD     N321214   1.590   0.456   5.628  0.3789  0.2946 -0.4382
    1BTD     N421215   1.449   0.334   5.361  0.2843  0.4199 -0.4456
    1BTD     C521216   1.284   0.481   5.403  0.2903  0.3868 -0.3078
    1BTD     C621217   1.218   0.585   5.476  0.3110  0.3452 -0.2294
    1BTD     C721218   1.282   0.640   5.598  0.3540  0.2883 -0.2259
    1BTD     C821219   1.409   0.588   5.640  0.3740  0.2758 -0.3012
    1BTD    C1521220   1.470   0.486   5.566  0.3526  0.3178 -0.3767
    1BTD    C1621221   1.409   0.433   5.449  0.3112  0.3727 -0.3800
    1BTD    C4321222   1.589   0.277   5.337  0.3021 -0.4688 -0.1951
    1BTD    C4421223   1.694   0.349   5.250 -0.1824 -0.8216  0.1851
    1BTD    C4521224   1.826   0.287   5.267 -0.1670  2.1152  0.4451
    1BTD    C4621225   1.883   0.144   5.187  0.2388  0.3065 -1.4674
    1BTD    C4721226   1.658   0.363   5.102 -0.3410  0.5392  0.7270
    1BTD    C4821227   1.741   0.432   4.995  0.1066 -0.9325 -0.0549
    1BTD    C4921228   1.784   0.577   5.030  1.0640  0.0258  0.4773
    1BTD    C5021229   1.866   0.655   4.929  0.7765 -0.0081  0.4919
    1BTD    C7521230   1.681   0.334   5.623  0.0885  0.4009 -0.2131
    1BTD    C7621231   1.686   0.199   5.710  0.0172 -0.5850  0.0114
    1BTD    C7721232   1.554   0.156   5.781  0.4959 -0.1040  1.1050
    1BTD    C7821233   1.563   0.071   5.910 -0.2979  0.5098  0.1390
    1BTD    C7921234   1.808   0.110   5.682 -0.9430  1.7228 -0.3373
    1BTD    C8021235   1.809  -0.026   5.593  0.2623 -0.5972  0.2637
    1BTD    C8121236   1.947  -0.070   5.558  0.3473  1.1842 -0.6521
    1BTD    C8221237   1.966  -0.184   5.658  0.7528  0.2491  0.2846
    2TTP     S121238   1.075   0.312   5.273  0.4465  0.1833  0.3707
    2TTP     S521239   1.372   0.005   5.220 -0.3842 -0.5679  0.0101
    2TTP     C121240   1.207  -0.068   5.193 -0.5733 -0.0359 -0.3117
    2TTP     C221241   1.106   0.023   5.208 -0.3279  0.2275 -0.2193
    2TTP     C321242   1.154   0.153   5.241  0.0183  0.0185  0.1088
    2TTP     C421243   1.239   0.385   5.301  0.6355 -0.3488  0.6925
    2TTP    C1721244   1.340   0.295   5.286  0.3901 -0.6122  0.6000
    2TTP    C1821245   1.292   0.164   5.252  0.0440 -0.4032  0.2718
    2TTP    C3221246   0.950  -0.005   5.188 -0.1779 -0.5624 -0.3598
    2TTP    C3321247   0.888  -0.052   5.309 -0.5783  0.6107 -1.8243
    2TTP    C3421248   0.784   0.040   5.366  0.8539  0.5431  0.4519
    2TTP    C3521249   0.693   0.006   5.478  0.7796 -1.0777  0.4935
    2TTP    C3621250   0.607  -0.128   5.459 -0.4629 -1.2229  0.5156
    2TTP    C3721251   0.681  -0.255   5.437 -0.3486  0.7819 -1.0152
    2TTP    C3821252   0.757  -0.336   5.555 -0.6445 -0.3685 -0.1405
    2TTP    C3921253   0.715  -0.332   5.697  0.0463 -0.3277 -0.2289
    2TTP    C4021254   0.570  -0.363   5.743 -0.7547  0.8151  1.0614
    2TTP    C4121255   0.500  -0.232   5.789 -0.0259  1.1846  0.1775
    2TTP    C4221256   0.569  -0.173   5.919  0.1193  0.6527  0.7799
    3TTP     S121257   1.492   0.730   5.901  0.3080  0.0366  0.1466
    3TTP     S521258   1.813   0.446   5.938 -0.3498 -0.7479 -0.0894
    3TTP     C121259   1.810   0.550   6.087  0.0386 -0.7083 -0.1059
    3TTP     C221260   1.711   0.643   6.085  0.2646 -0.4637 -0.0342
    3TTP     C321261   1.633   0.637   5.965  0.1392 -0.2988  0.0366
    3TTP     C421262   1.495   0.626   5.752 -0.0804 -0.0030  0.1632
    3TTP    C1721263   1.595   0.533   5.754 -0.3064 -0.2476  0.0915
    3TTP    C1821264   1.672   0.539   5.874 -0.1810 -0.4125  0.0205
    3TTP    C3221265   1.693   0.746   6.201 -0.7132  1.5914 -0.8982
    3TTP    C3321266   1.553   0.723   6.255 -0.0983 -0.7796 -1.1621
    3TTP    C3421267   1.527   0.832   6.371 -1.7977  0.8190  0.6501
    3TTP    C3521268   1.431   0.939   6.358  0.6705 -0.1824  0.9188
    3TTP    C3621269   1.273   0.920   6.366  0.2563 -0.5086  0.6530
    3TTP    C3721270   1.209   0.837   6.482 -0.2568  0.2374 -1.9580
    3TTP    C3821271   1.201   0.912   6.614 -0.3289 -0.4421  0.5753
    3TTP    C3921272   1.131   1.050   6.638 -0.6410  0.6870  0.5775
    3TTP    C4021273   1.208   1.126   6.729 -0.8678 -0.8855  0.6105
    3TTP    C4121274   1.163   1.267   6.725 -0.6547 -1.4217  0.4165
    3TTP    C4221275   1.262   1.388   6.705 -0.0495  1.9201  0.6841
    4FIC     F121276   1.681  -0.732   5.092 -0.0760  0.0138 -0.0417
    4FIC     F221277   1.517  -0.810   4.890 -0.3508 -0.3088  0.3012
    4FIC     O121278   1.427  -0.286   5.264  0.2154  0.3481 -0.4762
    4FIC     N521279   1.100  -0.604   4.720 -0.5381 -0.5336  0.4847
    4FIC     N621280   0.935  -0.239   4.895 -0.2550 -0.2074  0.0759
    4FIC    C1921281   1.180  -0.202   5.131  0.0564  0.1589 -0.3029
    4FIC    C2021282   1.250  -0.311   5.096 -0.0062  0.0875 -0.2069
    4FIC    C2121283   1.376  -0.348   5.169  0.0828  0.1931 -0.3059
    4FIC    C2221284   1.427  -0.471   5.106 -0.0184  0.0765 -0.1613
    4FIC    C2321285   1.542  -0.543   5.139  0.0139  0.1159 -0.1858
    4FIC    C2421286   1.569  -0.656   5.065 -0.1002 -0.0159 -0.0277
    4FIC    C2521287   1.485  -0.696   4.960 -0.2416 -0.1822  0.1489
    4FIC    C2621288   1.370  -0.625   4.926 -0.2745 -0.2222  0.1743
    4FIC    C2721289   1.341  -0.510   5.000 -0.1605 -0.0904  0.0157
    4FIC    C2821290   1.229  -0.413   4.990 -0.1587 -0.0901 -0.0052
    4FIC    C2921291   1.125  -0.417   4.900 -0.2759 -0.2282  0.1357
    4FIC    C3021292   1.112  -0.520   4.802 -0.4197 -0.3958  0.3270
    4FIC    C3121293   1.021  -0.319   4.898 -0.2638 -0.2160  0.1019
    5FIC     F121294   2.510   0.143   6.246 -0.4095 -0.4255  0.4928
    5FIC     F221295   2.566   0.323   6.443  0.0740  0.0923 -0.1093
    5FIC     O121296   2.038   0.336   6.063 -0.3559 -0.3156  0.4699
    5FIC     N521297   2.310   0.719   6.595  0.8073  0.9153 -0.9911
    5FIC     N621298   1.930   0.833   6.412  0.7517  0.8968 -0.8876
    5FIC    C1921299   1.924   0.576   6.185  0.1251  0.2182 -0.1133
    5FIC    C2021300   2.041   0.520   6.224  0.0927  0.1703 -0.0842
    5FIC    C2121301   2.093   0.397   6.156 -0.1605 -0.1097  0.2236
    5FIC    C2221302   2.220   0.364   6.222 -0.1295 -0.0903  0.1737
    5FIC    C2321303   2.306   0.257   6.193 -0.3122 -0.2976  0.3915
    5FIC    C2421304   2.421   0.246   6.269 -0.2384 -0.2303  0.2897
    5FIC    C2521305   2.450   0.339   6.370  0.0108  0.0367 -0.0206
    5FIC    C2621306   2.365   0.445   6.400  0.1941  0.2446 -0.2391
    5FIC    C2721307   2.248   0.458   6.324  0.1229  0.1803 -0.1404
    5FIC    C2821308   2.138   0.558   6.329  0.2694  0.3511 -0.3114
    5FIC    C2921309   2.130   0.665   6.415  0.5206  0.6244 -0.6207
    5FIC    C3021310   2.229   0.694   6.513  0.6773  0.7834 -0.8234
    5FIC    C3121311   2.020   0.757   6.413  0.6463  0.7727 -0.7657
    1BTD     S221312   8.642   7.330   6.126 -0.4828 -0.6709  0.1768
    1BTD     N121313   8.799   7.366   6.046 -0.3262 -0.5900  0.5159
    1BTD     N221314   8.571   7.250   5.982 -0.2916 -0.3177 -0.1196
    1BTD     N321315   8.708   7.151   5.544  0.3810  0.5481 -0.1107
    1BTD     N421316   8.990   7.294   5.623  0.3383  0.2124  0.6720
    1BTD     C521317   8.895   7.326   5.824  0.0215 -0.1671  0.5878
    1BTD     C621318   8.791   7.319   5.922 -0.1483 -0.3181  0.3970
    1BTD     C721319   8.663   7.254   5.886 -0.1295 -0.1657  0.0411
    1BTD     C821320   8.646   7.200   5.754  0.0591  0.1303 -0.1056
    1BTD    C1521321   8.751   7.210   5.661  0.2212  0.2695  0.0911
    1BTD    C1621322   8.874   7.272   5.696  0.2027  0.1225  0.4336
    1BTD    C4321323   9.051   7.196   5.528 -1.3593 -0.7127  1.1161
    1BTD    C4421324   9.148   7.240   5.418  0.5277 -1.1099  0.0126
    1BTD    C4521325   9.076   7.283   5.287 -0.3158  0.2934  1.2842
    1BTD    C4621326   9.170   7.382   5.206 -0.7346  0.3892 -1.6205
    1BTD    C4721327   9.250   7.130   5.413  0.2039  0.2949  0.5368
    1BTD    C4821328   9.204   6.975   5.415 -0.1565  0.8613  1.0175
    1BTD    C4921329   9.119   6.933   5.289 -0.3525 -1.8408 -0.2783
    1BTD    C5021330   9.177   6.932   5.161  0.9313 -0.3796 -1.5594
    1BTD    C7521331   8.755   7.205   5.414 -0.4343  0.8790  1.6194
    1BTD    C7621332   8.688   7.173   5.278  0.7105  0.9234 -0.9695
    1BTD    C7721333   8.750   7.184   5.142 -1.5897  0.3639 -0.4703
    1BTD    C7821334   8.774   7.061   5.055 -1.1094 -0.8249 -0.4067
    1BTD    C7921335   8.534   7.208   5.282  0.5114 -0.6789  0.4514
    1BTD    C8021336   8.452   7.186   5.155 -0.7137  0.8735 -0.2965
    1BTD    C8121337   8.325   7.267   5.137  1.1870 -0.2747 -1.9524
    1BTD    C8221338   8.262   7.231   5.010 -0.1571 -0.2539 -0.0107
    2TTP     S121339   9.113   7.506   5.929 -0.0018 -0.0185  0.0601
    2TTP     S521340   9.310   7.473   5.548  0.1070 -0.1320  0.1259
    2TTP     C121341   9.405   7.586   5.653  0.0806 -0.1058  0.1218
    2TTP     C221342   9.350   7.603   5.777  0.0458 -0.0693  0.1013
    2TTP     C321343   9.230   7.527   5.793  0.0381 -0.0606  0.0881
    2TTP     C421344   9.017   7.392   5.823  0.0248 -0.0447  0.0643
    2TTP    C1721345   9.072   7.375   5.700  0.0598 -0.0811  0.0846
    2TTP    C1821346   9.192   7.451   5.683  0.0672 -0.0898  0.0980
    2TTP    C3221347   9.398   7.686   5.885 -0.8739 -1.4524 -1.1088
    2TTP    C3321348   9.320   7.800   5.944  1.2201 -0.1533 -2.0413
    2TTP    C3421349   9.260   7.773   6.079 -0.3758 -0.5866 -0.1555
    2TTP    C3521350   9.362   7.711   6.182 -0.5424 -0.0446 -0.1951
    2TTP    C3621351   9.459   7.799   6.252  0.1670 -0.8296  1.8249
    2TTP    C3721352   9.586   7.740   6.310  0.3391  0.1412 -0.2543
    2TTP    C3821353   9.597   7.599   6.385 -0.3424  0.7160 -1.1321
    2TTP    C3921354   9.510   7.590   6.504  0.4707 -1.0049  1.3468
    2TTP    C4021355   9.521   7.498   6.613  0.1909  0.6124 -0.2000
    2TTP    C4121356   9.635   7.540   6.725  2.5713  0.0743  0.3284
    2TTP    C4221357   9.612   7.455   6.863  0.0975  0.4733  0.9096
    3TTP     S121358   8.466   7.002   5.798 -0.4128 -0.2710 -0.0412
    3TTP     S521359   8.586   6.813   5.430  0.2003 -0.0997  0.0691
    3TTP     C121360   8.502   6.690   5.534  0.0062 -0.1424 -0.1367
    3TTP     C221361   8.460   6.740   5.654 -0.1945 -0.1979 -0.1827
    3TTP     C321362   8.493   6.879   5.668 -0.2022 -0.2085 -0.0572
    3TTP     C421363   8.550   7.125   5.694 -0.2191 -0.2282  0.1647
    3TTP    C1721364   8.592   7.075   5.574 -0.0182 -0.1726  0.2107
    3TTP    C1821365   8.559   6.936   5.560 -0.0103 -0.1621  0.0854
    3TTP    C3221366   8.378   6.667   5.763  0.8209 -0.6892 -0.9573
    3TTP    C3321367   8.235   6.693   5.815  1.3819 -1.0226  0.1747
    3TTP    C3421368   8.213   6.634   5.944  0.3889  0.6253 -0.5267
    3TTP    C3521369   8.084   6.682   6.015 -0.1671  0.4568 -0.8385
    3TTP    C3621370   8.043   6.618   6.138  0.1590 -0.2595 -0.6375
    3TTP    C3721371   8.140   6.604   6.265 -0.7242 -0.4950  0.1938
    3TTP    C3821372   8.272   6.534   6.258 -0.1250  0.7730  0.6962
    3TTP    C3921373   8.263   6.386   6.216  0.9865  0.8990  0.1459
    3TTP    C4021374   8.319   6.304   6.339 -0.9629  0.6609 -0.4945
    3TTP    C4121375   8.335   6.146   6.336 -0.0320 -0.6245 -0.2383
    3TTP    C4221376   8.246   6.058   6.428  0.1779 -0.6490 -0.2249
    4FIC     F121377   9.897   7.656   4.988  0.0732 -0.4129 -0.0086
    4FIC     F221378  10.077   7.789   5.143 -0.1576  0.0029 -0.0933
    4FIC     O121379   9.493   7.582   5.341 -0.0451 -0.3535 -0.1309
    4FIC     N521380  10.048   7.927   5.618 -0.5736  0.6431 -0.3024
    4FIC     N621381   9.697   7.842   5.862 -0.6194  0.6057 -0.3809
    4FIC    C1921382   9.522   7.682   5.615 -0.3074  0.0648 -0.2554
    4FIC    C2021383   9.617   7.696   5.520 -0.2685  0.0336 -0.2213
    4FIC    C2121384   9.595   7.642   5.381 -0.1318 -0.1863 -0.1577
    4FIC    C2221385   9.716   7.673   5.304 -0.1228 -0.1632 -0.1335
    4FIC    C2321386   9.742   7.643   5.171 -0.0153 -0.3232 -0.0765
    4FIC    C2421387   9.865   7.683   5.119 -0.0296 -0.2627 -0.0642
    4FIC    C2521388   9.957   7.751   5.199 -0.1483 -0.0484 -0.1078
    4FIC    C2621389   9.932   7.782   5.332 -0.2563  0.1121 -0.1651
    4FIC    C2721390   9.809   7.742   5.386 -0.2437  0.0540 -0.1783
    4FIC    C2821391   9.751   7.759   5.522 -0.3378  0.1835 -0.2339
    4FIC    C2921392   9.811   7.821   5.629 -0.4654  0.4007 -0.2869
    4FIC    C3021393   9.941   7.879   5.622 -0.5243  0.5332 -0.2953
    4FIC    C3121394   9.748   7.832   5.757 -0.5493  0.5122 -0.3383
    5FIC     F121395   8.600   6.163   4.902 -0.4807 -0.2513  0.0700
    5FIC     F221396   8.429   5.995   5.032  0.1504 -0.5023  0.5857
    5FIC     O121397   8.621   6.576   5.252 -0.3769 -0.0257 -0.2022
    5FIC     N521398   8.200   6.047   5.467  1.1311 -0.7023  1.1331
    5FIC     N621399   8.251   6.404   5.714  1.0850 -0.4754  0.8165
    5FIC    C1921400   8.466   6.562   5.500  0.2626 -0.1853  0.1937
    5FIC    C2021401   8.467   6.465   5.407  0.2120 -0.2325  0.2421
    5FIC    C2121402   8.550   6.479   5.282 -0.1242 -0.1440  0.0284
    5FIC    C2221403   8.528   6.356   5.203 -0.0925 -0.2260  0.1470
    5FIC    C2321404   8.584   6.324   5.080 -0.3383 -0.1874  0.0253
    5FIC    C2421405   8.548   6.202   5.024 -0.2498 -0.2825  0.1778
    5FIC    C2521406   8.461   6.115   5.091  0.0755 -0.4119  0.4433
    5FIC    C2621407   8.405   6.147   5.215  0.3219 -0.4508  0.5659
    5FIC    C2721408   8.440   6.270   5.272  0.2370 -0.3561  0.4147
    5FIC    C2821409   8.399   6.333   5.400  0.4370 -0.3650  0.4840
    5FIC    C2921410   8.313   6.280   5.494  0.7675 -0.4753  0.7257
    5FIC    C3021411   8.251   6.152   5.479  0.9663 -0.5997  0.9488
    5FIC    C3121412   8.280   6.348   5.615  0.9401 -0.4747  0.7741
    1BTD     S221413   3.336   3.444   7.139  0.1938 -0.5397 -0.2601
    1BTD     N121414   3.389   3.557   7.010 -0.1429 -0.0113  0.0584
    1BTD     N221415   3.207   3.368   7.040  0.4361 -0.6654 -0.4827
    1BTD     N321416   3.038   3.418   6.605  0.3222  0.0322 -0.3610
    1BTD     N421417   3.262   3.651   6.568 -0.3913  0.8383  0.3058
    1BTD     C521418   3.320   3.603   6.780 -0.2640  0.4226  0.1795
    1BTD     C621419   3.311   3.534   6.905 -0.0615  0.0414 -0.0138
    1BTD     C721420   3.209   3.428   6.922  0.2626 -0.3248 -0.3167
    1BTD     C821421   3.121   3.397   6.813  0.3681 -0.2914 -0.4112
    1BTD    C1521422   3.134   3.467   6.691  0.1616  0.0881 -0.2144
    1BTD    C1621423   3.232   3.569   6.675 -0.1507  0.4407  0.0774
    1BTD    C4321424   3.165   3.712   6.477  0.0993  0.0550  0.1654
    1BTD    C4421425   3.133   3.859   6.522  0.4223  0.5040 -0.3761
    1BTD    C4521426   3.075   3.855   6.679 -0.4491  0.1408  0.9492
    1BTD    C4621427   2.918   3.798   6.683 -0.5266  0.3004 -0.2073
    1BTD    C4721428   3.034   3.911   6.412 -0.1337  0.3243 -0.2576
    1BTD    C4821429   2.983   4.041   6.396 -0.9114 -0.1017  0.4595
    1BTD    C4921430   2.912   4.083   6.279  0.1342  0.1187 -0.5784
    1BTD    C5021431   2.824   4.193   6.312 -0.0326 -0.9356  0.3403
    1BTD    C7521432   3.049   3.408   6.463  0.3395 -1.1543  0.4164
    1BTD    C7621433   2.966   3.316   6.367  0.4950  1.3796 -0.2527
    1BTD    C7721434   2.961   3.166   6.412 -1.1915  0.6201 -0.8543
    1BTD    C7821435   3.079   3.065   6.384  0.1681 -0.2117  0.1512
    1BTD    C7921436   3.000   3.341   6.222  0.1604  0.0128 -0.0072
    1BTD    C8021437   2.937   3.246   6.118  0.2200  0.2878 -0.5468
    1BTD    C8121438   2.983   3.220   5.977  0.6231 -1.1150 -0.3282
    1BTD    C8221439   2.959   3.344   5.886  0.4295  0.0706 -0.2242
    2TTP     S121440   3.578   3.779   6.762  0.3586  0.2926 -0.1183
    2TTP     S521441   3.508   3.820   6.340  0.0626 -0.1845 -0.1169
    2TTP     C121442   3.668   3.897   6.380  0.1755 -0.2959 -0.3460
    2TTP     C221443   3.699   3.889   6.513  0.2736 -0.1552 -0.3597
    2TTP     C321444   3.597   3.822   6.588  0.2631  0.0457 -0.1900
    2TTP     C421445   3.418   3.701   6.722  0.2457  0.4039  0.1106
    2TTP    C1721446   3.387   3.709   6.589  0.1476  0.2631  0.1246
    2TTP    C1821447   3.489   3.777   6.514  0.1581  0.0622 -0.0451
    2TTP    C3221448   3.834   3.934   6.586  0.4886  0.5020 -0.3066
    2TTP    C3321449   3.781   4.038   6.680  0.4417  0.0165 -0.9744
    2TTP    C3421450   3.893   4.139   6.723  0.3713 -0.7870  0.8647
    2TTP    C3521451   3.910   4.284   6.639 -0.3147 -0.8069 -0.2783
    2TTP    C3621452   3.780   4.357   6.607  0.0708  0.9992 -1.0113
    2TTP    C3721453   3.761   4.434   6.480 -1.7531  0.4158 -1.3088
    2TTP    C3821454   3.628   4.512   6.460 -0.4185  0.4961 -1.1778
    2TTP    C3921455   3.505   4.424   6.464  0.9271 -0.1826 -0.7736
    2TTP    C4021456   3.468   4.311   6.372  0.6106  0.0216 -0.1187
    2TTP    C4121457   3.311   4.286   6.376 -0.0235 -1.7076 -1.0645
    2TTP    C4221458   3.256   4.275   6.526  0.0376  0.3592 -1.3422
    3TTP     S121459   2.888   3.246   6.917 -0.3854  0.0972  0.0063
    3TTP     S521460   2.685   3.297   6.541 -0.6019 -1.2628 -0.0712
    3TTP     C121461   2.566   3.233   6.663 -0.4975 -0.9581  0.1923
    3TTP     C221462   2.621   3.214   6.786 -0.4245 -0.5201  0.2317
    3TTP     C321463   2.760   3.248   6.789 -0.4483 -0.4095  0.0552
    3TTP     C421464   3.007   3.309   6.795 -0.4897 -0.2075 -0.2573
    3TTP    C1721465   2.951   3.329   6.672 -0.5628 -0.6456 -0.2967
    3TTP    C1821466   2.812   3.294   6.669 -0.5389 -0.7562 -0.1203
    3TTP    C3221467   2.550   3.128   6.903 -1.0467 -0.0963 -0.2163
    3TTP    C3321468   2.570   2.979   6.957 -0.0362  0.4026 -0.0371
    3TTP    C3421469   2.534   2.855   6.869  0.0145 -1.1479 -0.4992
    3TTP    C3521470   2.395   2.808   6.898  0.3444 -0.5486 -1.1501
    3TTP    C3621471   2.362   2.677   6.826  0.2249 -0.2544  0.6044
    3TTP    C3721472   2.276   2.570   6.886  0.4456 -0.6344 -1.4843
    3TTP    C3821473   2.259   2.448   6.786  0.1902 -0.7299 -1.2309
    3TTP    C3921474   2.128   2.455   6.727  0.4955  0.8145  0.9833
    3TTP    C4021475   2.060   2.336   6.654  1.0097 -1.2418 -0.2291
    3TTP    C4121476   1.939   2.407   6.590 -0.1026 -0.2697  0.3267
    3TTP    C4221477   1.848   2.291   6.594 -0.7228  0.6900 -0.9026
    4FIC     F121478   3.600   4.117   5.596 -0.0402 -0.5637 -0.0826
    4FIC     F221479   3.858   4.205   5.605 -0.4891  0.7902  0.0764
    4FIC     O121480   3.534   3.943   6.105  0.6791 -1.3000 -0.2363
    4FIC     N521481   4.181   4.206   5.980 -0.6217  2.2124  0.1956
    4FIC     N621482   4.077   4.053   6.376  0.0309  1.3644  0.0436
    4FIC    C1921483   3.756   3.965   6.294  0.5059 -0.2678 -0.1387
    4FIC    C2021484   3.763   4.005   6.166  0.3424 -0.1355 -0.1063
    4FIC    C2121485   3.644   3.991   6.074  0.4463 -0.6932 -0.1605
    4FIC    C2221486   3.685   4.044   5.943  0.2180 -0.3767 -0.1059
    4FIC    C2321487   3.609   4.052   5.827  0.2164 -0.6912 -0.1278
    4FIC    C2421488   3.670   4.107   5.715 -0.0244 -0.2859 -0.0652
    4FIC    C2521489   3.802   4.152   5.720 -0.2553  0.4117  0.0166
    4FIC    C2621490   3.879   4.144   5.835 -0.2552  0.7288  0.0390
    4FIC    C2721491   3.819   4.089   5.950 -0.0134  0.3269 -0.0235
    4FIC    C2821492   3.872   4.067   6.087  0.0540  0.5027 -0.0205
    4FIC    C2921493   3.999   4.098   6.131 -0.1183  1.1362  0.0486
    4FIC    C3021494   4.098   4.157   6.048 -0.3945  1.7258  0.1293
    4FIC    C3121495   4.041   4.073   6.266 -0.0352  1.2580  0.0455
    5FIC     F121496   2.037   3.202   6.025  0.2086  0.1730  0.2124
    5FIC     F221497   1.836   3.160   6.203  0.2012 -0.5282  0.0436
    5FIC     O121498   2.463   3.233   6.358 -0.0499  0.7222  0.4947
    5FIC     N521499   1.850   3.121   6.697  0.0062 -1.1450  0.0025
    5FIC     N621500   2.223   3.153   6.921 -0.1944 -0.5746  0.2571
    5FIC    C1921501   2.422   3.203   6.647 -0.1488  0.2473  0.4340
    5FIC    C2021502   2.323   3.197   6.556 -0.0836  0.1366  0.3695
    5FIC    C2121503   2.352   3.213   6.409 -0.0357  0.3968  0.4064
    5FIC    C2221504   2.223   3.201   6.339  0.0307  0.1892  0.3175
    5FIC    C2321505   2.199   3.209   6.203  0.0908  0.3147  0.3141
    5FIC    C2421506   2.068   3.195   6.160  0.1474  0.0672  0.2210
    5FIC    C2521507   1.964   3.173   6.251  0.1435 -0.2938  0.1342
    5FIC    C2621508   1.987   3.165   6.388  0.0836 -0.4209  0.1369
    5FIC    C2721509   2.119   3.179   6.434  0.0258 -0.1745  0.2306
    5FIC    C2821510   2.177   3.176   6.570 -0.0446 -0.2212  0.2590
    5FIC    C2921511   2.107   3.157   6.688 -0.0689 -0.5360  0.1954
    5FIC    C3021512   1.966   3.137   6.692 -0.0275 -0.8698  0.0894
    5FIC    C3121513   2.171   3.155   6.815 -0.1377 -0.5553  0.2296
    1BTD     S221514   6.352   6.812   3.920  0.1003  0.1568  0.3364
    1BTD     N121515   6.337   6.936   3.790 -0.3223 -0.3139 -0.0719
    1BTD     N221516   6.479   6.717   3.834  0.4003  0.2848  0.6337
    1BTD     N321517   6.709   6.748   3.426  0.2491 -0.3040  0.5023
    1BTD     N421518   6.533   7.017   3.372 -0.6412 -1.0417 -0.3670
    1BTD     C521519   6.441   6.975   3.573 -0.4780 -0.6849 -0.2155
    1BTD     C621520   6.422   6.902   3.695 -0.2229 -0.3495  0.0293
    1BTD     C721521   6.502   6.780   3.719  0.1816 -0.0144  0.4241
    1BTD     C821522   6.597   6.737   3.620  0.3107 -0.0316  0.5546
    1BTD    C1521523   6.612   6.811   3.502  0.0509 -0.3659  0.3049
    1BTD    C1621524   6.535   6.929   3.478 -0.3390 -0.6889 -0.0756
    1BTD    C4321525   6.559   6.972   3.239  0.2180  0.5477  0.3518
    1BTD    C4421526   6.587   7.082   3.139 -0.8709 -0.9651  0.3561
    1BTD    C4521527   6.595   7.013   2.988  0.9483 -0.7370 -0.8027
    1BTD    C4621528   6.444   7.009   2.938  0.6423 -0.5358 -0.2323
    1BTD    C4721529   6.731   7.160   3.139  0.5159 -0.1197 -0.4545
    1BTD    C4821530   6.759   7.275   3.234  0.1708 -1.4832  1.1051
    1BTD    C4921531   6.859   7.370   3.179 -0.0931  1.1244  0.5080
    1BTD    C5021532   6.817   7.513   3.221 -0.3113 -0.3374 -0.5919
    1BTD    C7521533   6.798   6.781   3.306  0.5068 -1.3983  1.1111
    1BTD    C7621534   6.902   6.904   3.313 -1.2778  1.2435 -0.8171
    1BTD    C7721535   6.986   6.896   3.192  0.2363 -1.5638 -0.0689
    1BTD    C7821536   7.044   7.030   3.133 -1.0295  1.9300  0.2275
    1BTD    C7921537   6.971   6.938   3.448  0.0988  2.0597 -1.5088
    1BTD    C8021538   6.985   7.083   3.473 -0.3844 -0.6452 -0.5675
    1BTD    C8121539   6.951   7.141   3.610  0.0008  0.3960 -0.4748
    1BTD    C8221540   7.013   7.285   3.638  1.7452 -0.5040 -0.6168
    2TTP     S121541   6.257   7.200   3.583 -0.0529  0.4802  0.3524
    2TTP     S521542   6.430   7.368   3.227 -0.5521 -0.0254 -0.1336
    2TTP     C121543   6.308   7.486   3.294 -0.0762  0.3023  0.1720
    2TTP     C221544   6.248   7.441   3.408  0.1061  0.4777  0.3401
    2TTP     C321545   6.295   7.312   3.446 -0.1237  0.3595  0.2336
    2TTP     C421546   6.379   7.082   3.517 -0.5289  0.1525  0.0468
    2TTP    C1721547   6.439   7.127   3.403 -0.7110 -0.0229 -0.1212
    2TTP    C1821548   6.392   7.256   3.364 -0.4814  0.0951 -0.0148
    2TTP    C3221549   6.126   7.491   3.494  1.2993  0.7303  0.7628
    2TTP    C3321550   6.135   7.594   3.609  0.0067  0.2586  0.8788
    2TTP    C3421551   6.240   7.703   3.573 -0.7031  0.3700  0.2498
    2TTP    C3521552   6.200   7.818   3.489  0.0486  0.3972 -0.5935
    2TTP    C3621553   6.292   7.932   3.485  0.2470  0.5833  0.0886
    2TTP    C3721554   6.233   8.042   3.577 -0.8882 -0.1395  0.6259
    2TTP    C3821555   6.277   8.170   3.505  0.3982  0.6592  0.4939
    2TTP    C3921556   6.174   8.291   3.527 -0.2641 -0.1788  0.1574
    2TTP    C4021557   6.029   8.296   3.478  1.0101 -0.0832  0.2312
    2TTP    C4121558   5.931   8.414   3.544 -0.8146 -0.0981 -1.3494
    2TTP    C4221559   5.792   8.408   3.495 -0.4476  0.0953 -0.3379
    3TTP     S121560   6.708   6.461   3.692 -0.5693  0.1667 -0.1787
    3TTP     S521561   6.890   6.456   3.302  0.1042 -0.0619  0.1360
    3TTP     C121562   6.909   6.291   3.377  0.3488  0.1024  0.4370
    3TTP     C221563   6.854   6.283   3.502  0.1552  0.1827  0.3576
    3TTP     C321564   6.795   6.406   3.543 -0.1932  0.1172  0.0561
    3TTP     C421565   6.688   6.625   3.616 -0.8140  0.0024 -0.4798
    3TTP    C1721566   6.743   6.633   3.492 -0.6204 -0.0779 -0.4003
    3TTP    C1821567   6.803   6.510   3.451 -0.2720 -0.0126 -0.0988
    3TTP    C3221568   6.891   6.169   3.594 -0.3583  0.6147  0.0167
    3TTP    C3321569   6.958   6.177   3.730  1.0784 -0.0893  0.2288
    3TTP    C3421570   7.107   6.169   3.735 -1.3919  0.7030  0.2601
    3TTP    C3521571   7.177   6.210   3.872 -0.5283 -1.4936  0.1717
    3TTP    C3621572   7.129   6.270   4.006 -0.0833  0.1722  1.1396
    3TTP    C3721573   7.230   6.340   4.091 -0.4571  0.4804  0.5288
    3TTP    C3821574   7.211   6.493   4.100  1.3172 -0.5189  0.8249
    3TTP    C3921575   7.283   6.571   4.215  1.0618  0.9656  0.2416
    3TTP    C4021576   7.186   6.589   4.326  0.8428  0.0396  0.8497
    3TTP    C4121577   7.089   6.703   4.340 -1.8487  0.4062  0.9847
    3TTP    C4221578   6.965   6.682   4.433 -0.3581 -0.1444 -0.4330
    4FIC     F121579   6.643   7.900   2.674  0.1405  0.0590  0.3034
    4FIC     F221580   6.409   8.036   2.647  0.0994 -0.0370  0.1759
    4FIC     O121581   6.528   7.579   3.095  0.0923  0.1144  0.3327
    4FIC     N521582   5.990   8.002   2.909  0.0058 -0.1357  0.0134
    4FIC     N621583   5.947   7.725   3.243 -0.0235 -0.0731  0.0620
    4FIC    C1921584   6.263   7.595   3.219  0.0359  0.0423  0.2213
    4FIC    C2021585   6.301   7.670   3.114  0.0496  0.0321  0.2189
    4FIC    C2121586   6.439   7.656   3.056  0.0787  0.0712  0.2782
    4FIC    C2221587   6.447   7.752   2.944  0.0873  0.0478  0.2587
    4FIC    C2321588   6.556   7.775   2.860  0.1125  0.0695  0.2972
    4FIC    C2421589   6.540   7.871   2.761  0.1162  0.0400  0.2681
    4FIC    C2521590   6.419   7.941   2.747  0.0948 -0.0096  0.2024
    4FIC    C2621591   6.310   7.919   2.831  0.0696 -0.0314  0.1637
    4FIC    C2721592   6.325   7.822   2.932  0.0657 -0.0020  0.1924
    4FIC    C2821593   6.230   7.774   3.036  0.0417 -0.0137  0.1653
    4FIC    C2921594   6.101   7.818   3.055  0.0168 -0.0583  0.1024
    4FIC    C3021595   6.040   7.919   2.975  0.0110 -0.1007  0.0538
    4FIC    C3121596   6.017   7.766   3.158 -0.0051 -0.0660  0.0806
    5FIC     F121597   7.355   6.232   2.685  0.2604 -0.1097  0.0316
    5FIC     F221598   7.468   6.005   2.783 -0.4591 -0.7712 -0.6423
    5FIC     O121599   7.017   6.360   3.089  1.0816  0.0877  0.6599
    5FIC     N521600   7.391   5.769   3.212 -0.9081 -1.5815 -1.1632
    5FIC     N621601   7.105   5.915   3.507 -0.1214 -1.2939 -0.5364
    5FIC    C1921602   7.006   6.188   3.326  0.6860 -0.4741  0.2393
    5FIC    C2021603   7.087   6.165   3.221  0.5075 -0.4979  0.1076
    5FIC    C2121604   7.087   6.258   3.103  0.7304 -0.1978  0.3405
    5FIC    C2221605   7.185   6.204   3.007  0.4506 -0.3104  0.1149
    5FIC    C2321606   7.220   6.255   2.882  0.5220 -0.1206  0.2130
    5FIC    C2421607   7.315   6.186   2.809  0.2103 -0.2823 -0.0472
    5FIC    C2521608   7.374   6.069   2.860 -0.1600 -0.6232 -0.3942
    5FIC    C2621609   7.339   6.017   2.984 -0.2333 -0.8140 -0.4941
    5FIC    C2721610   7.243   6.086   3.059  0.0784 -0.6547 -0.2341
    5FIC    C2821611   7.185   6.057   3.193  0.0986 -0.7836 -0.2525
    5FIC    C2921612   7.216   5.951   3.275 -0.2037 -1.1059 -0.5469
    5FIC    C3021613   7.312   5.852   3.240 -0.5901 -1.3664 -0.8848
    5FIC    C3121614   7.155   5.932   3.402 -0.1568 -1.2076 -0.5394
    1BTD     S221615   6.193   9.872   8.545 -0.0468  0.0577 -0.4652
    1BTD     N121616   6.027   9.873   8.615  0.2078  0.0362  0.1495
    1BTD     N221617   6.194  10.048   8.507 -0.3554 -0.0165 -0.8276
    1BTD     N321618   5.896  10.408   8.557 -0.5245 -0.2062 -0.4563
    1BTD     N421619   5.691  10.192   8.690  0.1694 -0.1411  0.7477
    1BTD     C521620   5.854  10.042   8.652  0.1794 -0.0572  0.4473
    1BTD     C621621   5.983   9.998   8.607  0.0575 -0.0219  0.0572
    1BTD     C721622   6.077  10.096   8.547 -0.2577 -0.0515 -0.4892
    1BTD     C821623   6.036  10.233   8.535 -0.4352 -0.1147 -0.6194
    1BTD    C1521624   5.909  10.272   8.580 -0.3065 -0.1474 -0.2250
    1BTD    C1621625   5.819  10.178   8.639 -0.0027 -0.1190  0.3017
    1BTD    C4321626   5.602  10.297   8.631 -0.4890  0.2691 -0.5526
    1BTD    C4421627   5.438  10.280   8.624 -0.4623  0.0997  0.7332
    1BTD    C4521628   5.375  10.421   8.656 -0.1352 -0.8194 -0.0720
    1BTD    C4621629   5.319  10.449   8.784  0.0007 -0.2320 -0.3535
    1BTD    C4721630   5.383  10.186   8.529  0.8921  1.1595  1.1377
    1BTD    C4821631   5.223  10.173   8.524  0.9187  0.2322 -0.8144
    1BTD    C4921632   5.173  10.155   8.670 -1.3808 -0.1859 -0.2565
    1BTD    C5021633   5.052  10.077   8.684  0.0512  0.4632  0.4257
    1BTD    C7521634   5.818  10.512   8.618  1.1354 -0.7767  1.1468
    1BTD    C7621635   5.831  10.607   8.734  0.6577 -0.0865  0.5588
    1BTD    C7721636   5.725  10.722   8.735  0.3865  0.1314 -0.2004
    1BTD    C7821637   5.735  10.819   8.611 -0.1462 -0.3211  0.4435
    1BTD    C7921638   5.844  10.540   8.873 -1.0453 -0.2882 -0.1057
    1BTD    C8021639   5.896  10.616   8.999  1.3772 -0.6982  0.0529
    1BTD    C8121640   5.776  10.620   9.109 -0.7215 -0.6735  0.0023
    1BTD    C8221641   5.821  10.706   9.230 -0.7678  0.3621  0.7963
    2TTP     S121642   5.730   9.835   8.821  0.1261  0.3878 -0.1124
    2TTP     S521643   5.411  10.106   8.917 -0.1442  0.0401 -0.0255
    2TTP     C121644   5.396   9.959   9.023 -0.0034 -0.0123 -0.0779
    2TTP     C221645   5.494   9.867   9.000  0.0882  0.0918 -0.1080
    2TTP     C321646   5.584   9.908   8.897  0.0509  0.2170 -0.0904
    2TTP     C421647   5.745   9.981   8.714 -0.0145  0.4401 -0.0596
    2TTP    C1721648   5.647  10.074   8.737 -0.1063  0.3359 -0.0295
    2TTP    C1821649   5.557  10.032   8.840 -0.0688  0.2108 -0.0470
    2TTP    C3221650   5.500   9.727   9.063 -0.3520  1.0337  0.5596
    2TTP    C3321651   5.427   9.621   8.971 -0.8103  0.7306 -0.0826
    2TTP    C3421652   5.389   9.482   9.027 -1.3593 -0.6620  0.9996
    2TTP    C3521653   5.375   9.370   8.919  0.9794 -0.7864 -0.5536
    2TTP    C3621654   5.318   9.235   8.989 -0.0833  1.0163 -0.6582
    2TTP    C3721655   5.178   9.260   9.022 -0.5499  0.3527  0.6434
    2TTP    C3821656   5.098   9.128   9.018 -0.7180 -0.5771 -0.1746
    2TTP    C3921657   5.120   9.041   9.135 -1.1794 -0.9088 -0.1098
    2TTP    C4021658   5.017   8.939   9.175 -0.5058  0.0292 -0.1892
    2TTP    C4121659   4.878   8.984   9.191 -0.2543  1.3015  0.1526
    2TTP    C4221660   4.803   8.862   9.249 -0.4045 -0.9475  0.4602
    3TTP     S121661   6.243  10.387   8.368 -0.1868 -0.5254 -0.1338
    3TTP     S521662   5.980  10.727   8.355 -0.0063 -0.3941 -0.3760
    3TTP     C121663   6.125  10.763   8.252  0.0525 -0.5120 -0.3342
    3TTP     C221664   6.215  10.660   8.250  0.0001 -0.5591 -0.2570
    3TTP     C321665   6.172  10.549   8.330 -0.0882 -0.5047 -0.2282
    3TTP     C421666   6.097  10.351   8.471 -0.2457 -0.4077 -0.1755
    3TTP    C1721667   6.007  10.454   8.473 -0.1934 -0.3606 -0.2529
    3TTP    C1821668   6.050  10.565   8.394 -0.1049 -0.4153 -0.2820
    3TTP    C3221669   6.350  10.645   8.172  1.5708 -0.3927  0.3535
    3TTP    C3321670   6.348  10.549   8.063 -0.2488 -0.1190 -0.4281
    3TTP    C3421671   6.480  10.470   8.056  0.5278  0.0131 -0.0425
    3TTP    C3521672   6.545  10.380   8.163  0.3870 -1.1068 -0.1410
    3TTP    C3621673   6.684  10.340   8.151 -0.2215 -0.8048 -0.0419
    3TTP    C3721674   6.679  10.195   8.196  0.0180 -0.0389 -0.1656
    3TTP    C3821675   6.739  10.117   8.084  1.3098  0.1168  0.5578
    3TTP    C3921676   6.722   9.963   8.091 -0.2987  0.7094  0.1573
    3TTP    C4021677   6.658   9.904   7.963 -0.0681 -0.2740  0.9841
    3TTP    C4121678   6.512   9.909   7.966  0.0322 -0.3867  0.1748
    3TTP    C4221679   6.442   9.832   8.075  0.0173 -0.9016 -0.3377
    4FIC     F121680   4.900  10.477   9.413 -0.0341 -0.0124 -0.2828
    4FIC     F221681   4.797  10.267   9.551  0.2298  0.1011  0.0920
    4FIC     O121682   5.263  10.226   9.099 -0.5760 -0.2601 -0.7138
    4FIC     N521683   4.906   9.785   9.526  0.2230  0.0880  0.3235
    4FIC     N621684   5.210   9.631   9.253 -0.2536 -0.1285 -0.0887
    4FIC    C1921685   5.293   9.935   9.120 -0.5163 -0.2396 -0.5089
    4FIC    C2021686   5.205  10.007   9.193 -0.3903 -0.1817 -0.4153
    4FIC    C2121687   5.196  10.156   9.177 -0.4313 -0.1967 -0.5307
    4FIC    C2221688   5.092  10.202   9.271 -0.2660 -0.1218 -0.3841
    4FIC    C2321689   5.048  10.332   9.292 -0.2388 -0.1068 -0.4208
    4FIC    C2421690   4.949  10.351   9.387 -0.0704 -0.0313 -0.2577
    4FIC    C2521691   4.895  10.242   9.458  0.0652  0.0273 -0.0646
    4FIC    C2621692   4.939  10.112   9.438  0.0390  0.0126 -0.0272
    4FIC    C2721693   5.040  10.091   9.342 -0.1305 -0.0634 -0.1903
    4FIC    C2821694   5.107   9.967   9.297 -0.2016 -0.0982 -0.2019
    4FIC    C2921695   5.083   9.839   9.343 -0.1096 -0.0598 -0.0446
    4FIC    C3021696   4.986   9.810   9.443  0.0730  0.0212  0.1571
    4FIC    C3121697   5.153   9.725   9.293 -0.1894 -0.0980 -0.0699
    5FIC     F121698   5.643  11.415   8.079  0.0290 -0.1669  0.5460
    5FIC     F221699   5.771  11.437   7.840  0.3582  0.6521  0.7924
    5FIC     O121700   5.909  10.999   8.300 -0.2209 -0.8767 -0.4690
    5FIC     N521701   6.146  11.173   7.654  0.6533  1.3237  0.4227
    5FIC     N621702   6.329  10.843   7.876  0.3918  0.6042 -0.4200
    5FIC    C1921703   6.127  10.873   8.151  0.0049 -0.3464 -0.5945
    5FIC    C2021704   6.055  10.976   8.104  0.0548 -0.1996 -0.3486
    5FIC    C2121705   5.945  11.036   8.187 -0.0688 -0.4919 -0.2997
    5FIC    C2221706   5.887  11.146   8.107  0.0267 -0.2317 -0.0131
    5FIC    C2321707   5.782  11.231   8.142 -0.0340 -0.3631  0.1254
    5FIC    C2421708   5.746  11.328   8.050  0.0805 -0.0590  0.3964
    5FIC    C2521709   5.812  11.339   7.927  0.2499  0.3629  0.5228
    5FIC    C2621710   5.917  11.255   7.892  0.3114  0.4961  0.3854
    5FIC    C2721711   5.955  11.156   7.984  0.1975  0.1926  0.1111
    5FIC    C2821712   6.061  11.052   7.977  0.2215  0.2294 -0.0900
    5FIC    C2921713   6.148  11.030   7.873  0.3699  0.5913 -0.0448
    5FIC    C3021714   6.147  11.109   7.753  0.5252  0.9925  0.2121
    5FIC    C3121715   6.247  10.928   7.875  0.3810  0.5963 -0.2517
    1BTD     S221716   6.202   6.146  10.848 -0.1014 -0.4924 -0.1032
    1BTD     N121717   6.354   6.213  10.915 -0.2269 -0.2917 -0.0174
    1BTD     N221718   6.242   6.187  10.677  0.0032 -0.5690 -0.0975
    1BTD     N321719   6.598   6.393  10.451 -0.0100 -0.3628  0.0689
    1BTD     N421720   6.737   6.425  10.744 -0.2936 -0.0212  0.1676
    1BTD     C521721   6.552   6.324  10.822 -0.2582 -0.1546  0.0777
    1BTD     C621722   6.423   6.261  10.812 -0.1863 -0.2922  0.0095
    1BTD     C721723   6.360   6.246  10.679 -0.0576 -0.4473 -0.0350
    1BTD     C821724   6.429   6.295  10.563 -0.0072 -0.4572 -0.0095
    1BTD    C1521725   6.555   6.356  10.577 -0.0809 -0.3193  0.0577
    1BTD    C1621726   6.616   6.370  10.706 -0.2049 -0.1700  0.1009
    1BTD    C4321727   6.801   6.537  10.698  0.7908 -0.3063  0.6733
    1BTD    C4421728   6.730   6.680  10.711 -0.2112 -0.7842 -0.2351
    1BTD    C4521729   6.824   6.799  10.764  0.3995  0.8387  1.4212
    1BTD    C4621730   6.969   6.765  10.797 -0.2443  0.6312 -0.2424
    1BTD    C4721731   6.594   6.727  10.656  0.2140  1.1232 -1.4896
    1BTD    C4821732   6.484   6.677  10.755 -0.3723 -0.1826 -0.9706
    1BTD    C4921733   6.345   6.687  10.699 -0.6771  1.3519  0.0744
    1BTD    C5021734   6.241   6.759  10.785 -0.7346  0.4562 -0.0272
    1BTD    C7521735   6.732   6.418  10.409  0.1871 -0.0850  0.4410
    1BTD    C7621736   6.804   6.449  10.273 -0.1987 -0.4425 -0.2338
    1BTD    C7721737   6.792   6.342  10.168  1.5382  0.3354 -0.1244
    1BTD    C7821738   6.872   6.379  10.047 -0.2744  0.1922  1.2457
    1BTD    C7921739   6.937   6.500  10.326 -0.3566 -0.1571  0.0140
    1BTD    C8021740   6.948   6.639  10.388  0.1612 -1.3857 -1.1660
    1BTD    C8121741   7.029   6.753  10.326  0.0416 -1.1295  0.3932
    1BTD    C8221742   6.964   6.807  10.193 -0.5549  0.0235 -0.4842
    2TTP     S121743   6.664   6.279  11.102  0.1556 -0.1396 -0.2081
    2TTP     S521744   7.049   6.421  10.975  0.2933 -0.5808 -0.2875
    2TTP     C121745   7.065   6.354  11.143  0.1460 -0.1488 -0.0982
    2TTP     C221746   6.947   6.306  11.192  0.0949  0.0131 -0.0625
    2TTP     C321747   6.840   6.320  11.099  0.1700 -0.1987 -0.1834
    2TTP     C421748   6.648   6.346  10.934  0.3027 -0.5717 -0.3974
    2TTP    C1721749   6.766   6.394  10.885  0.3540 -0.7335 -0.4332
    2TTP    C1821750   6.873   6.379  10.978  0.2787 -0.5221 -0.3121
    2TTP    C3221751   6.925   6.246  11.338  0.6119  0.7354 -0.4438
    2TTP    C3321752   6.851   6.361  11.429 -0.4860  0.5419 -1.3196
    2TTP    C3421753   6.780   6.282  11.552 -0.6679 -0.8724 -0.9614
    2TTP    C3521754   6.857   6.318  11.680  0.2978 -0.4200 -0.3558
    2TTP    C3621755   6.791   6.316  11.827 -0.4761  0.4505  1.6109
    2TTP    C3721756   6.649   6.347  11.825 -0.6260 -1.3917 -0.1243
    2TTP    C3821757   6.592   6.439  11.940  0.1170  0.3810 -0.5267
    2TTP    C3921758   6.632   6.416  12.092  0.0025 -0.2626  0.9345
    2TTP    C4021759   6.610   6.533  12.185  0.3043 -0.9983  1.6129
    2TTP    C4121760   6.509   6.492  12.286  0.2760  0.4745  0.4981
    2TTP    C4221761   6.490   6.578  12.389 -0.2056  0.2503 -0.5190
    3TTP     S121762   6.226   6.342  10.372 -0.1081  0.0580 -0.2366
    3TTP     S521763   6.490   6.635  10.200  0.2724  0.0968  0.4070
    3TTP     C121764   6.319   6.675  10.151  0.3775  0.1157  0.0518
    3TTP     C221765   6.228   6.586  10.201  0.2661  0.1050 -0.1678
    3TTP     C321766   6.289   6.484  10.280  0.0939  0.0812 -0.0637
    3TTP     C421767   6.397   6.302  10.421 -0.2131  0.0391  0.1185
    3TTP    C1721768   6.488   6.390  10.371 -0.1017  0.0498  0.3382
    3TTP    C1821769   6.427   6.492  10.292  0.0705  0.0736  0.2337
    3TTP    C3221770   6.083   6.592  10.230  0.9483  0.7630  1.6203
    3TTP    C3321771   5.988   6.616  10.104  0.0287  1.7200  0.0055
    3TTP    C3421772   5.971   6.499  10.006 -0.6844 -0.7454 -0.0070
    3TTP    C3521773   5.920   6.539   9.858  0.2294  0.0130 -0.4013
    3TTP    C3621774   5.998   6.651   9.801  0.2035  0.6684  0.5836
    3TTP    C3721775   6.019   6.616   9.656  0.1712 -0.8574  0.0915
    3TTP    C3821776   6.149   6.693   9.614 -0.0208  0.8559  0.2921
    3TTP    C3921777   6.192   6.680   9.466  0.9297  0.5969 -1.6649
    3TTP    C4021778   6.159   6.807   9.382  0.1226  0.8632  0.8755
    3TTP    C4121779   6.149   6.772   9.232 -0.6480  0.7318  0.8335
    3TTP    C4221780   6.112   6.894   9.153  0.8463  0.7398  0.0613
    4FIC     F121781   7.486   7.045  11.258  0.2786 -0.4350 -0.0596
    4FIC     F221782   7.625   6.920  11.456  0.1050 -0.3151  0.1387
    4FIC     O121783   7.155   6.647  11.098  0.5432 -0.5866 -0.2323
    4FIC     N521784   7.588   6.457  11.626  0.0437 -0.2507  0.3009
    4FIC     N621785   7.302   6.171  11.462  0.2855 -0.3932  0.1260
    4FIC    C1921786   7.170   6.387  11.230  0.4714 -0.5258 -0.1041
    4FIC    C2021787   7.248   6.492  11.263  0.4114 -0.4923 -0.0684
    4FIC    C2121788   7.234   6.623  11.190  0.4541 -0.5271 -0.1391
    4FIC    C2221789   7.333   6.714  11.250  0.3692 -0.4767 -0.0759
    4FIC    C2321790   7.357   6.847  11.216  0.3717 -0.4852 -0.1075
    4FIC    C2421791   7.456   6.914  11.286  0.2816 -0.4300 -0.0336
    4FIC    C2521792   7.528   6.849  11.388  0.1923 -0.3683  0.0685
    4FIC    C2621793   7.504   6.717  11.423  0.1893 -0.3592  0.1006
    4FIC    C2721794   7.404   6.647  11.353  0.2797 -0.4147  0.0269
    4FIC    C2821795   7.354   6.508  11.365  0.3021 -0.4219  0.0356
    4FIC    C2921796   7.399   6.413  11.453  0.2344 -0.3724  0.1232
    4FIC    C3021797   7.503   6.437  11.548  0.1298 -0.3057  0.2206
    4FIC    C3121798   7.345   6.280  11.457  0.2630 -0.3842  0.1242
    5FIC     F121799   6.718   6.694   9.441  0.1104 -0.0634 -0.1047
    5FIC     F221800   6.617   6.943   9.402 -0.1318 -0.1928 -0.3130
    5FIC     O121801   6.480   6.559   9.908  0.4081  0.1776  0.1175
    5FIC     N521802   6.302   7.206   9.679 -0.2680 -0.2074 -0.4544
    5FIC     N621803   6.137   7.050  10.052  0.0135  0.0070 -0.2389
    5FIC    C1921804   6.299   6.749  10.037  0.2822  0.1396 -0.0028
    5FIC    C2021805   6.363   6.774   9.921  0.2168  0.0839 -0.0508
    5FIC    C2121806   6.454   6.670   9.861  0.2884  0.1084  0.0169
    5FIC    C2221807   6.507   6.729   9.736  0.1886  0.0336 -0.0601
    5FIC    C2321808   6.595   6.670   9.646  0.2080  0.0259 -0.0360
    5FIC    C2421809   6.631   6.745   9.534  0.0985 -0.0511 -0.1230
    5FIC    C2521810   6.579   6.874   9.515 -0.0264 -0.1178 -0.2299
    5FIC    C2621811   6.490   6.932   9.604 -0.0464 -0.1104 -0.2546
    5FIC    C2721812   6.453   6.858   9.718  0.0634 -0.0330 -0.1683
    5FIC    C2821813   6.363   6.891   9.830  0.0758 -0.0046 -0.1664
    5FIC    C2921814   6.292   7.008   9.848 -0.0242 -0.0517 -0.2551
    5FIC    C3021815   6.298   7.117   9.755 -0.1580 -0.1371 -0.3645
    5FIC    C3121816   6.207   7.031   9.960 -0.0030 -0.0192 -0.2456
    1BTD     S221817   5.166   1.074   8.111  0.1049 -0.4293  0.0708
    1BTD     N121818   5.094   1.041   8.272  0.0182 -0.7696 -0.0339
    1BTD     N221819   5.325   1.001   8.150  0.2774  0.0076  0.1884
    1BTD     N321820   5.522   0.795   8.524  0.4728  0.2836  0.2387
    1BTD     N421821   5.237   0.844   8.674  0.1535 -0.6740 -0.0348
    1BTD     C521822   5.172   0.938   8.480  0.0927 -0.7081 -0.0310
    1BTD     C621823   5.188   0.981   8.344  0.1173 -0.5512  0.0212
    1BTD     C721824   5.317   0.959   8.276  0.2625 -0.1162  0.1457
    1BTD     C821825   5.424   0.894   8.347  0.3755  0.1401  0.2115
    1BTD    C1521826   5.404   0.853   8.480  0.3466 -0.0267  0.1565
    1BTD    C1621827   5.279   0.875   8.546  0.2068 -0.4458  0.0369
    1BTD    C4321828   5.311   0.812   8.806  0.7753 -0.1536  1.9152
    1BTD    C4421829   5.332   0.934   8.892 -0.6239 -0.8427 -0.9533
    1BTD    C4521830   5.226   0.924   9.005 -0.9681  0.0347  0.6307
    1BTD    C4621831   5.203   1.052   9.112  0.6280  0.0782  0.3530
    1BTD    C4721832   5.471   0.966   8.944 -1.4970  0.0708 -0.4998
    1BTD    C4821833   5.585   0.853   8.982  0.2073  0.1142 -0.8841
    1BTD    C4921834   5.553   0.718   9.042 -1.0909  0.9455 -1.0492
    1BTD    C5021835   5.670   0.610   9.045  0.9834  0.1529  0.1938
    1BTD    C7521836   5.550   0.679   8.610 -0.0658  0.1802 -0.4505
    1BTD    C7621837   5.453   0.563   8.617  0.2852  0.3701 -1.3178
    1BTD    C7721838   5.374   0.539   8.487 -1.2523 -0.1981 -1.0196
    1BTD    C7821839   5.228   0.506   8.496 -1.1549 -0.9580  0.0441
    1BTD    C7921840   5.480   0.441   8.715  0.4304 -1.1923 -1.3980
    1BTD    C8021841   5.600   0.359   8.745 -0.1475 -0.1266 -0.8348
    1BTD    C8121842   5.555   0.221   8.722 -0.1436  0.4385 -0.1053
    1BTD    C8221843   5.656   0.120   8.761  1.2808 -0.9606 -0.5247
    2TTP     S121844   4.882   0.897   8.527  0.0620  0.4962  0.0223
    2TTP     S521845   4.978   0.649   8.865 -0.0504  0.7311  0.2275
    2TTP     C121846   4.803   0.624   8.822  0.1274  0.2104 -0.2227
    2TTP     C221847   4.763   0.699   8.715  0.1726  0.1072 -0.3128
    2TTP     C321848   4.869   0.779   8.663  0.0684  0.4356 -0.0291
    2TTP     C421849   5.057   0.922   8.569 -0.1159  1.0169  0.4728
    2TTP    C1721850   5.097   0.847   8.676 -0.1612  1.1201  0.5626
    2TTP    C1821851   4.991   0.767   8.728 -0.0567  0.7917  0.2789
    2TTP    C3221852   4.608   0.711   8.676 -1.1993  0.9282  0.6474
    2TTP    C3321853   4.554   0.847   8.640 -1.2548  1.0601  0.1831
    2TTP    C3421854   4.408   0.849   8.665  0.6794 -1.9267  0.1283
    2TTP    C3521855   4.357   0.872   8.811 -0.6188  0.3163 -0.1354
    2TTP    C3621856   4.389   1.003   8.869 -0.3075 -0.2756 -1.2214
    2TTP    C3721857   4.317   1.034   8.994  0.9085 -1.0648 -0.8234
    2TTP    C3821858   4.366   0.952   9.111 -0.1830  0.4674  0.3994
    2TTP    C3921859   4.337   1.010   9.247  0.2513  0.6082  0.7893
    2TTP    C4021860   4.399   0.939   9.360 -0.1208 -2.1334 -0.5619
    2TTP    C4121861   4.372   0.963   9.518 -0.7933  1.7271  1.7237
    2TTP    C4221862   4.415   1.086   9.594 -0.7153  0.3962 -0.9217
    3TTP     S121863   5.660   0.885   8.164 -0.4078 -0.0363  0.0909
    3TTP     S521864   5.879   0.668   8.464  0.5105  0.3198 -0.3130
    3TTP     C121865   5.984   0.684   8.316  0.2875  0.6745 -0.4342
    3TTP     C221866   5.922   0.753   8.215 -0.0094  0.5854 -0.3166
    3TTP     C321867   5.790   0.794   8.250 -0.0712  0.2338 -0.1266
    3TTP     C421868   5.555   0.868   8.311 -0.1847 -0.3910  0.2120
    3TTP    C1721869   5.616   0.800   8.413  0.1122 -0.3019  0.0946
    3TTP    C1821870   5.748   0.759   8.377  0.1740  0.0496 -0.0956
    3TTP    C3221871   5.974   0.753   8.066  0.3207  0.6717 -0.3712
    3TTP    C3321872   5.934   0.629   7.955 -0.4529  0.9638  0.0908
    3TTP    C3421873   5.974   0.671   7.810 -0.4960  0.3446  0.4990
    3TTP    C3521874   5.859   0.750   7.752  0.8969 -0.6287  0.8295
    3TTP    C3621875   5.833   0.749   7.601  1.0153  0.3844 -1.3448
    3TTP    C3721876   5.689   0.786   7.562 -0.2981  0.2942  0.2815
    3TTP    C3821877   5.661   0.742   7.427 -0.6975  0.9609  1.0358
    3TTP    C3921878   5.604   0.823   7.323  1.3362 -0.8775 -0.2358
    3TTP    C4021879   5.449   0.842   7.345  0.3077 -0.3992  0.0895
    3TTP    C4121880   5.351   0.910   7.232 -0.7545 -0.2182 -1.0837
    3TTP    C4221881   5.208   0.901   7.276 -0.2432 -0.1895  0.6281
    4FIC     F121882   4.959  -0.159   8.973  0.4570  0.0279  0.1211
    4FIC     F221883   4.694  -0.196   9.025  0.4761 -0.0927  0.1328
    4FIC     O121884   4.967   0.369   8.856  0.1293 -0.0752 -0.3753
    4FIC     N521885   4.320   0.128   9.016  0.2698 -0.3397 -0.2046
    4FIC     N621886   4.380   0.548   8.914  0.0099 -0.3959 -0.5944
    4FIC    C1921887   4.718   0.522   8.864  0.0312 -0.2271 -0.5404
    4FIC    C2021888   4.726   0.390   8.891  0.1129 -0.1964 -0.4160
    4FIC    C2121889   4.858   0.319   8.885  0.1591 -0.1180 -0.3371
    4FIC    C2221890   4.831   0.178   8.920  0.2460 -0.1024 -0.2072
    4FIC    C2321891   4.923   0.074   8.928  0.3122 -0.0368 -0.1009
    4FIC    C2421892   4.874  -0.051   8.964  0.3889 -0.0356  0.0122
    4FIC    C2521893   4.737  -0.070   8.990  0.3985 -0.0975  0.0178
    4FIC    C2621894   4.645   0.034   8.983  0.3327 -0.1630 -0.0877
    4FIC    C2721895   4.693   0.161   8.947  0.2545 -0.1657 -0.2031
    4FIC    C2821896   4.623   0.291   8.930  0.1732 -0.2260 -0.3314
    4FIC    C2921897   4.488   0.314   8.947  0.1569 -0.2958 -0.3648
    4FIC    C3021898   4.396   0.211   8.985  0.2189 -0.3197 -0.2766
    4FIC    C3121899   4.429   0.442   8.929  0.0762 -0.3505 -0.4911
    5FIC     F121900   6.492   0.205   8.772  0.0210 -0.4836 -0.3171
    5FIC     F221901   6.691   0.274   8.600  0.1459 -0.1070 -0.0250
    5FIC     O121902   6.072   0.468   8.553  0.1122 -0.2621 -0.2265
    5FIC     N521903   6.679   0.560   8.196  0.3903  0.5922  0.4599
    5FIC     N621904   6.311   0.752   8.060  0.4364  0.6894  0.4718
    5FIC    C1921905   6.114   0.627   8.311  0.2639  0.1763  0.0850
    5FIC    C2021906   6.212   0.558   8.372  0.2360  0.1059  0.0508
    5FIC    C2121907   6.182   0.479   8.496  0.1576 -0.1219 -0.1123
    5FIC    C2221908   6.310   0.417   8.537  0.1454 -0.1445 -0.1090
    5FIC    C2321909   6.333   0.334   8.647  0.0809 -0.3267 -0.2322
    5FIC    C2421910   6.462   0.287   8.665  0.0827 -0.3095 -0.2003
    5FIC    C2521911   6.565   0.323   8.577  0.1470 -0.1153 -0.0501
    5FIC    C2621912   6.542   0.405   8.467  0.2114  0.0672  0.0739
    5FIC    C2721913   6.412   0.454   8.447  0.2108  0.0528  0.0443
    5FIC    C2821914   6.356   0.542   8.342  0.2691  0.2144  0.1478
    5FIC    C2921915   6.424   0.598   8.237  0.3400  0.4244  0.3045
    5FIC    C3021916   6.564   0.577   8.215  0.3673  0.5159  0.3893
    5FIC    C3121917   6.361   0.682   8.140  0.3926  0.5689  0.3958
    1BTD     S221918   9.245  10.528   9.767 -0.1342  0.2417 -0.1885
    1BTD     N121919   9.133  10.400   9.822 -0.0582  0.2320 -0.0556
    1BTD     N221920   9.162  10.554   9.610 -0.2773  0.1826 -0.1223
    1BTD     N321921   8.787  10.375   9.390 -0.4325  0.0443  0.2525
    1BTD     N421922   8.752  10.185   9.652 -0.1621  0.1054  0.3350
    1BTD     C521923   8.934  10.290   9.730 -0.1156  0.1650  0.1473
    1BTD     C621924   9.043  10.384   9.726 -0.1395  0.1872  0.0272
    1BTD     C721925   9.059  10.470   9.607 -0.2618  0.1600 -0.0103
    1BTD     C821926   8.966  10.459   9.498 -0.3550  0.1111  0.0746
    1BTD    C1521927   8.861  10.365   9.507 -0.3278  0.0907  0.1913
    1BTD    C1621928   8.845  10.282   9.622 -0.2096  0.1176  0.2272
    1BTD    C4321929   8.641  10.141   9.581  0.1096  0.6392 -0.1128
    1BTD    C4421930   8.656   9.994   9.547  0.6071  0.3250  0.2543
    1BTD    C4521931   8.534   9.893   9.541  1.0828  0.7467  0.1463
    1BTD    C4621932   8.453   9.863   9.670  0.0062  0.2728  0.3772
    1BTD    C4721933   8.769   9.972   9.441  0.1037 -0.1140  0.4211
    1BTD    C4821934   8.858   9.850   9.422 -0.0861 -0.9554 -0.1935
    1BTD    C4921935   8.972   9.877   9.510  1.6182  0.8179 -0.5393
    1BTD    C5021936   9.089   9.796   9.453 -0.5188  1.1990 -0.1215
    1BTD    C7521937   8.735  10.264   9.310 -0.5144  1.4903 -0.3093
    1BTD    C7621938   8.587  10.278   9.255 -0.2549  0.7308  0.6811
    1BTD    C7721939   8.535  10.152   9.169  0.6213  0.0502  0.0812
    1BTD    C7821940   8.411  10.196   9.077 -0.7056  0.5864 -0.8073
    1BTD    C7921941   8.471  10.325   9.344  0.2924 -0.2935 -0.6904
    1BTD    C8021942   8.460  10.460   9.396 -0.2387  0.6171  1.0276
    1BTD    C8121943   8.329  10.492   9.477  0.5612 -0.9159 -1.0395
    1BTD    C8221944   8.209  10.544   9.405 -0.1911 -0.6035 -1.3208
    2TTP     S121945   8.920  10.208  10.004 -0.1042 -0.4350 -0.6049
    2TTP     S521946   8.523  10.063   9.927 -0.5336  0.3450  0.1073
    2TTP     C121947   8.547  10.074  10.107 -0.1009  0.0642  0.0703
    2TTP     C221948   8.671  10.119  10.142  0.0575 -0.1934 -0.1519
    2TTP     C321949   8.752  10.147  10.027 -0.1574 -0.1781 -0.3009
    2TTP     C421950   8.897  10.197   9.824 -0.5367 -0.1543 -0.5679
    2TTP    C1721951   8.772  10.151   9.790 -0.6951  0.1031 -0.3459
    2TTP    C1821952   8.692  10.124   9.904 -0.4799  0.0877 -0.1969
    2TTP    C3221953   8.736  10.131  10.280 -0.2183  0.5517  0.1362
    2TTP    C3321954   8.735  10.003  10.359 -0.0020  0.2167 -0.6433
    2TTP    C3421955   8.741   9.999  10.513 -0.0403 -0.2409  0.6519
    2TTP    C3521956   8.869  10.068  10.549 -0.4215 -0.2224 -1.0669
    2TTP    C3621957   8.920  10.001  10.676  0.0002 -0.1075  1.4429
    2TTP    C3721958   8.941   9.848  10.688  1.3193  0.6256 -0.2924
    2TTP    C3821959   8.988   9.824  10.822 -0.6744  0.6641  0.1054
    2TTP    C3921960   8.901   9.834  10.937  0.3936 -1.1800 -1.1734
    2TTP    C4021961   8.939   9.743  11.061 -0.8181 -1.5543 -2.0270
    2TTP    C4121962   8.849   9.776  11.176 -0.4096 -0.6344 -0.1803
    2TTP    C4221963   8.769   9.655  11.223  1.3599  1.0418  0.2690
    3TTP     S121964   9.015  10.675   9.302 -0.1677  0.0688  0.2768
    3TTP     S521965   8.703  10.519   9.050  0.4082  0.1423 -0.4883
    3TTP     C121966   8.782  10.660   8.965  0.2267  0.5339 -0.0194
    3TTP     C221967   8.883  10.716   9.038  0.0379  0.5341  0.2444
    3TTP     C321968   8.902  10.650   9.164  0.0300  0.2253  0.0858
    3TTP     C421969   8.936  10.535   9.387  0.0138 -0.3228 -0.1915
    3TTP    C1721970   8.835  10.478   9.314  0.2022 -0.3232 -0.4555
    3TTP    C1821971   8.816  10.544   9.189  0.2100 -0.0143 -0.2971
    3TTP    C3221972   8.989  10.809   8.991  0.4147 -0.0674  0.0084
    3TTP    C3321973   9.129  10.752   8.983 -0.4114  0.1803 -0.3031
    3TTP    C3421974   9.199  10.853   8.906 -0.2839 -0.7884 -0.1550
    3TTP    C3521975   9.269  10.965   8.992  0.1778  0.1524  0.1402
    3TTP    C3621976   9.283  11.085   8.907  0.8641 -1.1383 -0.3673
    3TTP    C3721977   9.360  11.085   8.773 -1.1970 -0.4499  1.0893
    3TTP    C3821978   9.397  11.240   8.735 -0.3192  1.1438  1.1615
    3TTP    C3921979   9.489  11.269   8.613  0.8040 -0.9457  0.9577
    3TTP    C4021980   9.507  11.176   8.490  0.8525  1.1405  1.3400
    3TTP    C4121981   9.417  11.135   8.368  0.5957 -0.6533  0.1800
    3TTP    C4221982   9.389  11.250   8.265  0.2933 -0.7335 -1.2290
    4FIC     F121983   7.746   9.930  10.106  0.1962 -1.0443  0.5150
    4FIC     F221984   7.718  10.096  10.320 -0.0701  0.3426 -0.5620
    4FIC     O121985   8.283   9.947  10.033  0.2756 -1.4350  0.9959
    4FIC     N521986   8.060  10.346  10.576 -0.3963  2.0578 -1.7674
    4FIC     N621987   8.485  10.326  10.476 -0.2804  1.4729 -1.1744
    4FIC    C1921988   8.446  10.111  10.212  0.0495 -0.2490  0.1379
    4FIC    C2021989   8.312  10.101  10.222  0.0398 -0.2050  0.0591
    4FIC    C2121990   8.235  10.014  10.126  0.1609 -0.8383  0.5207
    4FIC    C2221991   8.093  10.025  10.165  0.1154 -0.6082  0.2954
    4FIC    C2321992   7.984   9.963  10.106  0.1917 -1.0109  0.5691
    4FIC    C2421993   7.859   9.988  10.160  0.1268 -0.6771  0.2701
    4FIC    C2521994   7.845  10.074  10.270 -0.0105  0.0374 -0.2847
    4FIC    C2621995   7.954  10.136  10.330 -0.0871  0.4425 -0.5600
    4FIC    C2721996   8.081  10.111  10.276 -0.0231  0.1140 -0.2642
    4FIC    C2821997   8.215  10.161  10.316 -0.0751  0.3903 -0.4318
    4FIC    C2921998   8.243  10.247  10.419 -0.2048  1.0676 -0.9439
    4FIC    C3021999   8.143  10.301  10.505 -0.3095  1.6098 -1.3947
    4FIC    C3122000   8.376  10.290  10.450 -0.2456  1.2865 -1.0679
    5FIC     F122001   8.043  10.827   8.663  0.0157 -0.4129 -0.3819
    5FIC     F222002   8.166  10.935   8.446  0.1709  1.0998  0.4318
    5FIC     O122003   8.470  10.685   8.963 -0.2048 -1.5047 -0.5763
    5FIC     N522004   8.648  10.989   8.347  0.2367  2.4960  1.4637
    5FIC     N622005   8.957  10.856   8.626  0.0331  1.3380  1.1482
    5FIC    C1922006   8.740  10.737   8.862 -0.1349 -0.4474  0.1327
    5FIC    C2022007   8.628  10.769   8.795 -0.0856 -0.2320  0.1497
    5FIC    C2122008   8.493  10.739   8.854 -0.1264 -0.8092 -0.2282
    5FIC    C2222009   8.393  10.786   8.756 -0.0546 -0.3853 -0.1020
    5FIC    C2322010   8.254  10.779   8.766 -0.0603 -0.6764 -0.3467
    5FIC    C2422011   8.180  10.830   8.660  0.0164 -0.1636 -0.1588
    5FIC    C2522012   8.244  10.886   8.548  0.0966  0.6152  0.2609
    5FIC    C2622013   8.382  10.893   8.537  0.1028  0.9100  0.5062
    5FIC    C2722014   8.459  10.841   8.643  0.0255  0.3994  0.3214
    5FIC    C2822015   8.606  10.833   8.663  0.0098  0.5248  0.4928
    5FIC    C2922016   8.703  10.877   8.576  0.0715  1.2107  0.8936
    5FIC    C3022017   8.672  10.939   8.451  0.1619  1.9152  1.2057
    5FIC    C3122018   8.842  10.866   8.604  0.0498  1.2767  1.0314
    1BTD     S222019   7.574   9.954   0.779 -0.4519 -0.0599  0.0954
    1BTD     N122020   7.635   9.908   0.616 -0.3330  0.2108  0.0639
    1BTD     N222021   7.675   9.833   0.867 -0.2239  0.0632  0.0029
    1BTD     N322022   7.992   9.506   0.751  0.4561  0.8013 -0.2426
    1BTD     N422023   7.943   9.599   0.443  0.3215  0.9828 -0.1675
    1BTD     C522024   7.796   9.746   0.529  0.0104  0.6115 -0.0578
    1BTD     C622025   7.723   9.811   0.635 -0.1394  0.3703 -0.0102
    1BTD     C722026   7.746   9.769   0.775 -0.0782  0.2878 -0.0443
    1BTD     C822027   7.840   9.664   0.803  0.1296  0.4508 -0.1244
    1BTD    C1522028   7.909   9.603   0.697  0.2709  0.6857 -0.1688
    1BTD    C1622029   7.888   9.643   0.561  0.2119  0.7651 -0.1359
    1BTD    C4322030   8.082   9.552   0.411  0.3505 -1.5930  0.4687
    1BTD    C4422031   8.190   9.649   0.334 -0.2947  0.5692 -0.0006
    1BTD    C4522032   8.238   9.771   0.413  0.3002 -0.1461 -0.2023
    1BTD    C4622033   8.341   9.779   0.530  0.3495 -0.0489  1.3067
    1BTD    C4722034   8.276   9.546   0.262 -1.1028 -1.1528 -0.2820
    1BTD    C4822035   8.292   9.540   0.110  1.3366  0.1215  0.5302
    1BTD    C4922036   8.260   9.405   0.031 -0.3734  0.0981  0.0848
    1BTD    C5022037   8.390   9.337   0.004  0.0096 -0.5730 -0.4399
    1BTD    C7522038   8.107   9.424   0.700 -0.0207 -1.3037 -0.0609
    1BTD    C7622039   8.080   9.275   0.653 -0.7614  0.4166  0.1766
    1BTD    C7722040   8.205   9.234   0.555  0.8739 -0.5213  0.0476
    1BTD    C7822041   8.352   9.242   0.613  0.3790  0.7011  0.0088
    1BTD    C7922042   8.044   9.178   0.769 -0.2351  0.2983 -0.3841
    1BTD    C8022043   8.054   9.027   0.722  0.5446 -0.5726 -0.1242
    1BTD    C8122044   8.059   8.913   0.836 -0.0202 -0.5127 -0.5038
    1BTD    C8222045   7.934   8.861   0.882  0.2097 -0.5351 -1.5069
    2TTP     S122046   7.675   9.832   0.271 -0.3705 -0.6609 -0.0471
    2TTP     S522047   7.929   9.549   0.070 -0.0124 -0.1891 -0.2605
    2TTP     C122048   7.826   9.633  -0.054  0.0148 -0.0927 -0.2188
    2TTP     C222049   7.741   9.725   0.001 -0.0941 -0.2329 -0.1502
    2TTP     C322050   7.755   9.733   0.143 -0.2031 -0.4213 -0.1285
    2TTP     C422051   7.779   9.748   0.395 -0.3976 -0.7572 -0.0890
    2TTP    C1722052   7.863   9.656   0.341 -0.2887 -0.6170 -0.1574
    2TTP    C1822053   7.849   9.648   0.198 -0.1796 -0.4287 -0.1791
    2TTP    C3222054   7.645   9.846  -0.056 -0.0329  1.0690  0.1303
    2TTP    C3322055   7.685   9.975  -0.123  0.2013  0.4534 -0.8947
    2TTP    C3422056   7.565  10.064  -0.170  0.2781  0.7714 -0.4473
    2TTP    C3522057   7.574  10.192  -0.081  0.7982  0.4068  0.7840
    2TTP    C3622058   7.520  10.329  -0.132  0.2943 -1.1413  0.6295
    2TTP    C3722059   7.575  10.410  -0.017  0.3051  0.0295  0.7715
    2TTP    C3822060   7.514  10.550  -0.039  0.9522 -1.3451 -0.5356
    2TTP    C3922061   7.554  10.644   0.068  1.4984 -0.9271 -0.0554
    2TTP    C4022062   7.542  10.798   0.042  0.2172 -0.5637  0.5655
    2TTP    C4122063   7.418  10.861   0.112 -0.2563 -0.3748  1.6969
    2TTP    C4222064   7.380  10.979   0.017 -0.6230  0.3396 -0.0234
    3TTP     S122065   7.917   9.652   1.100 -0.4381 -0.5513 -0.0155
    3TTP     S522066   8.220   9.362   1.005  0.6509  0.5090  0.1694
    3TTP     C122067   8.234   9.405   1.181  0.0488  0.1754  0.3079
    3TTP     C222068   8.142   9.498   1.220 -0.3228 -0.1717  0.2589
    3TTP     C322069   8.056   9.537   1.113 -0.1454 -0.1867  0.1102
    3TTP     C422070   7.902   9.608   0.924  0.1640 -0.2177 -0.1540
    3TTP    C1722071   7.995   9.516   0.884  0.5358  0.1292 -0.1051
    3TTP    C1822072   8.081   9.477   0.991  0.3586  0.1442  0.0435
    3TTP    C3222073   8.151   9.592   1.348 -0.0679  0.1541 -0.8834
    3TTP    C3322074   8.135   9.534   1.496  1.1451  0.4280  1.0212
    3TTP    C3422075   8.113   9.637   1.592  0.1181 -1.7260  0.2532
    3TTP    C3522076   8.254   9.697   1.636 -1.2356 -0.4321 -0.6738
    3TTP    C3622077   8.365   9.611   1.703 -1.5123  0.6428 -0.1474
    3TTP    C3722078   8.312   9.526   1.822 -0.6256 -1.6167 -0.3507
    3TTP    C3822079   8.309   9.595   1.952 -0.7334 -1.1655 -0.7756
    3TTP    C3922080   8.327   9.495   2.059  1.0992 -0.2758 -0.5294
    3TTP    C4022081   8.473   9.472   2.108 -0.0670 -0.4031 -1.2501
    3TTP    C4122082   8.456   9.367   2.220  0.4567 -0.2816 -0.9005
    3TTP    C4222083   8.387   9.438   2.342 -0.6772  0.4426  0.4187
    4FIC     F122084   8.194   9.117  -0.575 -0.0064 -0.1855  0.1974
    4FIC     F222085   8.057   9.235  -0.779  0.2804  0.0820  0.1578
    4FIC     O122086   8.009   9.399  -0.152 -0.1786 -0.3619  0.2403
    4FIC     N522087   7.729   9.606  -0.770  0.5705  0.3412  0.1323
    4FIC     N622088   7.613   9.802  -0.398  0.3783  0.1490  0.1738
    4FIC    C1922089   7.813   9.612  -0.196  0.0345 -0.1689  0.2181
    4FIC    C2022090   7.865   9.536  -0.294  0.0668 -0.1349  0.2089
    4FIC    C2122091   7.965   9.429  -0.264 -0.0490 -0.2401  0.2215
    4FIC    C2222092   8.001   9.366  -0.393  0.0226 -0.1693  0.2067
    4FIC    C2322093   8.090   9.262  -0.415 -0.0408 -0.2248  0.2110
    4FIC    C2422094   8.107   9.220  -0.546  0.0490 -0.1376  0.1942
    4FIC    C2522095   8.036   9.281  -0.651  0.1967  0.0001  0.1740
    4FIC    C2622096   7.947   9.385  -0.629  0.2602  0.0560  0.1698
    4FIC    C2722097   7.929   9.429  -0.497  0.1715 -0.0305  0.1862
    4FIC    C2822098   7.843   9.536  -0.441  0.2044 -0.0038  0.1869
    4FIC    C2922099   7.758   9.619  -0.511  0.3375  0.1187  0.1702
    4FIC    C3022100   7.743   9.611  -0.653  0.4653  0.2406  0.1493
    4FIC    C3122101   7.679   9.719  -0.448  0.3591  0.1349  0.1721
    5FIC     F122102   9.029   9.289   1.041  0.3591 -0.0472  0.0933
    5FIC     F222103   9.053   9.188   1.292  0.0958 -0.6504 -0.1189
    5FIC     O122104   8.503   9.416   1.032  0.5147  0.6042  0.0766
    5FIC     N522105   8.713   9.134   1.648 -0.1717 -1.0529 -0.4357
    5FIC     N622106   8.297   9.253   1.590  0.0029 -0.4225 -0.4058
    5FIC    C1922107   8.339   9.365   1.269  0.3184  0.2598 -0.1319
    5FIC    C2022108   8.470   9.337   1.261  0.2899  0.1192 -0.1194
    5FIC    C2122109   8.548   9.366   1.136  0.3960  0.3126 -0.0096
    5FIC    C2222110   8.687   9.324   1.162  0.3312  0.0873 -0.0249
    5FIC    C2322111   8.795   9.331   1.075  0.3896  0.1554  0.0537
    5FIC    C2422112   8.917   9.285   1.121  0.3083 -0.0977  0.0197
    5FIC    C2522113   8.930   9.233   1.251  0.1722 -0.4079 -0.0896
    5FIC    C2622114   8.822   9.225   1.338  0.1135 -0.4776 -0.1684
    5FIC    C2722115   8.697   9.271   1.293  0.1943 -0.2246 -0.1356
    5FIC    C2822116   8.565   9.277   1.359  0.1636 -0.2174 -0.1981
    5FIC    C2922117   8.536   9.236   1.487  0.0412 -0.4740 -0.3078
    5FIC    C3022118   8.633   9.180   1.575 -0.0756 -0.7915 -0.3777
    5FIC    C3122119   8.405   9.246   1.543  0.0207 -0.4442 -0.3611
    1BTD     S222120   0.871   6.097   0.891  0.5283  0.0148 -0.3947
    1BTD     N122121   0.826   5.923   0.908  1.2951 -0.2602 -1.0615
    1BTD     N222122   0.768   6.124   0.746 -0.5781  0.4736  0.4520
    1BTD     N322123   0.477   5.867   0.482 -1.4481  0.9122  0.9734
    1BTD     N422124   0.549   5.620   0.681  0.8601  0.0080 -0.8916
    1BTD     C522125   0.681   5.768   0.787  1.0402 -0.1094 -0.9503
    1BTD     C622126   0.741   5.896   0.810  0.7169 -0.0089 -0.6405
    1BTD     C722127   0.708   6.009   0.719 -0.3316  0.4019  0.2067
    1BTD     C822128   0.617   5.987   0.611 -1.0045  0.6915  0.7018
    1BTD    C1522129   0.560   5.859   0.592 -0.6550  0.5797  0.3727
    1BTD    C1622130   0.592   5.751   0.679  0.3553  0.1840 -0.4436
    1BTD    C4322131   0.413   5.579   0.632  1.2619 -0.9533  0.3558
    1BTD    C4422132   0.413   5.444   0.572 -0.0777  1.9822 -0.7052
    1BTD    C4522133   0.497   5.439   0.449 -0.6474  0.1673  0.1889
    1BTD    C4622134   0.518   5.310   0.370 -1.3187 -1.1916  0.6633
    1BTD    C4722135   0.271   5.405   0.570  0.2982  0.3583 -0.1575
    1BTD    C4822136   0.199   5.285   0.497 -0.0261 -0.4129 -1.4117
    1BTD    C4922137   0.082   5.242   0.586  2.2629  0.0272 -0.4813
    1BTD    C5022138  -0.007   5.137   0.523  1.0456 -0.1701 -1.0843
    1BTD    C7522139   0.411   5.773   0.399  0.2557  0.2591  0.5145
    1BTD    C7622140   0.320   5.794   0.258 -1.3175  0.6063 -0.0524
    1BTD    C7722141   0.186   5.882   0.272 -0.4589  1.3177  0.6071
    1BTD    C7822142   0.056   5.830   0.333  0.6596  0.7517 -0.0497
    1BTD    C7922143   0.324   5.668   0.157  0.7108  0.0056  0.3197
    1BTD    C8022144   0.478   5.639   0.128 -1.4935  0.6385  0.6973
    1BTD    C8122145   0.531   5.591  -0.023 -0.8108 -0.9838 -0.3958
    1BTD    C8222146   0.679   5.621  -0.037 -0.4439  0.4709  0.3294
    2TTP     S122147   0.778   5.577   1.003  0.2123 -0.5034 -0.3019
    2TTP     S522148   0.507   5.276   0.861  0.5284 -0.8056 -0.2679
    2TTP     C122149   0.590   5.213   1.010  0.4766 -0.6384 -0.1684
    2TTP     C222150   0.678   5.303   1.063  0.3759 -0.5354 -0.1730
    2TTP     C322151   0.684   5.424   0.987  0.3361 -0.5845 -0.2553
    2TTP     C422152   0.695   5.640   0.854  0.2641 -0.6706 -0.4014
    2TTP    C1722153   0.606   5.551   0.801  0.3648 -0.7737 -0.3968
    2TTP    C1822154   0.601   5.429   0.877  0.4046 -0.7244 -0.3145
    2TTP    C3222155   0.763   5.270   1.184  0.0026 -0.9047 -1.3399
    2TTP    C3322156   0.916   5.262   1.157 -0.1756  0.0714 -0.0459
    2TTP    C3422157   0.984   5.264   1.296 -0.6636 -0.3976  1.0484
    2TTP    C3522158   0.905   5.290   1.426 -0.2795 -1.3719  0.2258
    2TTP    C3622159   1.003   5.301   1.531  0.4124 -1.1172  0.5374
    2TTP    C3722160   0.976   5.211   1.648  1.1293 -0.4841 -0.3803
    2TTP    C3822161   0.843   5.216   1.733  0.0430  0.9958 -0.9061
    2TTP    C3922162   0.808   5.085   1.822  0.2747  0.9934 -0.2101
    2TTP    C4022163   0.712   4.988   1.742  0.4485 -0.5505  0.2707
    2TTP    C4122164   0.688   4.873   1.844 -1.0690 -0.0980 -0.3934
    2TTP    C4222165   0.585   4.768   1.802 -1.1973  0.9714 -0.0879
    3TTP     S122166   0.647   6.224   0.440 -0.3722 -0.0743  0.1162
    3TTP     S522167   0.541   5.967   0.112  0.5583 -0.0886 -0.1787
    3TTP     C122168   0.619   6.118   0.045 -0.1532  0.3600 -0.0179
    3TTP     C222169   0.656   6.206   0.143 -0.4824  0.3910  0.0827
    3TTP     C322170   0.625   6.158   0.274 -0.1847  0.0613  0.0363
    3TTP     C422171   0.569   6.074   0.507  0.3393 -0.5227 -0.0447
    3TTP    C1722172   0.532   5.985   0.410  0.6686 -0.5538 -0.1452
    3TTP    C1822173   0.563   6.034   0.279  0.3708 -0.2244 -0.0988
    3TTP    C3222174   0.731   6.333   0.151 -0.2585  0.2405  0.3741
    3TTP    C3322175   0.716   6.427   0.040 -1.1844  0.7376  0.0372
    3TTP    C3422176   0.756   6.575   0.094 -0.0073 -0.6714  0.5053
    3TTP    C3522177   0.893   6.622   0.044  0.1479 -0.0053  0.1905
    3TTP    C3622178   0.908   6.671  -0.101 -0.3657 -0.1513  1.2397
    3TTP    C3722179   0.942   6.821  -0.088 -1.4765  0.4339  1.2823
    3TTP    C3822180   1.040   6.875  -0.211  0.6536  0.1020 -0.2931
    3TTP    C3922181   1.139   6.986  -0.182 -0.0278  0.9373 -0.1404
    3TTP    C4022182   1.222   6.915  -0.090 -0.8350 -1.1405 -0.2023
    3TTP    C4122183   1.270   7.010   0.026  0.5613 -0.2402  0.2675
    3TTP    C4222184   1.396   6.955   0.089 -0.0384 -0.2280  1.2279
    4FIC     F122185  -0.001   4.635   0.961 -0.0826 -0.0108  0.1936
    4FIC     F222186   0.149   4.474   1.121  0.0103 -0.2918 -0.1730
    4FIC     O122187   0.314   5.075   0.935 -0.1953  0.1172  0.9475
    4FIC     N522188   0.589   4.555   1.333  0.0636 -0.6046 -0.1627
    4FIC     N622189   0.805   4.931   1.280 -0.0433 -0.4480  0.5003
    4FIC    C1922190   0.569   5.077   1.079 -0.1466 -0.1058  0.8651
    4FIC    C2022191   0.484   4.972   1.079 -0.1219 -0.1271  0.6897
    4FIC    C2122192   0.355   4.979   1.003 -0.1496 -0.0070  0.7462
    4FIC    C2222193   0.287   4.850   1.024 -0.1117 -0.0663  0.5165
    4FIC    C2322194   0.164   4.809   0.973 -0.1194  0.0045  0.4782
    4FIC    C2422195   0.120   4.682   1.007 -0.0776 -0.0740  0.2444
    4FIC    C2522196   0.197   4.599   1.090 -0.0298 -0.2188  0.0558
    4FIC    C2622197   0.320   4.639   1.141 -0.0218 -0.2900  0.0927
    4FIC    C2722198   0.366   4.767   1.107 -0.0636 -0.2123  0.3282
    4FIC    C2822199   0.491   4.839   1.144 -0.0680 -0.2555  0.4272
    4FIC    C2922200   0.592   4.792   1.224 -0.0295 -0.3889  0.2997
    4FIC    C3022201   0.590   4.662   1.284  0.0215 -0.5070  0.0459
    4FIC    C3122202   0.708   4.869   1.255 -0.0373 -0.4206  0.4109
    5FIC     F122203   0.366   5.827  -0.666  0.0878 -0.2711 -0.0713
    5FIC     F222204   0.612   5.877  -0.771 -0.0738  0.3417 -0.1655
    5FIC     O122205   0.427   6.022  -0.164 -0.1202 -0.3722 -0.0064
    5FIC     N522206   1.009   6.088  -0.564 -0.4544  1.1507 -0.2542
    5FIC     N622207   1.008   6.231  -0.151 -0.5843  0.9481 -0.1843
    5FIC    C1922208   0.684   6.139  -0.087 -0.3484  0.1772 -0.0728
    5FIC    C2022209   0.659   6.088  -0.209 -0.2898  0.1789 -0.0856
    5FIC    C2122210   0.524   6.030  -0.241 -0.1728 -0.1131 -0.0496
    5FIC    C2222211   0.531   5.984  -0.381 -0.1338 -0.0302 -0.0749
    5FIC    C2322212   0.431   5.922  -0.455 -0.0305 -0.2241 -0.0565
    5FIC    C2422213   0.461   5.888  -0.586 -0.0126 -0.0927 -0.0875
    5FIC    C2522214   0.588   5.914  -0.640 -0.0960  0.2233 -0.1361
    5FIC    C2622215   0.688   5.975  -0.566 -0.1993  0.4179 -0.1547
    5FIC    C2722216   0.660   6.011  -0.434 -0.2189  0.2892 -0.1237
    5FIC    C2822217   0.743   6.076  -0.330 -0.3181  0.4301 -0.1323
    5FIC    C2922218   0.874   6.117  -0.344 -0.4172  0.7353 -0.1750
    5FIC    C3022219   0.948   6.101  -0.465 -0.4373  0.9626 -0.2184
    5FIC    C3122220   0.947   6.179  -0.238 -0.5086  0.8506 -0.1800
    1BTD     S222221   7.419   7.468   1.700  0.3545 -0.4822 -0.2981
    1BTD     N122222   7.422   7.638   1.641  0.6557 -0.4219 -0.1150
    1BTD     N222223   7.460   7.396   1.541 -0.0094 -0.4017 -0.4315
    1BTD     N322224   7.551   7.555   1.109 -0.2072 -0.1289 -0.3732
    1BTD     N422225   7.504   7.853   1.231  0.6121 -0.1538  0.0168
    1BTD     C522226   7.465   7.746   1.426  0.6229 -0.2815 -0.0510
    1BTD     C622227   7.452   7.632   1.512  0.4785 -0.3486 -0.1605
    1BTD     C722228   7.474   7.497   1.456  0.1063 -0.3372 -0.3377
    1BTD     C822229   7.507   7.482   1.317 -0.1029 -0.2596 -0.3964
    1BTD    C1522230   7.519   7.597   1.236  0.0497 -0.1955 -0.2846
    1BTD    C1622231   7.498   7.728   1.290  0.4084 -0.2065 -0.1139
    1BTD    C4322232   7.625   7.912   1.181 -0.1864  0.4453  0.5708
    1BTD    C4422233   7.651   8.046   1.095  1.6746 -0.4335 -1.2618
    1BTD    C4522234   7.611   8.069   0.943 -1.0288 -0.1585 -0.7246
    1BTD    C4622235   7.486   7.995   0.890 -0.5030 -0.1671 -0.4142
    1BTD    C4722236   7.792   8.110   1.118 -1.2364  1.6822 -0.2960
    1BTD    C4822237   7.836   8.257   1.110  0.1185  0.6204 -0.4698
    1BTD    C4922238   7.831   8.321   1.247  0.5570  0.9183 -0.0325
    1BTD    C5022239   7.864   8.464   1.242 -0.1610  1.0886  0.7957
    1BTD    C7522240   7.582   7.627   0.980 -0.4246 -0.4818  0.5246
    1BTD    C7622241   7.729   7.626   0.917  0.0072 -1.2198  0.7392
    1BTD    C7722242   7.860   7.669   0.996  1.1698  0.9333  0.0026
    1BTD    C7822243   7.920   7.550   1.072  0.5695  0.3465 -0.1880
    1BTD    C7922244   7.751   7.710   0.774  0.8472 -1.0891 -0.4020
    1BTD    C8022245   7.629   7.677   0.688  0.1300  1.7217  1.9551
    1BTD    C8122246   7.661   7.633   0.548 -0.2649 -0.8414 -1.2177
    1BTD    C8222247   7.530   7.644   0.472  0.1913 -0.6567 -1.4336
    2TTP     S122248   7.393   7.997   1.574  0.1686  0.3157  0.1760
    2TTP     S522249   7.346   8.200   1.198  0.6140  0.4079  0.1689
    2TTP     C122250   7.284   8.309   1.330  0.1768  0.2545  0.0941
    2TTP     C222251   7.295   8.252   1.454  0.0132  0.2172  0.0919
    2TTP     C322252   7.353   8.122   1.449  0.2278  0.3078  0.1492
    2TTP     C422253   7.454   7.889   1.441  0.6058  0.4690  0.2508
    2TTP    C1722254   7.444   7.945   1.317  0.7692  0.5064  0.2530
    2TTP    C1822255   7.386   8.076   1.322  0.5549  0.4156  0.1957
    2TTP    C3222256   7.273   8.323   1.591 -0.2934  0.9668  0.6159
    2TTP    C3322257   7.384   8.348   1.699  1.3656  0.8574 -0.6124
    2TTP    C3422258   7.304   8.442   1.795  1.0428  0.7711 -0.4372
    2TTP    C3522259   7.351   8.578   1.824 -0.0495 -0.5679 -0.0663
    2TTP    C3622260   7.253   8.673   1.886  0.4323  0.4294 -0.7254
    2TTP    C3722261   7.283   8.821   1.863  0.1860  0.9460  0.4814
    2TTP    C3822262   7.426   8.891   1.902  0.8484  1.9503  0.3492
    2TTP    C3922263   7.555   8.845   1.846  0.6528  1.2713  0.6715
    2TTP    C4022264   7.580   8.888   1.706 -0.3729 -0.8690 -1.0700
    2TTP    C4122265   7.625   8.767   1.613 -0.3899 -1.1625 -0.2758
    2TTP    C4222266   7.644   8.803   1.458  1.6562  0.0518 -0.0808
    3TTP     S122267   7.611   7.201   1.255 -0.1530  0.2209  0.2478
    3TTP     S522268   7.674   7.303   0.842 -0.1340 -0.2874  0.1239
    3TTP     C122269   7.732   7.132   0.869  0.1479 -0.1500  0.4064
    3TTP     C222270   7.716   7.091   0.998  0.1585  0.0153  0.4613
    3TTP     C322271   7.657   7.192   1.081 -0.0553  0.0390  0.2822
    3TTP     C422272   7.554   7.372   1.228 -0.4349  0.0833 -0.0347
    3TTP    C1722273   7.570   7.413   1.099 -0.4453 -0.0818 -0.0896
    3TTP    C1822274   7.628   7.312   1.017 -0.2314 -0.1055  0.0895
    3TTP    C3222275   7.733   6.959   1.061  0.6818  0.5132 -0.1372
    3TTP    C3322276   7.866   6.927   1.137  0.4937  0.0224  1.1942
    3TTP    C3422277   7.856   6.803   1.194 -0.0125  0.5926 -0.4671
    3TTP    C3522278   7.997   6.745   1.240  1.2286 -0.7971  0.5928
    3TTP    C3622279   7.977   6.659   1.361 -0.5523  1.3559  0.2238
    3TTP    C3722280   7.949   6.707   1.505 -0.5757 -0.3105  1.4551
    3TTP    C3822281   7.837   6.627   1.570 -0.2199  0.3650  0.1481
    3TTP    C3922282   7.740   6.690   1.678  0.0932 -0.0154 -0.6721
    3TTP    C4022283   7.696   6.833   1.648  0.5783  0.5182  1.1993
    3TTP    C4122284   7.634   6.922   1.756 -1.1541  0.1771 -0.6363
    3TTP    C4222285   7.524   7.031   1.721 -0.8645 -0.5431 -1.0143
    4FIC     F122286   7.205   8.832   0.701  0.2849 -0.0768 -0.1080
    4FIC     F222287   7.151   9.029   0.881  0.2714 -0.1028 -0.0844
    4FIC     O122288   7.253   8.403   1.028 -0.2730 -0.2236 -0.2162
    4FIC     N522289   7.107   9.005   1.374 -0.1457 -0.2441 -0.1276
    4FIC     N622290   7.155   8.631   1.593 -0.5790 -0.3538 -0.2169
    4FIC    C1922291   7.218   8.439   1.317 -0.4842 -0.3003 -0.2321
    4FIC    C2022292   7.208   8.539   1.227 -0.3432 -0.2625 -0.2058
    4FIC    C2122293   7.228   8.513   1.080 -0.2413 -0.2246 -0.1992
    4FIC    C2222294   7.210   8.642   1.012 -0.0978 -0.1888 -0.1689
    4FIC    C2322295   7.219   8.668   0.876  0.0312 -0.1469 -0.1532
    4FIC    C2422296   7.198   8.799   0.835  0.1537 -0.1189 -0.1248
    4FIC    C2522297   7.170   8.900   0.928  0.1466 -0.1322 -0.1126
    4FIC    C2622298   7.162   8.875   1.064  0.0182 -0.1738 -0.1283
    4FIC    C2722299   7.182   8.743   1.108 -0.1069 -0.2027 -0.1570
    4FIC    C2822300   7.180   8.684   1.243 -0.2582 -0.2484 -0.1792
    4FIC    C2922301   7.156   8.750   1.361 -0.3093 -0.2735 -0.1758
    4FIC    C3022302   7.129   8.890   1.368 -0.2193 -0.2575 -0.1493
    4FIC    C3122303   7.156   8.684   1.488 -0.4573 -0.3173 -0.1984
    5FIC     F122304   8.290   7.341   0.316  0.1447  0.1873  0.0995
    5FIC     F222305   8.240   7.107   0.187 -0.5496  0.6617 -0.5081
    5FIC     O122306   7.969   7.291   0.749  0.7768 -0.4250  0.5024
    5FIC     N522307   7.938   6.735   0.310 -1.0979  0.9078 -1.0945
    5FIC     N622308   7.697   6.743   0.675 -0.4644  0.3338 -0.6572
    5FIC    C1922309   7.806   7.050   0.780  0.3374 -0.1890  0.0650
    5FIC    C2022310   7.889   7.072   0.676  0.2056 -0.0535 -0.0126
    5FIC    C2122311   7.969   7.198   0.667  0.4485 -0.1886  0.2253
    5FIC    C2222312   8.048   7.190   0.543  0.2201  0.0143  0.0644
    5FIC    C2322313   8.138   7.283   0.492  0.3250 -0.0170  0.1893
    5FIC    C2422314   8.201   7.253   0.372  0.0599  0.2043 -0.0088
    5FIC    C2522315   8.174   7.132   0.306 -0.2976  0.4484 -0.3217
    5FIC    C2622316   8.085   7.038   0.356 -0.4041  0.4812 -0.4479
    5FIC    C2722317   8.021   7.067   0.477 -0.1397  0.2595 -0.2510
    5FIC    C2822318   7.922   6.990   0.556 -0.1628  0.2275 -0.3107
    5FIC    C2922319   7.871   6.866   0.525 -0.4675  0.4215 -0.5892
    5FIC    C3022320   7.908   6.794   0.407 -0.8130  0.6882 -0.8661
    5FIC    C3122321   7.775   6.799   0.607 -0.4640  0.3721 -0.6250
    1BTD     S222322   4.261   6.882   6.952 -0.3032 -0.1530  0.5614
    1BTD     N122323   4.229   7.054   6.996  0.1944  0.0994 -0.0231
    1BTD     N222324   4.397   6.862   7.068 -0.4911 -0.2159  0.7708
    1BTD     N322325   4.616   7.130   7.385  0.0256  0.1121  0.1425
    1BTD     N422326   4.410   7.366   7.297  0.8705  0.5007 -0.8359
    1BTD     C522327   4.326   7.214   7.154  0.5373  0.3041 -0.4357
    1BTD     C622328   4.317   7.085   7.091  0.1951  0.1227 -0.0316
    1BTD     C722329   4.411   6.978   7.131 -0.1886 -0.0536  0.4128
    1BTD     C822330   4.509   7.005   7.233 -0.2112 -0.0399  0.4309
    1BTD    C1522331   4.514   7.132   7.292  0.1315  0.1409  0.0265
    1BTD    C1622332   4.423   7.235   7.254  0.5010  0.3107 -0.4018
    1BTD    C4322333   4.467   7.441   7.410 -0.7560  0.4316 -0.1266
    1BTD    C4422334   4.380   7.555   7.479 -0.6549 -0.8046 -0.1226
    1BTD    C4522335   4.455   7.663   7.574 -0.0181  0.7979 -0.3623
    1BTD    C4622336   4.568   7.737   7.507 -0.1647  0.5272  0.6316
    1BTD    C4722337   4.244   7.508   7.527  0.4800  0.2338 -1.9759
    1BTD    C4822338   4.128   7.594   7.571  1.2513 -0.8068 -0.0731
    1BTD    C4922339   4.103   7.693   7.463  1.1083  0.4328 -0.1594
    1BTD    C5022340   4.034   7.819   7.500  0.8902  0.5047  0.4437
    1BTD    C7522341   4.695   7.248   7.433 -1.1794 -0.5701 -0.4627
    1BTD    C7622342   4.715   7.254   7.588 -1.0657  1.1716 -1.4015
    1BTD    C7722343   4.576   7.229   7.660 -0.1257  0.7684 -0.2638
    1BTD    C7822344   4.546   7.247   7.808  0.3112  0.7630  1.4809
    1BTD    C7922345   4.780   7.389   7.627  1.6316 -0.2497 -1.7609
    1BTD    C8022346   4.933   7.413   7.604  0.5477 -1.1114 -0.9740
    1BTD    C8122347   5.027   7.431   7.477 -0.2651 -0.1191  0.0681
    1BTD    C8222348   4.974   7.504   7.360 -0.7210 -0.5823  0.6048
    2TTP     S122349   4.169   7.392   6.983  0.5172 -0.0987  0.0803
    2TTP     S522350   4.334   7.730   7.192 -0.5627  0.1420  0.5574
    2TTP     C122351   4.240   7.791   7.049 -0.0976 -0.0046  0.1850
    2TTP     C222352   4.183   7.690   6.976  0.2633 -0.0875  0.0156
    2TTP     C322353   4.212   7.562   7.030  0.1855 -0.0383  0.1740
    2TTP     C422354   4.263   7.332   7.127  0.0520  0.0478  0.4529
    2TTP    C1722355   4.319   7.432   7.200 -0.3088  0.1308  0.6221
    2TTP    C1822356   4.291   7.561   7.145 -0.2309  0.0817  0.4637
    2TTP    C3222357   4.105   7.706   6.837 -0.1342  0.2207  1.2226
    2TTP    C3322358   3.996   7.601   6.812 -0.6254 -0.6504  0.2412
    2TTP    C3422359   3.900   7.630   6.689  1.0428 -0.2516 -0.0629
    2TTP    C3522360   3.960   7.675   6.555 -0.5087 -1.0513 -0.9566
    2TTP    C3622361   4.010   7.547   6.491 -0.4527  1.1063  0.0109
    2TTP    C3722362   3.926   7.479   6.376 -2.6130 -1.0425 -0.6695
    2TTP    C3822363   3.931   7.546   6.237 -1.0263 -2.0271 -0.1032
    2TTP    C3922364   3.867   7.485   6.112  0.2690  0.6622  0.2520
    2TTP    C4022365   3.727   7.442   6.111  0.9520 -0.3770  0.7395
    2TTP    C4122366   3.702   7.338   6.008  1.4078 -1.2403 -0.8714
    2TTP    C4222367   3.570   7.372   5.933  0.6001  0.6665 -0.4366
    3TTP     S122368   4.664   6.750   7.280 -0.1521  0.0629 -0.3594
    3TTP     S522369   4.874   6.944   7.601 -0.2980 -0.3003 -0.0426
    3TTP     C122370   4.928   6.771   7.594 -0.1509 -0.2435 -0.3396
    3TTP     C222371   4.866   6.700   7.494 -0.0973 -0.1280 -0.4549
    3TTP     C322372   4.774   6.781   7.420 -0.1702 -0.0802 -0.3128
    3TTP     C422373   4.611   6.924   7.288 -0.2993  0.0060 -0.0623
    3TTP    C1722374   4.672   6.994   7.387 -0.3528 -0.1095  0.0530
    3TTP    C1822375   4.764   6.913   7.461 -0.2798 -0.1574 -0.0890
    3TTP    C3222376   4.916   6.581   7.419  0.4323  0.9085 -0.0437
    3TTP    C3322377   4.824   6.464   7.378 -0.1118  0.8161  0.9674
    3TTP    C3422378   4.871   6.322   7.349 -0.1253 -0.1940 -0.7184
    3TTP    C3522379   4.760   6.235   7.305  0.5703  0.2137 -0.0697
    3TTP    C3622380   4.829   6.103   7.250  1.1336 -0.1880  0.0715
    3TTP    C3722381   4.817   6.055   7.111  1.0145 -0.1176  0.1495
    3TTP    C3822382   4.851   6.129   6.980 -0.5707  0.9909 -0.8092
    3TTP    C3922383   5.010   6.113   6.975 -0.1788 -1.0984  1.1643
    3TTP    C4022384   5.076   6.027   6.875  0.8877  0.0372 -0.4062
    3TTP    C4122385   5.226   5.993   6.854  0.2852 -1.0854 -0.6348
    3TTP    C4222386   5.315   6.101   6.808 -0.3445 -0.9047  0.2435
    4FIC     F122387   4.376   8.521   7.410  0.1199  0.3321 -0.0855
    4FIC     F222388   4.253   8.642   7.199  0.2863  0.3622 -0.1661
    4FIC     O122389   4.341   8.001   7.263 -0.1650  0.3191  0.0280
    4FIC     N522390   4.051   8.446   6.792  0.3225  0.3963 -0.2006
    4FIC     N622391   4.048   8.015   6.720  0.0664  0.3800 -0.0955
    4FIC    C1922392   4.211   7.932   7.010 -0.1073  0.3432 -0.0085
    4FIC    C2022393   4.224   8.058   7.055 -0.0420  0.3452 -0.0340
    4FIC    C2122394   4.292   8.086   7.186 -0.0774  0.3321 -0.0128
    4FIC    C2222395   4.290   8.232   7.205  0.0119  0.3388 -0.0497
    4FIC    C2322396   4.342   8.305   7.312  0.0166  0.3309 -0.0465
    4FIC    C2422397   4.328   8.443   7.307  0.1100  0.3390 -0.0863
    4FIC    C2522398   4.264   8.505   7.199  0.1956  0.3546 -0.1277
    4FIC    C2622399   4.213   8.433   7.092  0.1916  0.3624 -0.1310
    4FIC    C2722400   4.226   8.293   7.095  0.0976  0.3543 -0.0912
    4FIC    C2822401   4.183   8.189   6.998  0.0678  0.3588 -0.0832
    4FIC    C2922402   4.117   8.210   6.879  0.1303  0.3734 -0.1152
    4FIC    C3022403   4.081   8.340   6.832  0.2357  0.3858 -0.1621
    4FIC    C3122404   4.080   8.103   6.793  0.0948  0.3767 -0.1042
    5FIC     F122405   5.215   6.890   8.360  0.6852  0.6331 -0.2525
    5FIC     F222406   5.408   6.705   8.307  0.3490  0.1805  0.0825
    5FIC     O122407   4.937   6.885   7.895  0.7751  0.4160 -0.3037
    5FIC     N522408   5.487   6.436   7.899 -0.0703 -0.6251  0.5275
    5FIC     N622409   5.231   6.469   7.547  0.0677 -0.7036  0.4197
    5FIC    C1922410   5.023   6.706   7.680  0.4858 -0.0935 -0.0020
    5FIC    C2022411   5.085   6.715   7.799  0.4764 -0.0212 -0.0023
    5FIC    C2122412   5.035   6.809   7.905  0.6305  0.2440 -0.1626
    5FIC    C2222413   5.125   6.793   8.020  0.5761  0.2584 -0.1180
    5FIC    C2322414   5.119   6.859   8.142  0.6748  0.4668 -0.2251
    5FIC    C2422415   5.215   6.828   8.237  0.5951  0.4349 -0.1541
    5FIC    C2522416   5.314   6.733   8.210  0.4218  0.2016  0.0186
    5FIC    C2622417   5.321   6.666   8.088  0.3226 -0.0068  0.1261
    5FIC    C2722418   5.225   6.697   7.991  0.4010  0.0216  0.0565
    5FIC    C2822419   5.204   6.645   7.853  0.3330 -0.1596  0.1343
    5FIC    C2922420   5.281   6.550   7.789  0.1682 -0.4082  0.3015
    5FIC    C3022421   5.394   6.488   7.850  0.0377 -0.5265  0.4253
    5FIC    C3122422   5.253   6.506   7.656  0.1138 -0.5692  0.3657
    1BTD     S222423   4.016   8.625   7.669 -0.2743  0.3243  0.2599
    1BTD     N122424   4.068   8.797   7.673 -0.3134  0.3364  0.2738
    1BTD     N222425   3.881   8.654   7.553 -0.0908  0.2494  0.0255
    1BTD     N322426   3.701   9.023   7.325  0.2120  0.1180 -0.4269
    1BTD     N422427   3.932   9.199   7.472 -0.0623  0.2255 -0.1206
    1BTD     C522428   3.994   9.005   7.566 -0.1790  0.2770  0.0643
    1BTD     C622429   3.987   8.864   7.592 -0.1941  0.2863  0.1116
    1BTD     C722430   3.882   8.783   7.525 -0.0694  0.2377 -0.0274
    1BTD     C822431   3.790   8.849   7.436  0.0640  0.1822 -0.2069
    1BTD    C1522432   3.801   8.987   7.414  0.0738  0.1752 -0.2472
    1BTD    C1622433   3.902   9.064   7.478 -0.0463  0.2219 -0.1132
    1BTD    C4322434   3.895   9.296   7.363 -0.2687  0.0075  0.1576
    1BTD    C4422435   3.886   9.453   7.378 -0.2639  0.7196 -0.5328
    1BTD    C4522436   3.947   9.525   7.267  0.0003 -0.4120  1.3003
    1BTD    C4622437   4.090   9.523   7.214 -0.3808  0.5363 -0.9160
    1BTD    C4722438   3.754   9.498   7.432  0.2467 -0.2118  0.8905
    1BTD    C4822439   3.706   9.643   7.411 -0.4400 -1.2711  0.0366
    1BTD    C4922440   3.668   9.725   7.546 -0.0267 -0.5125  0.2307
    1BTD    C5022441   3.674   9.874   7.526  0.3992  0.7428  0.0576
    1BTD    C7522442   3.618   9.146   7.329  0.1635 -0.9473 -0.3263
    1BTD    C7622443   3.477   9.183   7.272  0.3278  0.3586  0.2982
    1BTD    C7722444   3.355   9.089   7.303 -0.2065  0.5137  1.1742
    1BTD    C7822445   3.294   9.100   7.436 -0.3463  0.6325  1.0290
    1BTD    C7922446   3.437   9.331   7.296 -0.4627 -0.8908 -0.9039
    1BTD    C8022447   3.342   9.401   7.190 -2.1622  0.4761  0.6273
    1BTD    C8122448   3.314   9.550   7.209  1.0613 -1.0892  1.6279
    1BTD    C8222449   3.185   9.577   7.149  0.2913  0.4368 -0.1208
    2TTP     S122450   4.161   9.097   7.764  0.1373 -0.0053 -0.0240
    2TTP     S522451   4.021   9.498   7.694 -0.5026 -0.2019  0.1147
    2TTP     C122452   4.099   9.491   7.858 -0.3875 -0.1060  0.0635
    2TTP     C222453   4.147   9.367   7.889 -0.1832 -0.0398  0.0176
    2TTP     C322454   4.123   9.273   7.785 -0.1100 -0.0622  0.0212
    2TTP     C422455   4.082   9.103   7.600  0.0223 -0.1011  0.0271
    2TTP    C1722456   4.034   9.227   7.569 -0.1820 -0.1676  0.0729
    2TTP    C1822457   4.058   9.322   7.673 -0.2552 -0.1450  0.0693
    2TTP    C3222458   4.215   9.302   8.008 -0.5546 -0.7738 -0.2603
    2TTP    C3322459   4.356   9.327   8.053  0.0790 -0.0893 -0.5036
    2TTP    C3422460   4.420   9.461   8.026  0.2122  0.2766 -0.2803
    2TTP    C3522461   4.535   9.461   7.934  0.1431  0.2913 -0.0249
    2TTP    C3622462   4.525   9.543   7.800  0.1922 -1.2071 -0.0880
    2TTP    C3722463   4.659   9.560   7.735 -0.5971  0.1251  1.5045
    2TTP    C3822464   4.678   9.647   7.610  0.0126 -0.8383 -1.0437
    2TTP    C3922465   4.589   9.674   7.494  0.9275  1.4696 -0.7227
    2TTP    C4022466   4.643   9.606   7.369  0.4313  1.0349 -1.0481
    2TTP    C4122467   4.576   9.626   7.234 -0.5827  0.0091  0.5302
    2TTP    C4222468   4.600   9.751   7.168 -0.2392  0.4318 -0.3222
    3TTP     S122469   3.702   8.644   7.251 -0.7038  0.2858 -0.1778
    3TTP     S522470   3.566   8.949   6.980 -0.1748  0.0589 -0.7033
    3TTP     C122471   3.577   8.792   6.889  0.1528  0.0153 -0.5898
    3TTP     C222472   3.620   8.688   6.968  0.0087  0.0825 -0.4209
    3TTP     C322473   3.645   8.729   7.102 -0.3656  0.1714 -0.3749
    3TTP     C422474   3.691   8.801   7.342 -1.0315  0.3295 -0.2911
    3TTP    C1722475   3.648   8.905   7.263 -0.8873  0.2622 -0.4602
    3TTP    C1822476   3.623   8.864   7.129 -0.5131  0.1733 -0.5062
    3TTP    C3222477   3.631   8.550   6.939 -0.2464  0.0686 -0.0075
    3TTP    C3322478   3.757   8.473   6.979 -0.1308 -0.8330 -0.4153
    3TTP    C3422479   3.759   8.315   6.994  0.1218  1.0652 -1.5286
    3TTP    C3522480   3.706   8.235   6.879 -0.1355  0.5067 -0.6286
    3TTP    C3622481   3.586   8.153   6.908  0.6666 -0.0809  0.4222
    3TTP    C3722482   3.544   8.060   6.782 -1.2555 -0.7551  1.0598
    3TTP    C3822483   3.407   8.010   6.753 -0.2887 -1.9568 -0.0903
    3TTP    C3922484   3.298   8.114   6.732  1.0026  1.0281  0.1297
    3TTP    C4022485   3.159   8.053   6.697  0.2901  1.8605 -0.4582
    3TTP    C4122486   3.020   8.098   6.735 -0.9225 -0.4647 -0.5362
    3TTP    C4222487   3.016   8.135   6.885  0.9040 -0.0735  0.1525
    4FIC     F122488   4.341  10.256   7.735 -0.4489 -0.1640 -0.1547
    4FIC     F222489   4.243  10.321   7.981 -1.0043  0.0856 -0.4373
    4FIC     O122490   4.241   9.725   7.721  0.3054 -0.3271  0.4750
    4FIC     N522491   4.031  10.034   8.324 -1.2652  0.3278 -0.3948
    4FIC     N622492   3.972   9.605   8.263 -0.5638  0.1504  0.1543
    4FIC    C1922493   4.111   9.597   7.950  0.0427 -0.1465  0.4285
    4FIC    C2022494   4.140   9.728   7.944 -0.1253 -0.1152  0.2812
    4FIC    C2122495   4.207   9.787   7.823  0.0263 -0.2134  0.3166
    4FIC    C2222496   4.224   9.931   7.849 -0.2210 -0.1481  0.1270
    4FIC    C2322497   4.281  10.026   7.766 -0.1926 -0.1998  0.0865
    4FIC    C2422498   4.286  10.157   7.813 -0.4601 -0.1192 -0.1044
    4FIC    C2522499   4.235  10.189   7.939 -0.7459  0.0097 -0.2498
    4FIC    C2622500   4.178  10.095   8.023 -0.7759  0.0620 -0.2105
    4FIC    C2722501   4.172   9.962   7.977 -0.5078 -0.0184 -0.0180
    4FIC    C2822502   4.119   9.839   8.041 -0.4603  0.0069  0.0713
    4FIC    C2922503   4.061   9.829   8.165 -0.6843  0.1214 -0.0234
    4FIC    C3022504   4.045   9.942   8.252 -1.0029  0.2346 -0.2272
    4FIC    C3122505   4.012   9.706   8.218 -0.6167  0.1364  0.0746
    5FIC     F122506   3.289   9.172   6.209 -0.2080  0.3042  0.3307
    5FIC     F222507   3.336   8.941   6.072  0.5100  0.6142  0.0415
    5FIC     O122508   3.440   9.027   6.708 -0.7464 -0.1643  0.3588
    5FIC     N522509   3.510   8.506   6.231  1.1585  0.7260 -0.3541
    5FIC     N622510   3.618   8.439   6.649  0.5930  0.2978 -0.2738
    5FIC    C1922511   3.538   8.755   6.755 -0.2517 -0.0344  0.0925
    5FIC    C2022512   3.498   8.800   6.634 -0.1443  0.0715  0.0968
    5FIC    C2122513   3.449   8.941   6.618 -0.4147 -0.0052  0.2381
    5FIC    C2222514   3.414   8.958   6.476 -0.2085  0.1452  0.2038
    5FIC    C2322515   3.364   9.072   6.413 -0.3422  0.1400  0.2998
    5FIC    C2422516   3.339   9.063   6.277 -0.0942  0.2996  0.2420
    5FIC    C2522517   3.363   8.944   6.207  0.2755  0.4591  0.0931
    5FIC    C2622518   3.412   8.830   6.269  0.4109  0.4652 -0.0033
    5FIC    C2722519   3.439   8.837   6.406  0.1640  0.3049  0.0530
    5FIC    C2822520   3.491   8.735   6.501  0.2180  0.2661 -0.0186
    5FIC    C2922521   3.527   8.606   6.471  0.5422  0.3870 -0.1642
    5FIC    C3022522   3.517   8.552   6.339  0.8798  0.5729 -0.2682
    5FIC    C3122523   3.577   8.515   6.569  0.5682  0.3371 -0.2236
    1BTD     S222524   8.400   5.818  10.683 -0.0951 -0.1542 -0.5136
    1BTD     N122525   8.385   5.726  10.837 -0.5934  0.8359  0.0556
    1BTD     N222526   8.238   5.769  10.621  0.3071 -0.9516 -0.9680
    1BTD     N322527   7.882   5.503  10.771  0.2277 -0.7885 -0.8671
    1BTD     N422528   8.062   5.449  11.037 -0.8817  1.4141  0.3939
    1BTD     C522529   8.214   5.582  10.938 -0.7308  1.1113  0.2170
    1BTD     C622530   8.266   5.666  10.834 -0.4420  0.5366 -0.1137
    1BTD     C722531   8.184   5.691  10.713  0.0622 -0.4638 -0.6869
    1BTD     C822532   8.054   5.630  10.703  0.2522 -0.8399 -0.9000
    1BTD    C1522533   8.007   5.548  10.807 -0.0434 -0.2514 -0.5612
    1BTD    C1622534   8.086   5.524  10.924 -0.5294  0.7130 -0.0091
    1BTD    C4322535   8.020   5.301  11.038  0.3370 -0.0547  0.4233
    1BTD    C4422536   8.109   5.180  11.020 -0.2678 -0.4354  0.3462
    1BTD    C4522537   8.013   5.064  11.035 -1.2704  2.0929  0.4504
    1BTD    C4622538   7.883   5.019  10.973 -0.2340 -0.1834 -0.0745
    1BTD    C4722539   8.200   5.177  10.893  0.2315 -0.4702  0.1824
    1BTD    C4822540   8.328   5.081  10.929 -0.4577 -0.5899 -0.1031
    1BTD    C4922541   8.421   5.123  11.047 -0.5602 -0.0274 -0.4739
    1BTD    C5022542   8.494   4.988  11.052 -0.3826  0.8716 -0.3647
    1BTD    C7522543   7.787   5.393  10.847 -0.6793  0.9067  0.1141
    1BTD    C7622544   7.705   5.421  10.973 -0.0451 -0.9168  0.3171
    1BTD    C7722545   7.665   5.571  11.017 -0.1483 -0.4414  0.3194
    1BTD    C7822546   7.778   5.668  11.058  0.3470 -0.1160 -0.3102
    1BTD    C7922547   7.611   5.312  11.013  0.4757  0.7365 -0.4162
    1BTD    C8022548   7.610   5.271  11.161  0.3820 -0.5926 -1.2629
    1BTD    C8122549   7.538   5.143  11.191 -0.0492  0.3326 -1.6020
    1BTD    C8222550   7.400   5.113  11.134 -0.4739 -0.9120  1.3574
    2TTP     S122551   8.383   5.615  11.192  0.3025 -0.0225  0.2956
    2TTP     S522552   8.087   5.385  11.402 -0.4869  1.0312  0.3513
    2TTP     C122553   8.208   5.448  11.523 -0.2839  0.6729  0.3392
    2TTP     C222554   8.306   5.523  11.465 -0.0279  0.3263  0.3213
    2TTP     C322555   8.290   5.533  11.323  0.0169  0.3314  0.3165
    2TTP     C422556   8.263   5.551  11.071  0.0994  0.3358  0.3077
    2TTP    C1722557   8.164   5.477  11.129 -0.1563  0.6823  0.3257
    2TTP    C1822558   8.180   5.467  11.271 -0.2012  0.6773  0.3305
    2TTP    C3222559   8.412   5.582  11.546 -1.0377  0.7479 -0.3100
    2TTP    C3322560   8.554   5.532  11.496  0.8960  0.3837 -1.4092
    2TTP    C3422561   8.680   5.583  11.582 -0.3312 -0.8084  0.8587
    2TTP    C3522562   8.687   5.741  11.623  0.5074  1.0904  0.4083
    2TTP    C3622563   8.645   5.770  11.764  0.0288  0.3417 -0.5509
    2TTP    C3722564   8.759   5.739  11.881 -0.0138 -0.0168  0.4006
    2TTP    C3822565   8.891   5.805  11.857  0.0135 -1.3012  0.2281
    2TTP    C3922566   8.991   5.741  11.946 -0.4950  0.3164 -1.1641
    2TTP    C4022567   9.133   5.779  11.909 -0.8403 -0.3177  0.1289
    2TTP    C4122568   9.174   5.769  11.755  0.5223 -0.2933  0.6634
    2TTP    C4222569   9.274   5.852  11.695 -0.4520 -0.7546  0.3102
    3TTP     S122570   7.911   5.703  10.435  0.1450 -0.1274  0.1871
    3TTP     S522571   7.568   5.491  10.582  0.2389 -0.5167 -0.1481
    3TTP     C122572   7.530   5.555  10.416  0.2741 -0.4237 -0.1209
    3TTP     C222573   7.634   5.624  10.361  0.2472 -0.2983 -0.0160
    3TTP     C322574   7.747   5.629  10.448  0.1979 -0.2707  0.0467
    3TTP     C422575   7.950   5.640  10.601  0.1099 -0.2203  0.1600
    3TTP    C1722576   7.846   5.571  10.656  0.1367 -0.3459  0.0548
    3TTP    C1822577   7.732   5.565  10.569  0.1861 -0.3734 -0.0081
    3TTP    C3222578   7.632   5.686  10.219  0.7613  1.0689  0.2136
    3TTP    C3322579   7.661   5.838  10.230  0.1518 -1.0528  0.4027
    3TTP    C3422580   7.642   5.912  10.085 -1.2806 -0.0924 -0.0602
    3TTP    C3522581   7.736   5.901   9.959  0.4400  0.3812 -0.2259
    3TTP    C3622582   7.880   5.872   9.954  0.2211 -0.0031  1.7577
    3TTP    C3722583   7.935   5.874   9.807 -0.5366 -0.4690 -0.9782
    3TTP    C3822584   7.960   5.996   9.730 -0.1940 -0.6092 -0.1657
    3TTP    C3922585   7.975   5.973   9.582  1.3694  0.0159 -0.0100
    3TTP    C4022586   7.884   6.054   9.477 -0.4403 -0.9534 -1.2882
    3TTP    C4122587   7.749   6.095   9.519 -1.7714  0.2483  0.3479
    3TTP    C4222588   7.631   6.010   9.484 -0.0504  2.0430 -0.2315
    4FIC     F122589   7.828   4.917  12.020  0.8255 -0.3091  0.1929
    4FIC     F222590   7.778   5.127  12.186  0.1332 -0.1705 -0.1847
    4FIC     O122591   8.135   5.154  11.643  0.6862 -0.1523  0.1782
    4FIC     N522592   7.925   5.598  12.154 -0.9614  0.1405 -0.7380
    4FIC     N622593   8.175   5.742  11.826 -0.9308  0.2351 -0.6733
    4FIC    C1922594   8.196   5.439  11.666 -0.0248  0.0358 -0.1877
    4FIC    C2022595   8.121   5.371  11.755  0.0374 -0.0091 -0.1693
    4FIC    C2122596   8.094   5.225  11.736  0.4108 -0.1059  0.0237
    4FIC    C2222597   8.009   5.183  11.849  0.3827 -0.1336 -0.0075
    4FIC    C2322598   7.959   5.056  11.875  0.6582 -0.2174  0.1292
    4FIC    C2422599   7.881   5.040  11.989  0.5663 -0.2279  0.0654
    4FIC    C2522600   7.855   5.148  12.074  0.2094 -0.1564 -0.1292
    4FIC    C2622601   7.906   5.275  12.049 -0.0668 -0.0725 -0.2663
    4FIC    C2722602   7.984   5.293  11.934  0.0207 -0.0607 -0.2045
    4FIC    C2822603   8.052   5.414  11.879 -0.2055  0.0187 -0.3116
    4FIC    C2922604   8.051   5.540  11.934 -0.5703  0.1019 -0.5057
    4FIC    C3022605   7.981   5.572  12.055 -0.7839  0.1229 -0.6327
    4FIC    C3122606   8.119   5.650  11.874 -0.7663  0.1748 -0.5968
    5FIC     F122607   6.758   5.296  10.590 -0.3464  0.1667  0.0157
    5FIC     F222608   6.697   5.335  10.327 -0.0528 -0.3586 -0.1311
    5FIC     O122609   7.274   5.461  10.600 -0.4438  0.4567  0.3276
    5FIC     N522610   6.977   5.507   9.957  0.2999 -0.9073 -0.1209
    5FIC     N622611   7.392   5.627  10.018  0.1647 -0.5747  0.1519
    5FIC    C1922612   7.399   5.555  10.353 -0.1978  0.0579  0.2974
    5FIC    C2022613   7.271   5.513  10.360 -0.1849  0.0054  0.2248
    5FIC    C2122614   7.214   5.465  10.491 -0.3165  0.2210  0.2463
    5FIC    C2222615   7.075   5.426  10.464 -0.2639  0.0969  0.1516
    5FIC    C2322616   6.982   5.376  10.554 -0.3459  0.2182  0.1342
    5FIC    C2422617   6.855   5.346  10.506 -0.2721  0.0597  0.0385
    5FIC    C2522618   6.824   5.366  10.370 -0.1208 -0.2108 -0.0376
    5FIC    C2622619   6.916   5.416  10.280 -0.0383 -0.3328 -0.0205
    5FIC    C2722620   7.045   5.447  10.327 -0.1112 -0.1760  0.0758
    5FIC    C2822621   7.164   5.501  10.258 -0.0566 -0.2431  0.1180
    5FIC    C2922622   7.174   5.533  10.125  0.0857 -0.4884  0.0675
    5FIC    C3022623   7.066   5.519  10.033  0.2029 -0.7179 -0.0362
    5FIC    C3122624   7.294   5.585  10.067  0.1281 -0.5345  0.1142
    1BTD     S222625   8.048   8.089   5.452 -0.0948 -0.0445 -0.0284
    1BTD     N122626   7.952   8.132   5.598  0.3953 -0.2029  0.3426
    1BTD     N222627   7.987   7.920   5.445 -0.6063  0.1485 -0.3921
    1BTD     N322628   7.693   7.653   5.694 -0.7635  0.2549 -0.4636
    1BTD     N422629   7.650   7.914   5.884  0.4706 -0.1786  0.4417
    1BTD     C522630   7.795   8.015   5.745  0.4199 -0.1848  0.3834
    1BTD     C622631   7.884   8.024   5.633  0.1645 -0.1090  0.1844
    1BTD     C722632   7.904   7.905   5.547 -0.3961  0.0877 -0.2269
    1BTD     C822633   7.833   7.784   5.577 -0.6735  0.1988 -0.4184
    1BTD    C1522634   7.746   7.780   5.689 -0.4075  0.1186 -0.2122
    1BTD    C1622635   7.728   7.894   5.771  0.1329 -0.0711  0.1841
    1BTD    C4322636   7.509   7.850   5.889 -0.4477 -1.2168  0.4058
    1BTD    C4422637   7.440   7.817   6.011 -0.1096  0.8315 -1.3141
    1BTD    C4522638   7.530   7.790   6.139  0.6483 -0.1754  0.3314
    1BTD    C4622639   7.514   7.760   6.286  1.9856  0.6314  0.3589
    1BTD    C4722640   7.292   7.794   6.018 -0.4347 -0.5497  0.7480
    1BTD    C4822641   7.237   7.667   6.073 -1.2184 -0.0580 -0.4400
    1BTD    C4922642   7.102   7.657   6.155  0.6035 -0.1406  0.9002
    1BTD    C5022643   7.106   7.762   6.270 -2.4197  0.1314  1.0392
    1BTD    C7522644   7.651   7.578   5.821  0.1224 -0.9778  0.1731
    1BTD    C7622645   7.679   7.434   5.859 -0.0813  0.5530  1.2350
    1BTD    C7722646   7.583   7.370   5.970 -1.1311  0.8325  1.0308
    1BTD    C7822647   7.597   7.216   5.971 -0.4476  0.8129  0.7096
    1BTD    C7922648   7.832   7.438   5.876  0.6082 -0.5015  0.2709
    1BTD    C8022649   7.917   7.313   5.874  1.0344 -0.2525 -0.8320
    1BTD    C8122650   8.051   7.351   5.832 -1.2467  0.7195 -0.2093
    1BTD    C8222651   8.140   7.225   5.805  0.0755 -0.0697 -0.2051
    2TTP     S122652   7.772   8.282   5.882 -0.1844 -0.1276 -0.0533
    2TTP     S522653   7.489   8.110   6.157 -0.3687 -0.1097 -0.2315
    2TTP     C122654   7.518   8.283   6.204 -0.7513  0.0299 -0.4982
    2TTP     C222655   7.607   8.347   6.122 -0.7170  0.0329 -0.4588
    2TTP     C322656   7.656   8.260   6.019 -0.3871 -0.0756 -0.2166
    2TTP     C422657   7.743   8.108   5.835  0.1982 -0.2673  0.2134
    2TTP    C1722658   7.654   8.045   5.917  0.1638 -0.2700  0.1739
    2TTP    C1822659   7.605   8.131   6.020 -0.1658 -0.1619 -0.0681
    2TTP    C3222660   7.673   8.484   6.153 -0.2461 -1.0985 -0.7743
    2TTP    C3322661   7.609   8.589   6.062 -0.7393  1.4910 -0.3210
    2TTP    C3422662   7.708   8.704   6.093 -0.5376  0.0547  0.4323
    2TTP    C3522663   7.747   8.796   5.968  1.3572  0.8087  0.9752
    2TTP    C3622664   7.641   8.903   5.955 -0.6372  1.1293 -0.1404
    2TTP    C3722665   7.659   9.026   5.848 -0.0631  1.0555 -1.2315
    2TTP    C3822666   7.700   9.168   5.891 -1.0594  0.1784  0.5113
    2TTP    C3922667   7.711   9.280   5.791 -1.5636  0.1413  1.0397
    2TTP    C4022668   7.589   9.337   5.745 -0.1927  0.0553  0.7382
    2TTP    C4122669   7.622   9.477   5.669  0.1587 -0.6363 -0.8454
    2TTP    C4222670   7.635   9.597   5.765 -0.4199 -0.4045 -1.5241
    3TTP     S122671   7.908   7.568   5.364 -0.3410  0.4142 -0.5227
    3TTP     S522672   7.591   7.323   5.521  0.8683 -0.6176  0.3467
    3TTP     C122673   7.656   7.245   5.369  0.7227 -0.4187  0.1814
    3TTP     C222674   7.757   7.316   5.312  0.3408 -0.0886 -0.0966
    3TTP     C322675   7.788   7.435   5.386  0.1491  0.0197 -0.1894
    3TTP     C422676   7.844   7.646   5.516 -0.1955  0.2154 -0.3575
    3TTP    C1722677   7.742   7.575   5.573  0.1866 -0.1147 -0.0794
    3TTP    C1822678   7.711   7.456   5.499  0.3780 -0.2229  0.0134
    3TTP    C3222679   7.834   7.316   5.173  1.3428  0.3641 -0.2239
    3TTP    C3322680   7.729   7.308   5.054 -0.5499  0.3329  0.3364
    3TTP    C3422681   7.649   7.428   4.988 -0.9182 -0.3283 -0.6796
    3TTP    C3522682   7.719   7.553   4.953 -0.1956  0.8171  1.3466
    3TTP    C3622683   7.789   7.638   5.050  0.3965 -0.2390 -0.5241
    3TTP    C3722684   7.796   7.783   5.010  0.2943 -0.7318  0.1527
    3TTP    C3822685   7.730   7.875   5.117  0.1649 -0.1163  0.4308
    3TTP    C3922686   7.729   8.022   5.036 -0.5202  0.0669 -0.5989
    3TTP    C4022687   7.654   8.141   5.092  0.1520 -0.4846  1.7263
    3TTP    C4122688   7.560   8.204   4.975 -0.0691  0.1478 -0.2743
    3TTP    C4222689   7.638   8.264   4.863 -0.1746 -0.6638  0.4874
    4FIC     F122690   6.826   8.144   6.619 -0.1603  0.1609 -0.2298
    4FIC     F222691   6.852   8.390   6.735  0.2730 -0.1218  0.2854
    4FIC     O122692   7.265   8.134   6.303 -0.3102  0.1483 -0.4381
    4FIC     N522693   7.201   8.735   6.675  0.7889 -0.5372  0.8781
    4FIC     N622694   7.539   8.677   6.404  0.5846 -0.4902  0.6115
    4FIC    C1922695   7.446   8.364   6.301  0.0506 -0.1264 -0.0194
    4FIC    C2022696   7.334   8.357   6.376  0.0714 -0.1121  0.0128
    4FIC    C2122697   7.246   8.235   6.372 -0.1218  0.0327 -0.2118
    4FIC    C2222698   7.135   8.261   6.464 -0.0427  0.0098 -0.1101
    4FIC    C2322699   7.028   8.177   6.494 -0.1622  0.1125 -0.2458
    4FIC    C2422700   6.934   8.223   6.585 -0.0518  0.0652 -0.1078
    4FIC    C2522701   6.948   8.349   6.645  0.1713 -0.0804  0.1578
    4FIC    C2622702   7.054   8.434   6.615  0.2917 -0.1836  0.2944
    4FIC    C2722703   7.150   8.389   6.523  0.1826 -0.1376  0.1580
    4FIC    C2822704   7.273   8.453   6.471  0.2615 -0.2184  0.2440
    4FIC    C2922705   7.321   8.577   6.505  0.4711 -0.3638  0.4907
    4FIC    C3022706   7.255   8.663   6.598  0.6449 -0.4587  0.7027
    4FIC    C3122707   7.441   8.631   6.449  0.5322 -0.4325  0.5560
    5FIC     F122708   7.278   6.610   5.709 -0.2452  0.7260  0.4233
    5FIC     F222709   7.154   6.566   5.471  0.0826  0.0826  0.3662
    5FIC     O122710   7.603   7.024   5.582 -0.0548  0.3706 -0.2542
    5FIC     N522711   7.208   6.799   5.037  0.6902 -1.0958 -0.1990
    5FIC     N622712   7.487   7.131   4.986  0.7731 -1.2437 -0.7168
    5FIC    C1922713   7.600   7.129   5.309  0.3264 -0.3704 -0.5496
    5FIC    C2022714   7.523   7.027   5.350  0.2656 -0.2557 -0.3768
    5FIC    C2122715   7.530   6.978   5.492  0.0677  0.1295 -0.2325
    5FIC    C2222716   7.434   6.867   5.503  0.0485  0.1621 -0.0620
    5FIC    C2322717   7.406   6.790   5.616 -0.1097  0.4684  0.1091
    5FIC    C2422718   7.311   6.690   5.602 -0.0942  0.4337  0.2505
    5FIC    C2522719   7.247   6.667   5.479  0.0750  0.1019  0.2208
    5FIC    C2622720   7.275   6.743   5.366  0.2335 -0.2047  0.0505
    5FIC    C2722721   7.371   6.846   5.378  0.2205 -0.1751 -0.0944
    5FIC    C2822722   7.423   6.943   5.279  0.3606 -0.4450 -0.2892
    5FIC    C2922723   7.386   6.954   5.147  0.5431 -0.8019 -0.3719
    5FIC    C3022724   7.288   6.868   5.087  0.6232 -0.9624 -0.2764
    5FIC    C3122725   7.441   7.051   5.059  0.6686 -1.0427 -0.5612
    1BTD     S222726  10.271   3.962   7.808  0.2919  0.4638 -0.1512
    1BTD     N122727  10.399   3.844   7.763  0.1867  0.3442 -0.1359
    1BTD     N222728  10.192   3.960   7.647  0.2775  0.4967 -0.1446
    1BTD     N322729  10.261   3.742   7.237  0.0577  0.3477 -0.1028
    1BTD     N422730  10.516   3.599   7.380 -0.0536  0.1598 -0.0920
    1BTD     C522731  10.457   3.717   7.562  0.0625  0.2502 -0.1130
    1BTD     C622732  10.377   3.810   7.637  0.1481  0.3355 -0.1270
    1BTD     C722733  10.261   3.876   7.572  0.1991  0.4207 -0.1317
    1BTD     C822734  10.231   3.845   7.434  0.1614  0.4167 -0.1225
    1BTD    C1522735  10.312   3.753   7.365  0.0775  0.3317 -0.1091
    1BTD    C1622736  10.424   3.690   7.428  0.0281  0.2494 -0.1046
    1BTD    C4322737  10.534   3.589   7.235  1.2203 -0.1604 -0.3554
    1BTD    C4422738  10.638   3.505   7.181 -0.1622 -0.4759  0.4722
    1BTD    C4522739  10.779   3.571   7.191  0.2889 -1.5963 -0.7808
    1BTD    C4622740  10.909   3.504   7.144  0.6467 -0.3830  0.3243
    1BTD    C4722741  10.594   3.351   7.150 -0.0206 -0.1763 -1.0149
    1BTD    C4822742  10.671   3.281   7.036  0.1239 -0.4832  1.7560
    1BTD    C4922743  10.620   3.150   6.986 -0.7016 -0.7740  0.0607
    1BTD    C5022744  10.541   3.166   6.851 -0.0880  0.1626 -0.5565
    1BTD    C7522745  10.223   3.597   7.181  0.6136 -0.6727  1.6639
    1BTD    C7622746  10.171   3.574   7.046  0.7527  0.0752 -0.0055
    1BTD    C7722747  10.303   3.527   6.963  0.4632 -0.3187 -1.7569
    1BTD    C7822748  10.297   3.516   6.825  1.1956  1.2553  0.3446
    1BTD    C7922749  10.049   3.470   7.046  0.1301 -0.9549 -1.4629
    1BTD    C8022750  10.071   3.325   7.067  0.4292 -0.1155 -0.7907
    1BTD    C8122751   9.945   3.251   7.071 -1.3336  0.5024  1.7953
    1BTD    C8222752   9.890   3.198   7.201 -0.9151 -0.5923 -0.2748
    2TTP     S122753  10.625   3.540   7.758  0.1994  0.3894  0.2236
    2TTP     S522754  10.747   3.302   7.422 -0.0420 -0.0667  0.4569
    2TTP     C122755  10.810   3.224   7.574 -0.6376 -0.3196  0.5812
    2TTP     C222756  10.776   3.293   7.687 -0.5982 -0.1937  0.5165
    2TTP     C322757  10.699   3.410   7.657 -0.0963  0.1070  0.3663
    2TTP     C422758  10.562   3.618   7.606  0.7954  0.6424  0.0993
    2TTP    C1722759  10.596   3.549   7.494  0.7555  0.5163  0.1640
    2TTP    C1822760  10.673   3.432   7.523  0.2534  0.2155  0.3140
    2TTP    C3222761  10.792   3.228   7.829  0.0153  0.7020  1.2521
    2TTP    C3322762  10.699   3.238   7.933  0.1387 -0.6754 -0.4119
    2TTP    C3422763  10.569   3.151   7.919  0.2740  0.7116 -0.1132
    2TTP    C3522764  10.532   3.018   8.006  0.8285 -0.6578  0.6001
    2TTP    C3622765  10.618   2.978   8.122 -0.6828  1.1131  0.0774
    2TTP    C3722766  10.621   3.077   8.246 -0.7725  1.1752  0.1499
    2TTP    C3822767  10.744   3.065   8.336  1.1721  0.0714  1.2747
    2TTP    C3922768  10.746   2.935   8.417 -0.2823  0.6453  0.9389
    2TTP    C4022769  10.887   2.914   8.456  0.0092  0.8865  0.2962
    2TTP    C4122770  10.933   2.980   8.586 -0.1155  0.5013 -0.3596
    2TTP    C4222771  11.050   2.907   8.618 -0.0793  0.5017 -0.8119
    3TTP     S122772   9.989   3.989   7.347  0.3220  0.4106 -0.2053
    3TTP     S522773  10.072   3.881   6.939  0.0405 -0.6456  0.0111
    3TTP     C122774   9.924   3.987   6.942  0.5143  0.0365 -0.2356
    3TTP     C222775   9.890   4.026   7.068  0.6292  0.4029 -0.3172
    3TTP     C322776   9.979   3.974   7.167  0.3474  0.1581 -0.1874
    3TTP     C422777  10.137   3.883   7.344 -0.1516 -0.2716  0.0412
    3TTP    C1722778  10.171   3.843   7.217 -0.2669 -0.6380  0.1228
    3TTP    C1822779  10.082   3.895   7.119  0.0153 -0.3932 -0.0067
    3TTP    C3222780   9.767   4.100   7.109 -1.0606  1.3937  0.4102
    3TTP    C3322781   9.735   4.207   7.212 -0.5281 -0.0837  0.7306
    3TTP    C3422782   9.827   4.332   7.227  1.0227  0.2200  1.0692
    3TTP    C3522783   9.821   4.430   7.102 -0.6805 -0.5823 -0.7967
    3TTP    C3622784   9.933   4.535   7.080  0.8002  0.7417 -0.2222
    3TTP    C3722785   9.947   4.608   7.213  0.1181  0.8709 -1.4271
    3TTP    C3822786  10.041   4.733   7.199  0.1263  1.7020  2.0523
    3TTP    C3922787  10.094   4.801   7.310  0.1871  0.1325  0.1411
    3TTP    C4022788  10.152   4.950   7.295 -0.4492  0.0073  0.8950
    3TTP    C4122789  10.206   5.000   7.424  1.6437  0.4482  0.2056
    3TTP    C4222790  10.245   5.153   7.381  1.2046  0.3805 -0.2244
    4FIC     F122791  11.214   2.842   6.983 -0.7560 -0.5350 -0.4011
    4FIC     F222792  11.235   2.625   7.146  0.6382  0.0544  0.2439
    4FIC     O122793  10.963   3.192   7.310 -1.1475 -0.5006 -0.7370
    4FIC     N522794  11.085   2.563   7.614  2.3639  0.9259  0.9320
    4FIC     N622795  10.884   2.880   7.836  1.7769  0.8339  0.5394
    4FIC    C1922796  10.893   3.110   7.582  0.0456  0.0746 -0.2399
    4FIC    C2022797  10.956   3.030   7.493  0.0894  0.0429 -0.1805
    4FIC    C2122798  10.988   3.079   7.355 -0.5472 -0.2602 -0.4489
    4FIC    C2222799  11.055   2.968   7.286 -0.3166 -0.2146 -0.3021
    4FIC    C2322800  11.104   2.967   7.155 -0.7217 -0.4303 -0.4550
    4FIC    C2422801  11.164   2.850   7.111 -0.3866 -0.3335 -0.2653
    4FIC    C2522802  11.174   2.738   7.195  0.3317 -0.0297  0.0669
    4FIC    C2622803  11.126   2.739   7.325  0.7396  0.1867  0.2211
    4FIC    C2722804  11.065   2.856   7.372  0.4094  0.0929  0.0333
    4FIC    C2822805  11.004   2.890   7.503  0.6874  0.2632  0.1210
    4FIC    C2922806  10.994   2.807   7.612  1.3685  0.5670  0.4238
    4FIC    C3022807  11.044   2.673   7.613  1.9135  0.7632  0.7021
    4FIC    C3122808  10.934   2.848   7.735  1.5893  0.7121  0.4855
    5FIC     F122809   9.932   3.799   6.131  0.3953  0.6322 -0.2153
    5FIC     F222810   9.724   3.970   6.098 -0.0987  0.0509 -0.1435
    5FIC     O122811  10.020   3.845   6.663  0.4776  0.9025 -0.2514
    5FIC     N522812   9.485   4.249   6.430 -0.7505 -0.5920 -0.0662
    5FIC     N622813   9.595   4.250   6.853 -0.5867 -0.2637 -0.1087
    5FIC    C1922814   9.851   4.025   6.821  0.0348  0.4431 -0.1957
    5FIC    C2022815   9.837   4.006   6.688  0.0334  0.3980 -0.1894
    5FIC    C2122816   9.928   3.912   6.614  0.2685  0.6451 -0.2195
    5FIC    C2222817   9.886   3.916   6.473  0.2015  0.5211 -0.2036
    5FIC    C2322818   9.940   3.846   6.366  0.3579  0.6663 -0.2208
    5FIC    C2422819   9.884   3.866   6.241  0.2514  0.5025 -0.1999
    5FIC    C2522820   9.776   3.954   6.224 -0.0031  0.2032 -0.1629
    5FIC    C2622821   9.721   4.025   6.330 -0.1602  0.0569 -0.1454
    5FIC    C2722822   9.777   4.006   6.458 -0.0560  0.2189 -0.1661
    5FIC    C2822823   9.743   4.065   6.590 -0.1695  0.1315 -0.1562
    5FIC    C2922824   9.643   4.156   6.615 -0.4158 -0.1441 -0.1223
    5FIC    C3022825   9.557   4.207   6.513 -0.5989 -0.3893 -0.0916
    5FIC    C3122826   9.617   4.207   6.746 -0.5083 -0.2083 -0.1153
    1BTD     S222827   1.977   1.019   2.848  0.2693  0.2196  0.2107
    1BTD     N122828   1.911   0.908   2.973  0.1014  0.2377  0.1386
    1BTD     N222829   2.112   0.910   2.802  0.2235  0.1330  0.2794
    1BTD     N322830   2.268   0.486   2.931 -0.1732 -0.0110  0.2890
    1BTD     N422831   2.020   0.484   3.143 -0.3237  0.1180  0.1157
    1BTD     C522832   1.971   0.686   3.059 -0.1187  0.1736  0.1288
    1BTD     C622833   1.989   0.800   2.974  0.0238  0.1811  0.1680
    1BTD     C722834   2.101   0.802   2.877  0.0922  0.1225  0.2466
    1BTD     C822835   2.190   0.689   2.872  0.0145  0.0594  0.2823
    1BTD    C1522836   2.169   0.579   2.958 -0.1248  0.0544  0.2418
    1BTD    C1622837   2.061   0.578   3.050 -0.1907  0.1108  0.1659
    1BTD    C4322838   2.032   0.332   3.152 -1.7921 -0.8188 -0.2381
    1BTD    C4422839   1.950   0.241   3.053  0.7148 -1.0082  1.2943
    1BTD    C4522840   1.971   0.278   2.911  0.1255  0.2965  1.1470
    1BTD    C4622841   1.884   0.224   2.808  0.5885  0.4341 -0.6223
    1BTD    C4722842   1.954   0.087   3.090  0.0636 -0.2276 -0.6274
    1BTD    C4822843   1.919   0.048   3.228  1.0528 -0.9170 -0.0053
    1BTD    C4922844   1.927  -0.092   3.271  0.4013 -1.0624  1.0325
    1BTD    C5022845   1.870  -0.085   3.413  0.3861 -0.5183 -1.7316
    1BTD    C7522846   2.316   0.362   2.993  0.2221  0.3575  0.4137
    1BTD    C7622847   2.414   0.353   3.118 -0.4634 -0.4777 -0.7996
    1BTD    C7722848   2.370   0.274   3.254 -1.2949  0.5346  1.5657
    1BTD    C7822849   2.506   0.183   3.284  0.7815 -1.5255  0.3665
    1BTD    C7922850   2.516   0.471   3.128  1.1017 -0.1331 -0.2470
    1BTD    C8022851   2.490   0.603   3.215 -1.6543  0.8754 -0.3539
    1BTD    C8122852   2.627   0.668   3.254  0.5827 -0.4994  0.3765
    1BTD    C8222853   2.611   0.809   3.300 -1.4000  1.1216 -0.0465
    2TTP     S122854   1.716   0.720   3.219 -0.0475 -0.0074  0.0748
    2TTP     S522855   1.792   0.340   3.407 -0.2752 -0.4620 -0.7426
    2TTP     C122856   1.643   0.413   3.482  0.1074 -0.2553 -0.1705
    2TTP     C222857   1.611   0.535   3.428  0.2002 -0.1027  0.1156
    2TTP     C322858   1.703   0.574   3.326 -0.0274 -0.1436 -0.1066
    2TTP     C422859   1.865   0.647   3.144 -0.4300 -0.2141 -0.4971
    2TTP    C1722860   1.897   0.525   3.198 -0.5229 -0.3667 -0.7833
    2TTP    C1822861   1.805   0.485   3.300 -0.2953 -0.3258 -0.5611
    2TTP    C3222862   1.498   0.626   3.472 -0.3259 -0.8062  1.2428
    2TTP    C3322863   1.390   0.642   3.365  0.9685 -0.5198  0.7748
    2TTP    C3422864   1.253   0.701   3.401  0.0432 -0.4176 -1.8156
    2TTP    C3522865   1.235   0.828   3.314 -1.1253  0.3375  0.8766
    2TTP    C3622866   1.203   0.958   3.391  0.8742  0.0062 -1.3823
    2TTP    C3722867   1.148   1.059   3.290  0.8632  1.0085 -0.9231
    2TTP    C3822868   1.112   1.184   3.373  0.0027 -0.8366  0.4583
    2TTP    C3922869   1.108   1.313   3.283  1.5865  0.3393 -0.9431
    2TTP    C4022870   1.220   1.363   3.193 -0.7555  0.8558  1.2897
    2TTP    C4122871   1.183   1.457   3.083 -0.0523  1.0222  0.2969
    2TTP    C4222872   1.311   1.525   3.022 -1.2081  0.1778  0.7995
    3TTP     S122873   2.393   0.735   2.649 -0.5603  0.0087  0.3907
    3TTP     S522874   2.520   0.327   2.693 -0.7111 -0.0519  0.2664
    3TTP     C122875   2.611   0.402   2.555 -0.7788 -0.0825  0.2051
    3TTP     C222876   2.577   0.532   2.533 -0.7361 -0.0656  0.2398
    3TTP     C322877   2.478   0.578   2.625 -0.6486 -0.0279  0.3161
    3TTP     C422878   2.301   0.661   2.788 -0.4927  0.0393  0.4519
    3TTP    C1722879   2.335   0.530   2.810 -0.5353  0.0224  0.4172
    3TTP    C1822880   2.434   0.485   2.718 -0.6229 -0.0153  0.3409
    3TTP    C3222881   2.639   0.636   2.443  0.4071  0.3261 -0.2972
    3TTP    C3322882   2.559   0.645   2.309 -0.8688  0.3670 -0.6723
    3TTP    C3422883   2.598   0.782   2.263  0.5711 -0.3758  0.3750
    3TTP    C3522884   2.708   0.837   2.169  1.4021  0.1498 -0.4579
    3TTP    C3622885   2.693   0.991   2.152  1.2863 -0.1399 -0.4500
    3TTP    C3722886   2.732   1.046   2.028 -1.5205  0.4712  1.3837
    3TTP    C3822887   2.671   1.141   1.932  0.0376 -0.6713 -0.8236
    3TTP    C3922888   2.735   1.157   1.797 -0.7164 -0.1166 -0.2393
    3TTP    C4022889   2.753   1.030   1.704  0.9787 -0.2134 -0.0396
    3TTP    C4122890   2.629   1.010   1.607 -1.6743  0.9464  0.2981
    3TTP    C4222891   2.496   0.971   1.656 -0.1643  0.3410 -0.5635
    4FIC     F122892   1.686  -0.295   3.889 -0.3657 -0.2928  0.3623
    4FIC     F222893   1.423  -0.268   3.953 -0.4169 -0.0930  0.0701
    4FIC     O122894   1.771   0.160   3.607  0.2826 -0.3744  0.4229
    4FIC     N522895   1.105   0.096   3.844 -0.0286  0.1364 -0.3071
    4FIC     N622896   1.224   0.446   3.611  0.4884  0.0325 -0.2010
    4FIC    C1922897   1.550   0.347   3.568  0.4640 -0.2123  0.1651
    4FIC    C2022898   1.539   0.232   3.637  0.3029 -0.1996  0.1612
    4FIC    C2122899   1.657   0.141   3.652  0.2182 -0.2866  0.2984
    4FIC    C2222900   1.611   0.025   3.731  0.0452 -0.2469  0.2556
    4FIC    C2322901   1.685  -0.086   3.771 -0.0810 -0.2992  0.3455
    4FIC    C2422902   1.619  -0.183   3.846 -0.2353 -0.2453  0.2800
    4FIC    C2522903   1.483  -0.168   3.878 -0.2613 -0.1425  0.1294
    4FIC    C2622904   1.409  -0.058   3.839 -0.1360 -0.0898  0.0391
    4FIC    C2722905   1.474   0.041   3.764  0.0209 -0.1429  0.1034
    4FIC    C2822906   1.424   0.169   3.707  0.1783 -0.1098  0.0395
    4FIC    C2922907   1.296   0.219   3.717  0.2036 -0.0141 -0.1051
    4FIC    C3022908   1.192   0.151   3.787  0.0758  0.0683 -0.2157
    4FIC    C3122909   1.258   0.343   3.659  0.3601  0.0110 -0.1571
    5FIC     F122910   3.145  -0.195   2.741 -0.6378 -0.3333  0.5203
    5FIC     F222911   3.182  -0.238   2.475  0.4196  0.4191  0.5289
    5FIC     O122912   2.800   0.222   2.730 -0.9075 -0.5610  0.3331
    5FIC     N522913   2.988  -0.004   2.085  1.7474  1.3386  0.4078
    5FIC     N622914   2.711   0.330   2.130  1.3236  1.0092  0.2598
    5FIC    C1922915   2.712   0.328   2.472  0.0068  0.0771  0.2748
    5FIC    C2022916   2.797   0.225   2.485  0.0334  0.1049  0.3215
    5FIC    C2122917   2.838   0.176   2.622 -0.4542 -0.2360  0.3491
    5FIC    C2222918   2.931   0.064   2.600 -0.2862 -0.1071  0.3985
    5FIC    C2322919   2.995  -0.013   2.696 -0.5996 -0.3223  0.4371
    5FIC    C2422920   3.079  -0.114   2.651 -0.3514 -0.1375  0.4805
    5FIC    C2522921   3.097  -0.137   2.514  0.1933  0.2501  0.4850
    5FIC    C2622922   3.034  -0.060   2.417  0.5085  0.4663  0.4466
    5FIC    C2722923   2.949   0.043   2.461  0.2643  0.2845  0.4023
    5FIC    C2822924   2.867   0.141   2.385  0.4824  0.4302  0.3552
    5FIC    C2922925   2.858   0.152   2.248  1.0013  0.7966  0.3447
    5FIC    C3022926   2.930   0.066   2.159  1.4096  1.0933  0.3794
    5FIC    C3122927   2.777   0.250   2.184  1.1756  0.9114  0.2980
    1BTD     S222928  10.286   3.325   7.518  0.1398 -0.2250  0.2445
    1BTD     N122929  10.138   3.417   7.476  0.3536  0.0341  0.0489
    1BTD     N222930  10.290   3.379   7.689 -0.1020 -0.3908  0.3030
    1BTD     N322931  10.028   3.657   7.963 -0.2100 -0.2608  0.0689
    1BTD     N422932   9.841   3.704   7.701  0.3517  0.2628 -0.2443
    1BTD     C522933   9.985   3.566   7.597  0.3459  0.1472 -0.1004
    1BTD     C622934  10.100   3.481   7.587  0.2394 -0.0138  0.0377
    1BTD     C722935  10.185   3.459   7.706 -0.0157 -0.2517  0.1801
    1BTD     C822936  10.151   3.525   7.829 -0.1516 -0.3166  0.1770
    1BTD    C1522937  10.037   3.608   7.834 -0.0399 -0.1532  0.0392
    1BTD    C1622938   9.955   3.628   7.719  0.2060  0.0759 -0.0980
    1BTD    C4322939   9.831   3.834   7.771 -0.3944 -1.0256  0.4250
    1BTD    C4422940   9.697   3.903   7.803  0.7125  1.2253  1.5451
    1BTD    C4522941   9.703   4.046   7.827  0.9219 -1.1548  1.0330
    1BTD    C4622942   9.782   4.152   7.749 -0.6640 -0.8011  0.8938
    1BTD    C4722943   9.597   3.814   7.890 -0.7706  0.1410  0.1258
    1BTD    C4822944   9.450   3.857   7.877 -1.0421  0.4847 -0.2455
    1BTD    C4922945   9.320   3.766   7.890 -0.2532 -1.0452 -0.6818
    1BTD    C5022946   9.312   3.649   7.809  0.1906 -0.3493  0.1571
    1BTD    C7522947   9.899   3.643   8.029  0.3309  0.8781 -0.6144
    1BTD    C7622948   9.834   3.512   8.102  0.1897  0.3765 -0.2323
    1BTD    C7722949   9.872   3.493   8.253 -0.2505  1.0610  0.8711
    1BTD    C7822950   9.786   3.552   8.359  0.8833  0.4203 -0.1993
    1BTD    C7922951   9.789   3.399   8.006 -0.1925  1.1647  0.3391
    1BTD    C8022952   9.660   3.338   8.052  0.0659  0.1621  0.4668
    1BTD    C8122953   9.521   3.396   8.020 -0.4746 -0.5204 -0.8356
    1BTD    C8222954   9.432   3.350   8.138 -0.4493 -1.3766  0.3477
    2TTP     S122955   9.828   3.584   7.336  0.1039 -0.1052  0.0684
    2TTP     S522956   9.555   3.864   7.514 -0.1137  0.0297 -0.4745
    2TTP     C122957   9.509   3.841   7.339 -0.1379 -0.3955 -0.4150
    2TTP     C222958   9.590   3.754   7.274 -0.0720 -0.4621 -0.2440
    2TTP     C322959   9.692   3.701   7.360 -0.0002 -0.1798 -0.1534
    2TTP     C422960   9.874   3.607   7.511  0.1278  0.3201  0.0089
    2TTP    C1722961   9.792   3.695   7.576  0.0618  0.3867 -0.1620
    2TTP    C1822962   9.690   3.747   7.490 -0.0095  0.1045 -0.2525
    2TTP    C3222963   9.579   3.706   7.124  0.9597  0.0795  1.2012
    2TTP    C3322964   9.550   3.559   7.060 -0.7739 -0.2736 -0.4698
    2TTP    C3422965   9.411   3.514   7.098 -0.4000  1.9107  1.6155
    2TTP    C3522966   9.306   3.489   6.981  0.3083  0.2967  0.6163
    2TTP    C3622967   9.214   3.383   7.024  0.6007 -0.0237 -0.3780
    2TTP    C3722968   9.102   3.334   6.940 -0.1350  0.7912  1.6523
    2TTP    C3822969   8.982   3.432   6.899 -0.7430 -0.4594 -0.6584
    2TTP    C3922970   8.951   3.564   6.953 -0.2190  0.5338 -0.1867
    2TTP    C4022971   8.834   3.554   7.050 -0.4450  1.1465 -0.1639
    2TTP    C4122972   8.741   3.653   7.128  0.7270 -0.8678  0.3718
    2TTP    C4222973   8.790   3.797   7.171 -0.0028  1.1659  0.2238
    3TTP     S122974  10.375   3.508   8.031 -0.4935 -0.3590 -0.1776
    3TTP     S522975  10.161   3.789   8.276 -0.1047  0.2834 -0.5720
    3TTP     C122976  10.328   3.768   8.345 -0.1338  0.1498 -0.5428
    3TTP     C222977  10.404   3.680   8.273 -0.2553 -0.0564 -0.4194
    3TTP     C322978  10.333   3.626   8.161 -0.3304 -0.1163 -0.3431
    3TTP     C422979  10.208   3.529   7.962 -0.4644 -0.2254 -0.2065
    3TTP    C1722980  10.132   3.617   8.034 -0.3429 -0.0192 -0.3298
    3TTP    C1822981  10.203   3.671   8.145 -0.2677  0.0408 -0.4063
    3TTP    C3222982  10.553   3.647   8.293 -0.9869 -0.4893 -0.0035
    3TTP    C3322983  10.631   3.596   8.415 -0.2928  0.6280 -0.6819
    3TTP    C3422984  10.559   3.503   8.523 -0.5623  0.1006 -0.9392
    3TTP    C3522985  10.646   3.488   8.658  1.5433  0.0076  0.4017
    3TTP    C3622986  10.794   3.459   8.630  0.1107  0.0066 -0.6238
    3TTP    C3722987  10.829   3.350   8.728  0.2627 -0.5914  0.7344
    3TTP    C3822988  10.985   3.348   8.755  0.2596  0.7500 -0.0125
    3TTP    C3922989  11.079   3.292   8.643  1.1277  0.8301 -0.1702
    3TTP    C4022990  11.183   3.391   8.594  0.7428  0.5825  0.3466
    3TTP    C4122991  11.271   3.332   8.479  1.2986  0.9141 -1.8254
    3TTP    C4222992  11.365   3.420   8.414  0.0036  0.6840 -1.4510
    4FIC     F122993   8.883   4.324   7.551  0.2704 -0.1965  0.1358
    4FIC     F222994   8.820   4.346   7.287 -0.1128 -0.5220  0.1981
    4FIC     O122995   9.315   3.998   7.527  0.6754  0.3578 -0.1398
    4FIC     N522996   9.037   4.145   6.890 -0.3746 -0.5950  0.0916
    4FIC     N622997   9.387   3.886   6.925  0.0196 -0.0962 -0.1364
    4FIC    C1922998   9.408   3.903   7.266  0.4536  0.2438 -0.1782
    4FIC    C2022999   9.302   3.984   7.282  0.3664  0.1169 -0.1112
    4FIC    C2123000   9.260   4.029   7.420  0.4909  0.1867 -0.0956
    4FIC    C2223001   9.142   4.116   7.401  0.3498  0.0126 -0.0184
    4FIC    C2323002   9.068   4.180   7.500  0.3951  0.0043  0.0209
    4FIC    C2423003   8.961   4.257   7.459  0.2364 -0.1777  0.0937
    4FIC    C2523004   8.928   4.268   7.323  0.0391 -0.3451  0.1257
    4FIC    C2623005   9.001   4.204   7.224 -0.0069 -0.3377  0.0869
    4FIC    C2723006   9.111   4.126   7.264  0.1519 -0.1550  0.0130
    4FIC    C2823007   9.208   4.045   7.185  0.1540 -0.0975 -0.0427
    4FIC    C2923008   9.210   4.031   7.048 -0.0095 -0.2198 -0.0325
    4FIC    C3023009   9.115   4.093   6.962 -0.2096 -0.4257  0.0356
    4FIC    C3123010   9.308   3.951   6.981  0.0074 -0.1511 -0.0898
    5FIC     F123011   9.990   3.770   9.092 -0.5243  0.2046 -0.4222
    5FIC     F223012  10.229   3.851   9.193 -0.5126 -0.3885  0.0341
    5FIC     O123013  10.105   3.741   8.564  0.1888  0.6737 -0.2949
    5FIC     N523014  10.656   3.945   8.961  0.0131 -0.9068  0.7813
    5FIC     N623015  10.698   3.906   8.528  0.5679 -0.4208  0.7885
    5FIC    C1923016  10.375   3.807   8.473  0.4536  0.2736  0.1861
    5FIC    C2023017  10.337   3.811   8.602  0.2735  0.1788  0.1361
    5FIC    C2123018  10.196   3.776   8.641  0.1462  0.3981 -0.1159
    5FIC    C2223019  10.188   3.791   8.787 -0.0381  0.2214 -0.1063
    5FIC    C2323020  10.078   3.769   8.869 -0.2007  0.3265 -0.2961
    5FIC    C2423021  10.095   3.790   9.005 -0.3586  0.1161 -0.2435
    5FIC    C2523022  10.218   3.831   9.057 -0.3522 -0.1893 -0.0080
    5FIC    C2623023  10.329   3.853   8.976 -0.1900 -0.2957  0.1822
    5FIC    C2723024  10.314   3.833   8.838 -0.0291 -0.0862  0.1321
    5FIC    C2823025  10.410   3.847   8.726  0.1628 -0.1245  0.2906
    5FIC    C2923026  10.542   3.886   8.735  0.2258 -0.3902  0.5341
    5FIC    C3023027  10.604   3.919   8.860  0.1082 -0.6734  0.6688
    5FIC    C3123028  10.627   3.897   8.621  0.4137 -0.4055  0.6728
    1BTD     S223029   0.120   4.945   4.201 -0.2091  0.0133  0.2002
    1BTD     N123030   0.076   4.799   4.105  0.3191 -0.3076  0.4369
    1BTD     N223031   0.258   4.991   4.095 -0.5506  0.5083 -0.0362
    1BTD     N323032   0.459   4.822   3.706 -0.2928  0.9381 -0.0910
    1BTD     N423033   0.235   4.585   3.719  0.7788 -0.0676  0.4920
    1BTD     C523034   0.162   4.690   3.903  0.5461 -0.1700  0.4586
    1BTD     C623035   0.162   4.793   4.005  0.2188 -0.0428  0.3328
    1BTD     C723036   0.264   4.900   3.999 -0.2679  0.4139  0.0679
    1BTD     C823037   0.360   4.900   3.892 -0.4031  0.7204 -0.0578
    1BTD    C1523038   0.357   4.798   3.795 -0.0708  0.5813  0.0728
    1BTD    C1623039   0.259   4.694   3.801  0.3982  0.1412  0.3281
    1BTD    C4323040   0.343   4.504   3.670  0.0736  0.8260  0.6713
    1BTD    C4423041   0.389   4.376   3.755 -0.1383  0.1581  0.7802
    1BTD    C4523042   0.286   4.275   3.816 -0.2167  0.0144  0.1289
    1BTD    C4623043   0.199   4.190   3.723 -0.1575  0.0016  0.3239
    1BTD    C4723044   0.522   4.305   3.701  0.1208 -1.0126  0.6010
    1BTD    C4823045   0.620   4.419   3.672 -0.3316 -0.0366  0.1641
    1BTD    C4923046   0.685   4.476   3.806 -0.3702  0.4615 -0.6037
    1BTD    C5023047   0.795   4.570   3.809 -1.0423 -0.8989 -0.3294
    1BTD    C7523048   0.467   4.759   3.566  0.6582 -0.3443 -1.0602
    1BTD    C7623049   0.496   4.793   3.423 -1.0087  1.5194  0.5024
    1BTD    C7723050   0.655   4.801   3.390  1.2610 -1.5400 -0.2168
    1BTD    C7823051   0.707   4.794   3.248  0.3372 -0.0299  0.2665
    1BTD    C7923052   0.399   4.888   3.358 -0.5024 -0.3102  0.4855
    1BTD    C8023053   0.244   4.890   3.363 -0.6138  0.8841  0.3242
    1BTD    C8123054   0.190   5.023   3.317  1.1642 -1.1122 -0.6341
    1BTD    C8223055   0.186   5.039   3.178 -0.2203 -1.0381  0.8514
    2TTP     S123056  -0.112   4.570   3.897  0.4311  0.1250 -0.1240
    2TTP     S523057  -0.032   4.447   3.492  0.1972 -0.2093 -0.0688
    2TTP     C123058  -0.211   4.437   3.522  0.1705  0.1992 -0.0816
    2TTP     C223059  -0.246   4.474   3.648  0.2413  0.3266 -0.0994
    2TTP     C323060  -0.133   4.512   3.727  0.3188  0.1061 -0.1035
    2TTP     C423061   0.068   4.580   3.867  0.4578 -0.2835 -0.1112
    2TTP    C1723062   0.103   4.542   3.741  0.3871 -0.4109 -0.0934
    2TTP    C1823063  -0.010   4.504   3.662  0.3092 -0.1903 -0.0893
    2TTP    C3223064  -0.381   4.508   3.713  0.7262  1.1941 -0.9645
    2TTP    C3323065  -0.437   4.414   3.827  1.6810  0.6320  0.5016
    2TTP    C3423066  -0.569   4.343   3.807  0.4150  0.4537  0.9450
    2TTP    C3523067  -0.629   4.239   3.898  0.1539 -0.1327  0.2780
    2TTP    C3623068  -0.686   4.308   4.026  1.1318 -0.7949  0.3537
    2TTP    C3723069  -0.703   4.205   4.136  0.0477 -0.4566 -0.0374
    2TTP    C3823070  -0.758   4.271   4.264 -0.0453  0.0402 -0.1006
    2TTP    C3923071  -0.906   4.302   4.279 -0.1895  0.3147 -0.3884
    2TTP    C4023072  -0.968   4.248   4.413  0.5300  1.0693 -0.4261
    2TTP    C4123073  -0.881   4.248   4.541  1.0088  0.7615 -0.1337
    2TTP    C4223074  -0.940   4.211   4.671  1.6744  0.5216 -0.3506
    3TTP     S123075   0.587   5.088   3.956 -0.1456 -0.6569  0.2889
    3TTP     S523076   0.813   4.918   3.632 -0.1559  0.3742 -0.2688
    3TTP     C123077   0.921   5.029   3.726 -0.1322  0.0190  0.1316
    3TTP     C223078   0.858   5.089   3.832 -0.1276 -0.3202  0.3274
    3TTP     C323079   0.722   5.048   3.842 -0.1427 -0.3120  0.1683
    3TTP     C423080   0.478   4.977   3.862 -0.1694 -0.3020 -0.1115
    3TTP    C1723081   0.542   4.917   3.757 -0.1740  0.0375 -0.3072
    3TTP    C1823082   0.678   4.958   3.746 -0.1589  0.0293 -0.1481
    3TTP    C3223083   0.912   5.174   3.933 -0.0379  1.1452 -0.8594
    3TTP    C3323084   0.901   5.160   4.089  0.4158 -0.6169 -0.4119
    3TTP    C3423085   1.041   5.188   4.145  1.0472 -0.5061  0.2013
    3TTP    C3523086   1.088   5.117   4.263  0.3401 -0.1691  0.5311
    3TTP    C3623087   1.001   5.107   4.387  0.2475  0.0807  0.5810
    3TTP    C3723088   1.065   5.009   4.478 -2.3638 -0.0317 -1.3372
    3TTP    C3823089   1.038   5.023   4.625  0.6963 -0.7887 -0.8459
    3TTP    C3923090   1.092   4.962   4.753 -0.0963  0.4127  0.6945
    3TTP    C4023091   1.088   4.813   4.717  0.3778 -0.5385 -0.7188
    3TTP    C4123092   1.158   4.728   4.838  1.4294 -0.5767 -0.0645
    3TTP    C4223093   1.119   4.756   4.994 -0.0780  0.6890  1.9999
    4FIC     F123094  -0.247   3.826   2.980  0.3326  0.5162  0.0814
    4FIC     F223095  -0.496   3.910   2.911  0.4301  0.5885 -0.1837
    4FIC     O123096  -0.119   4.187   3.364 -0.0758  0.3175  0.4061
    4FIC     N523097  -0.764   4.289   3.085  0.2794  0.5506 -0.3332
    4FIC     N623098  -0.614   4.554   3.398 -0.0594  0.3806 -0.0261
    4FIC    C1923099  -0.312   4.395   3.434 -0.1277  0.3156  0.2682
    4FIC    C2023100  -0.335   4.301   3.340 -0.0286  0.3631  0.1969
    4FIC    C2123101  -0.230   4.197   3.309 -0.0083  0.3604  0.2753
    4FIC    C2223102  -0.287   4.111   3.204  0.1066  0.4188  0.1665
    4FIC    C2323103  -0.227   4.001   3.143  0.1631  0.4376  0.1878
    4FIC    C2423104  -0.300   3.936   3.045  0.2721  0.4948  0.0681
    4FIC    C2523105  -0.428   3.979   3.009  0.3221  0.5319 -0.0684
    4FIC    C2623106  -0.488   4.089   3.069  0.2663  0.5136 -0.0905
    4FIC    C2723107  -0.416   4.157   3.169  0.1562  0.4557  0.0295
    4FIC    C2823108  -0.451   4.275   3.251  0.0749  0.4228  0.0428
    4FIC    C2923109  -0.568   4.347   3.246  0.0923  0.4439 -0.0669
    4FIC    C3023110  -0.675   4.315   3.157  0.1950  0.5026 -0.2130
    4FIC    C3123111  -0.592   4.460   3.330  0.0086  0.4090 -0.0438
    5FIC     F123112   1.545   4.692   3.319  0.1719  0.0378 -0.0293
    5FIC     F223113   1.702   4.898   3.403 -0.0552  0.1348  0.1585
    5FIC     O123114   1.075   4.817   3.556 -0.1074 -0.4185 -0.3382
    5FIC     N523115   1.592   5.283   3.693 -0.5808 -0.0507  0.2084
    5FIC     N623116   1.193   5.339   3.861 -0.7533 -0.4269 -0.0709
    5FIC    C1923117   1.058   5.058   3.721 -0.4236 -0.4878 -0.2684
    5FIC    C2023118   1.170   5.019   3.658 -0.3445 -0.3768 -0.1981
    5FIC    C2123119   1.171   4.893   3.575 -0.1822 -0.3481 -0.2401
    5FIC    C2223120   1.308   4.880   3.521 -0.1308 -0.2205 -0.1426
    5FIC    C2323121   1.357   4.779   3.438  0.0116 -0.1534 -0.1401
    5FIC    C2423122   1.490   4.788   3.400  0.0338 -0.0340 -0.0376
    5FIC    C2523123   1.571   4.894   3.444 -0.0834  0.0158  0.0589
    5FIC    C2623124   1.522   4.995   3.526 -0.2257 -0.0505  0.0572
    5FIC    C2723125   1.388   4.988   3.566 -0.2504 -0.1717 -0.0459
    5FIC    C2823126   1.306   5.077   3.652 -0.3863 -0.2657 -0.0762
    5FIC    C2923127   1.349   5.193   3.713 -0.5245 -0.2524 -0.0047
    5FIC    C3023128   1.483   5.242   3.702 -0.5549 -0.1416  0.1124
    5FIC    C3123129   1.263   5.273   3.795 -0.6495 -0.3483 -0.0415
    1BTD     S223130   8.822   4.958   6.341  0.0703 -0.2846  0.0792
    1BTD     N123131   8.883   5.066   6.211  0.5195 -0.1335  0.4120
    1BTD     N223132   8.774   5.093   6.450 -0.3464 -0.4109  0.0576
    1BTD     N323133   8.789   5.562   6.439 -0.3839 -0.3945  0.6152
    1BTD     N423134   8.923   5.529   6.143  0.6831 -0.0527  1.0518
    1BTD     C523135   8.902   5.308   6.179  0.5922 -0.0954  0.7408
    1BTD     C623136   8.866   5.190   6.253  0.3450 -0.1820  0.4863
    1BTD     C723137   8.805   5.205   6.387 -0.1400 -0.3375  0.2880
    1BTD     C823138   8.784   5.337   6.441 -0.3531 -0.3982  0.3541
    1BTD    C1523139   8.821   5.450   6.364 -0.0977 -0.3090  0.6057
    1BTD    C1623140   8.879   5.435   6.235  0.3694 -0.1595  0.7967
    1BTD    C4323141   8.865   5.669   6.105  1.8128 -0.6149 -0.2061
    1BTD    C4423142   8.718   5.724   6.149 -0.6999  0.4704 -0.4837
    1BTD    C4523143   8.609   5.618   6.104  1.0638  1.1579  1.4082
    1BTD    C4623144   8.555   5.607   5.957  0.3400 -0.0779  0.2032
    1BTD    C4723145   8.687   5.874   6.130  0.4772 -1.1178  0.0421
    1BTD    C4823146   8.774   5.965   6.212 -0.2135  0.1957  1.2597
    1BTD    C4923147   8.895   6.026   6.127  0.4542  0.8027 -0.0463
    1BTD    C5023148   8.869   6.160   6.056  0.1298 -0.9219 -1.3687
    1BTD    C7523149   8.849   5.697   6.430  1.3688  0.0534  0.7524
    1BTD    C7623150   8.946   5.738   6.540  0.0017 -0.1920  0.3630
    1BTD    C7723151   8.892   5.798   6.672  0.7333  1.6346  1.0747
    1BTD    C7823152   8.796   5.928   6.685 -0.5319  0.5689  0.7381
    1BTD    C7923153   9.062   5.831   6.479 -0.9436  0.3146 -0.6596
    1BTD    C8023154   9.179   5.888   6.564  0.2362 -0.5152 -1.4579
    1BTD    C8123155   9.199   6.045   6.542 -0.0411 -0.4394  0.8102
    1BTD    C8223156   9.320   6.116   6.613  0.4723  0.1847  1.0609
    2TTP     S123157   8.981   5.233   5.903  0.0286 -0.1784  0.3839
    2TTP     S523158   9.063   5.644   5.806 -0.5896 -0.2189 -0.3349
    2TTP     C123159   9.091   5.543   5.658 -0.5803 -0.4178 -0.1985
    2TTP     C223160   9.067   5.410   5.679 -0.3886 -0.4168  0.0315
    2TTP     C323161   9.026   5.383   5.813 -0.2427 -0.2593  0.1084
    2TTP     C423162   8.953   5.334   6.051  0.0193  0.0205  0.2476
    2TTP    C1723163   8.977   5.467   6.030 -0.1721  0.0195  0.0177
    2TTP    C1823164   9.018   5.494   5.896 -0.3185 -0.1382 -0.0594
    2TTP    C3223165   9.077   5.298   5.580  0.1352 -0.1868 -0.0632
    2TTP    C3323166   8.960   5.255   5.485 -0.5814  1.3913 -0.1008
    2TTP    C3423167   8.820   5.294   5.520 -0.5051  0.3615  0.1808
    2TTP    C3523168   8.738   5.216   5.424  1.4437 -0.8188 -1.2018
    2TTP    C3623169   8.583   5.204   5.459 -0.5834 -0.5651  0.5297
    2TTP    C3723170   8.513   5.338   5.487 -0.1190 -0.9131  0.6967
    2TTP    C3823171   8.495   5.407   5.358  0.9961  0.2533  1.0065
    2TTP    C3923172   8.598   5.488   5.273 -1.3025  0.6324  0.5118
    2TTP    C4023173   8.569   5.643   5.265 -0.5429  0.1051  1.2733
    2TTP    C4123174   8.433   5.697   5.210 -0.4210  0.1682  0.9110
    2TTP    C4223175   8.425   5.714   5.055 -0.0750 -0.0592 -0.2513
    3TTP     S123176   8.591   5.334   6.677  0.6257  0.0716  0.3009
    3TTP     S523177   8.529   5.755   6.618  0.1423 -0.0590 -0.1404
    3TTP     C123178   8.403   5.694   6.735  0.3088 -0.0514  0.0440
    3TTP     C223179   8.415   5.560   6.760  0.4675 -0.0107  0.1910
    3TTP     C323180   8.524   5.501   6.688  0.4642  0.0161  0.1636
    3TTP     C423181   8.716   5.395   6.560  0.4597  0.0639  0.1165
    3TTP    C1723182   8.705   5.529   6.535  0.3002  0.0233 -0.0306
    3TTP    C1823183   8.596   5.588   6.607  0.3045 -0.0035 -0.0029
    3TTP    C3223184   8.303   5.483   6.839 -0.2727 -0.3030  0.4223
    3TTP    C3323185   8.329   5.365   6.937  0.2483 -0.3180  0.3144
    3TTP    C3423186   8.264   5.374   7.071 -0.9091  0.2954  0.0887
    3TTP    C3523187   8.346   5.456   7.175 -0.4254 -0.4802  0.4628
    3TTP    C3623188   8.254   5.506   7.293 -0.3214 -1.7256  0.8406
    3TTP    C3723189   8.330   5.622   7.372  0.0932  1.2271  0.0651
    3TTP    C3823190   8.261   5.636   7.519 -1.5854  0.5747  0.9181
    3TTP    C3923191   8.155   5.745   7.528 -0.8929 -0.0388  1.6625
    3TTP    C4023192   8.222   5.868   7.571 -0.9131  0.1495 -0.2644
    3TTP    C4123193   8.235   5.968   7.456  0.7430  0.8058  0.0787
    3TTP    C4223194   8.325   6.090   7.485  1.1284 -0.7427 -0.9401
    4FIC     F123195   9.562   6.132   5.331  0.0460 -0.1972  0.5202
    4FIC     F223196   9.470   6.059   5.086 -0.3083  0.3039  0.5033
    4FIC     O123197   9.310   5.770   5.646  0.2000 -0.5958  0.1869
    4FIC     N523198   9.157   5.698   4.957 -0.7071  0.7403  0.2412
    4FIC     N623199   8.979   5.430   5.252 -0.5155  0.3281 -0.0160
    4FIC    C1923200   9.132   5.572   5.523 -0.0836 -0.2586  0.0522
    4FIC    C2023201   9.199   5.666   5.453 -0.1082 -0.1779  0.1366
    4FIC    C2123202   9.289   5.764   5.524  0.0441 -0.3629  0.2023
    4FIC    C2223203   9.346   5.852   5.419 -0.0286 -0.2129  0.2871
    4FIC    C2323204   9.434   5.958   5.436  0.0620 -0.3014  0.3673
    4FIC    C2423205   9.474   6.026   5.322 -0.0354 -0.1228  0.4389
    4FIC    C2523206   9.427   5.988   5.196 -0.2176  0.1349  0.4299
    4FIC    C2623207   9.338   5.883   5.178 -0.3090  0.2244  0.3502
    4FIC    C2723208   9.296   5.813   5.292 -0.2131  0.0468  0.2769
    4FIC    C2823209   9.205   5.697   5.308 -0.2692  0.0787  0.1843
    4FIC    C2923210   9.138   5.632   5.208 -0.4377  0.3031  0.1490
    4FIC    C3023211   9.149   5.668   5.070 -0.5853  0.5428  0.1998
    4FIC    C3123212   9.051   5.521   5.233 -0.4797  0.3154  0.0584
    5FIC     F123213   8.175   6.481   6.695  0.3636 -0.0837  0.2278
    5FIC     F223214   7.923   6.407   6.764  0.4085  0.1668  0.6694
    5FIC     O123215   8.431   6.004   6.716 -0.0608 -0.3306 -0.1788
    5FIC     N523216   7.742   5.961   6.878  0.1706  0.3504  1.0149
    5FIC     N623217   7.993   5.603   6.880 -0.1701  0.1070  0.6080
    5FIC    C1923218   8.281   5.764   6.789 -0.1685 -0.1793  0.0987
    5FIC    C2023219   8.226   5.887   6.781 -0.0637 -0.1270  0.1838
    5FIC    C2123220   8.310   6.006   6.743 -0.0141 -0.2110  0.0302
    5FIC    C2223221   8.220   6.123   6.744  0.1006 -0.1236  0.1767
    5FIC    C2323222   8.253   6.255   6.715  0.1791 -0.1571  0.1111
    5FIC    C2423223   8.150   6.349   6.722  0.2819 -0.0572  0.2807
    5FIC    C2523224   8.020   6.310   6.758  0.3052  0.0715  0.5082
    5FIC    C2623225   7.987   6.178   6.787  0.2270  0.1056  0.5748
    5FIC    C2723226   8.089   6.082   6.780  0.1223  0.0060  0.4055
    5FIC    C2823227   8.088   5.936   6.804  0.0224  0.0091  0.4190
    5FIC    C2923228   7.979   5.860   6.841  0.0114  0.1174  0.6124
    5FIC    C3023229   7.849   5.916   6.861  0.0991  0.2451  0.8330
    5FIC    C3123230   7.987   5.719   6.862 -0.0885  0.1110  0.6089
    1BTD     S223231   7.012  10.300   6.714 -0.1541  0.4200  0.5130
    1BTD     N123232   7.153  10.224   6.797 -0.2258 -0.0672  0.1960
    1BTD     N223233   6.899  10.276   6.851  0.0240  0.6609  0.7054
    1BTD     N323234   6.921  10.088   7.281  0.2573  0.2725  0.5243
    1BTD     N423235   7.234  10.024   7.214 -0.0503 -0.6247 -0.1034
    1BTD     C523236   7.191  10.121   7.015 -0.1303 -0.3476  0.0474
    1BTD     C623237   7.110  10.186   6.916 -0.1187 -0.0272  0.2472
    1BTD     C723238   6.968  10.215   6.947  0.0210  0.3803  0.5322
    1BTD     C823239   6.914  10.177   7.075  0.1420  0.4470  0.6032
    1BTD    C1523240   6.998  10.113   7.169  0.1256  0.1248  0.4009
    1BTD    C1623241   7.134  10.085   7.139 -0.0089 -0.2679  0.1262
    1BTD    C4323242   7.247   9.890   7.281  0.1898  0.3166 -0.3215
    1BTD    C4423243   7.130   9.792   7.273 -0.9863 -0.5849  0.1019
    1BTD    C4523244   7.061   9.794   7.131 -0.4743  1.1162 -1.1166
    1BTD    C4623245   6.906   9.788   7.137  0.1106 -0.1280  0.6419
    1BTD    C4723246   7.151   9.655   7.339 -2.4895  0.6351 -0.4533
    1BTD    C4823247   7.256   9.562   7.270  0.2463  0.6262 -1.1765
    1BTD    C4923248   7.223   9.419   7.249 -0.1464  0.6458  0.3896
    1BTD    C5023249   7.301   9.394   7.122  0.3070 -0.0638  0.6752
    1BTD    C7523250   6.968  10.020   7.412  1.4659 -0.6289  0.3636
    1BTD    C7623251   7.031  10.110   7.525 -1.3871 -0.6704  0.6348
    1BTD    C7723252   7.058  10.034   7.650 -0.9584  0.8033 -0.2712
    1BTD    C7823253   7.160   9.915   7.633 -0.4426 -1.1935  0.8754
    1BTD    C7923254   6.975  10.242   7.545  0.9887 -0.3375  0.2416
    1BTD    C8023255   6.883  10.296   7.659  0.2089 -2.4131  0.6558
    1BTD    C8123256   6.952  10.375   7.770 -1.7440  0.2964 -0.5518
    1BTD    C8223257   6.880  10.483   7.844  0.2776 -0.2244 -0.7386
    2TTP     S123258   7.485  10.084   6.917  0.3314  0.0435 -0.1454
    2TTP     S523259   7.599   9.989   7.321  0.1224  0.0925 -0.0749
    2TTP     C123260   7.749   9.993   7.218  0.2578  0.7468  0.1353
    2TTP     C223261   7.723  10.022   7.087  0.3303  0.7703  0.1259
    2TTP     C323262   7.583  10.043   7.063  0.2815  0.2723 -0.0477
    2TTP     C423263   7.336  10.080   7.020  0.1959 -0.6108 -0.3556
    2TTP    C1723264   7.362  10.051   7.151  0.1234 -0.6342 -0.3462
    2TTP    C1823265   7.501  10.030   7.174  0.1721 -0.1361 -0.1727
    2TTP    C3223266   7.812  10.066   6.976  0.6020  0.7654  0.0029
    2TTP    C3323267   7.803  10.212   6.943  1.1706  0.1710 -1.5599
    2TTP    C3423268   7.866  10.305   7.046  0.0277  0.1259  0.0069
    2TTP    C3523269   7.983  10.368   6.980  0.2145  1.2785  0.8914
    2TTP    C3623270   8.077  10.443   7.060 -0.7546 -0.1668  1.5687
    2TTP    C3723271   8.010  10.564   7.123  0.6678 -0.1899 -0.1717
    2TTP    C3823272   8.076  10.613   7.256 -1.4604 -0.7429 -0.3745
    2TTP    C3923273   8.003  10.749   7.260 -1.0738 -0.1875 -1.2152
    2TTP    C4023274   8.029  10.833   7.390  0.0872 -0.7145  0.1559
    2TTP    C4123275   8.176  10.890   7.392  0.1766 -0.4739 -0.3343
    2TTP    C4223276   8.231  10.902   7.535 -1.6758 -0.7090 -0.3654
    3TTP     S123277   6.617  10.252   7.101 -0.1956 -0.1120  0.0910
    3TTP     S523278   6.637  10.146   7.517 -0.1969 -0.0279  0.1128
    3TTP     C123279   6.475  10.223   7.484 -0.0667  0.2752  0.1699
    3TTP     C223280   6.459  10.260   7.354 -0.0584  0.2673  0.1665
    3TTP     C323281   6.575  10.229   7.275 -0.1549  0.0212  0.1187
    3TTP     C423282   6.779  10.176   7.133 -0.3259 -0.4153  0.0340
    3TTP    C1723283   6.794  10.139   7.264 -0.3340 -0.4070  0.0373
    3TTP    C1823284   6.679  10.169   7.343 -0.2376 -0.1612  0.0851
    3TTP    C3223285   6.366  10.353   7.284  0.0214  0.9110  0.1568
    3TTP    C3323286   6.270  10.299   7.174  1.8905  0.3978  1.5891
    3TTP    C3423287   6.200  10.393   7.080  0.6143 -0.4087 -0.5437
    3TTP    C3523288   6.194  10.322   6.940  0.2735  0.7266  0.3135
    3TTP    C3623289   6.077  10.365   6.838  0.0434  0.7587 -0.2262
    3TTP    C3723290   6.074  10.283   6.711 -0.2582  1.7424 -0.1333
    3TTP    C3823291   5.990  10.341   6.601 -0.2495  0.7208  0.5459
    3TTP    C3923292   5.981  10.498   6.582  0.3172 -0.9586  0.5004
    3TTP    C4023293   5.830  10.555   6.568 -0.2121  0.1293 -0.8195
    3TTP    C4123294   5.848  10.686   6.507 -0.2137 -0.2887  0.8895
    3TTP    C4223295   5.721  10.742   6.440 -0.1590  0.0770 -0.3080
    4FIC     F123296   8.091   9.649   7.878  0.3939  0.0117 -0.2302
    4FIC     F223297   8.331   9.652   7.749  0.4485  0.3066 -0.1221
    4FIC     O123298   7.772   9.877   7.505  0.3198 -0.2024 -0.2978
    4FIC     N523299   8.448   9.820   7.299  0.4745  0.5782 -0.0150
    4FIC     N623300   8.151   9.997   7.033  0.4058  0.3514 -0.0899
    4FIC    C1923301   7.888   9.961   7.249  0.3459  0.0034 -0.2189
    4FIC    C2023302   7.959   9.904   7.348  0.3623  0.0458 -0.2059
    4FIC    C2123303   7.892   9.863   7.477  0.3474 -0.0665 -0.2489
    4FIC    C2223304   7.997   9.804   7.562  0.3718  0.0165 -0.2213
    4FIC    C2323305   7.983   9.752   7.690  0.3688 -0.0403 -0.2443
    4FIC    C2423306   8.097   9.702   7.751  0.3951  0.0601 -0.2100
    4FIC    C2523307   8.221   9.704   7.685  0.4232  0.2120 -0.1541
    4FIC    C2623308   8.235   9.755   7.556  0.4263  0.2692 -0.1310
    4FIC    C2723309   8.121   9.807   7.493  0.3998  0.1690 -0.1650
    4FIC    C2823310   8.102   9.868   7.359  0.3953  0.1936 -0.1535
    4FIC    C2923311   8.200   9.888   7.264  0.4172  0.3271 -0.1038
    4FIC    C3023312   8.336   9.850   7.284  0.4487  0.4644 -0.0552
    4FIC    C3123313   8.172   9.948   7.138  0.4106  0.3395 -0.0964
    5FIC     F123314   6.082   9.690   7.983  0.7341 -0.0596  0.4610
    5FIC     F223315   5.940   9.901   8.081 -0.0118 -0.2916 -0.1032
    5FIC     O123316   6.392   9.939   7.615  0.7702  0.2382  0.6914
    5FIC     N523317   5.957  10.380   7.960 -1.0582 -0.4132 -0.7501
    5FIC     N623318   6.227  10.532   7.652 -0.8796 -0.1333 -0.4562
    5FIC    C1923319   6.366  10.228   7.578  0.0704  0.1225  0.2342
    5FIC    C2023320   6.294  10.157   7.666  0.0906  0.0565  0.1984
    5FIC    C2123321   6.313  10.009   7.680  0.4606  0.1228  0.4437
    5FIC    C2223322   6.219   9.964   7.784  0.3822  0.0241  0.3315
    5FIC    C2323323   6.201   9.834   7.831  0.6375  0.0396  0.4796
    5FIC    C2423324   6.106   9.816   7.931  0.4972 -0.0681  0.3277
    5FIC    C2523325   6.033   9.924   7.982  0.1127 -0.1876  0.0372
    5FIC    C2623326   6.051  10.054   7.935 -0.1436 -0.2038 -0.1118
    5FIC    C2723327   6.146  10.075   7.834 -0.0066 -0.0958  0.0381
    5FIC    C2823328   6.189  10.198   7.764 -0.2012 -0.0803 -0.0552
    5FIC    C2923329   6.141  10.325   7.785 -0.5794 -0.1755 -0.3252
    5FIC    C3023330   6.040  10.355   7.881 -0.8413 -0.3054 -0.5579
    5FIC    C3123331   6.189  10.438   7.712 -0.7424 -0.1516 -0.3958
    1BTD     S223332   4.146   2.494   3.119  0.1035  0.3882  0.5530
    1BTD     N123333   4.216   2.338   3.174  0.0955  0.4202  0.6541
    1BTD     N223334   3.975   2.439   3.134  0.1073  0.2888  0.2449
    1BTD     N323335   3.755   2.046   3.264  0.1012  0.1442 -0.2006
    1BTD     N423336   4.052   1.921   3.314  0.0865  0.3060  0.3037
    1BTD     C523337   4.127   2.122   3.246  0.0911  0.3586  0.4651
    1BTD     C623338   4.114   2.257   3.200  0.0963  0.3583  0.4629
    1BTD     C723339   3.980   2.314   3.177  0.1028  0.2848  0.2338
    1BTD     C823340   3.864   2.232   3.202  0.1040  0.2153  0.0184
    1BTD    C1523341   3.881   2.100   3.248  0.0987  0.2183  0.0291
    1BTD    C1623342   4.011   2.046   3.270  0.0923  0.2891  0.2498
    1BTD    C4323343   3.977   1.789   3.304 -0.9760  0.7880 -1.0434
    1BTD    C4423344   3.993   1.691   3.175 -1.3004 -0.2059 -0.5980
    1BTD    C4523345   3.982   1.557   3.206  0.7578  1.3299  0.2116
    1BTD    C4623346   3.867   1.483   3.279  0.6254 -0.2208  0.5280
    1BTD    C4723347   3.942   1.708   3.037 -0.0023  0.8051  1.5045
    1BTD    C4823348   3.994   1.831   2.955  0.2198  1.0835 -0.3433
    1BTD    C4923349   4.137   1.864   2.943 -0.3606  0.4276 -1.0802
    1BTD    C5023350   4.245   1.748   2.909 -0.4810 -0.9273  0.9853
    1BTD    C7523351   3.703   1.918   3.317 -0.7713 -1.1187  0.8093
    1BTD    C7623352   3.656   1.942   3.465 -1.6741  0.7288 -0.2186
    1BTD    C7723353   3.533   1.864   3.514 -0.7804  1.0301 -0.0317
    1BTD    C7823354   3.541   1.711   3.493 -0.2228  0.1995  0.7738
    1BTD    C7923355   3.751   1.991   3.573 -0.5915 -0.0780  0.6441
    1BTD    C8023356   3.898   1.955   3.607 -0.0029  0.1055  0.0196
    1BTD    C8123357   3.923   1.996   3.756 -0.4311 -0.9711 -0.3015
    1BTD    C8223358   3.882   1.905   3.871 -0.6111  0.4279 -0.2294
    2TTP     S123359   4.422   2.030   3.234  0.2312 -0.0585 -0.5509
    2TTP     S523360   4.316   1.650   3.403  0.4311  0.1621  0.0743
    2TTP     C123361   4.497   1.656   3.384  0.3946  0.0648 -0.3250
    2TTP     C223362   4.540   1.774   3.331  0.3307 -0.0091 -0.5416
    2TTP     C323363   4.432   1.864   3.303  0.3083  0.0086 -0.4001
    2TTP     C423364   4.241   2.024   3.253  0.2676  0.0389 -0.1516
    2TTP    C1723365   4.198   1.906   3.306  0.3316  0.1128  0.0649
    2TTP    C1823366   4.306   1.816   3.334  0.3539  0.0951 -0.0766
    2TTP    C3223367   4.689   1.814   3.313  1.2417 -0.2087  0.7476
    2TTP    C3323368   4.725   1.846   3.164  0.3937 -0.4875  0.2109
    2TTP    C3423369   4.650   1.792   3.049  0.7159  1.6747 -0.7577
    2TTP    C3523370   4.695   1.793   2.897 -0.3310  1.4725 -0.6639
    2TTP    C3623371   4.760   1.917   2.836  0.2473 -0.0297 -0.4386
    2TTP    C3723372   4.879   1.994   2.906  0.2604 -0.7037  0.4586
    2TTP    C3823373   4.948   2.081   2.803  1.4168 -0.2683 -0.0423
    2TTP    C3923374   5.091   2.118   2.851  0.8372 -0.2338 -0.4042
    2TTP    C4023375   5.185   2.175   2.748  0.6370  0.4868  0.8327
    2TTP    C4123376   5.319   2.228   2.798 -0.6839 -1.6253  1.0745
    2TTP    C4223377   5.410   2.270   2.678 -0.0190 -0.9202 -1.3274
    3TTP     S123378   3.604   2.386   3.139 -0.2650  0.1725  0.1891
    3TTP     S523379   3.387   2.022   3.214 -0.3425  0.1151 -0.3113
    3TTP     C123380   3.270   2.149   3.159 -0.3411  0.2667  0.0334
    3TTP     C223381   3.330   2.269   3.133 -0.3170  0.2934  0.2082
    3TTP     C323382   3.471   2.265   3.155 -0.2990  0.1950  0.0763
    3TTP     C423383   3.722   2.258   3.194 -0.2665  0.0208 -0.1557
    3TTP    C1723384   3.662   2.138   3.220 -0.2906 -0.0058 -0.3304
    3TTP    C1823385   3.521   2.143   3.198 -0.3087  0.0925 -0.1985
    3TTP    C3223386   3.272   2.398   3.111 -0.5538 -1.0919 -0.2707
    3TTP    C3323387   3.220   2.491   3.234 -0.6298 -1.2790  1.3020
    3TTP    C3423388   3.217   2.464   3.386  0.9066  1.0381  0.6289
    3TTP    C3523389   3.136   2.332   3.427  0.1839 -0.0354 -0.7941
    3TTP    C3623390   3.072   2.356   3.552  0.6590 -0.9883 -0.5061
    3TTP    C3723391   2.999   2.239   3.625 -1.8319  1.2101  0.6449
    3TTP    C3823392   3.084   2.099   3.633 -0.6076 -1.5171  0.5473
    3TTP    C3923393   2.995   2.005   3.715 -0.4679 -0.3160 -0.9721
    3TTP    C4023394   2.858   1.957   3.664  0.7852  0.0457  0.1559
    3TTP    C4123395   2.759   1.921   3.769  1.7979  0.1202 -0.6802
    3TTP    C4223396   2.773   1.800   3.872  0.0715 -0.1708  1.0614
    4FIC     F123397   4.434   0.868   3.665 -0.2880  0.1481 -0.1431
    4FIC     F223398   4.702   0.875   3.712 -0.2972 -0.0808 -0.0529
    4FIC     O123399   4.355   1.357   3.447  0.2105  0.1997 -0.2104
    4FIC     N523400   5.031   1.234   3.624  0.0448 -0.3730  0.0287
    4FIC     N623401   4.915   1.615   3.443  0.4361 -0.2866 -0.0420
    4FIC    C1923402   4.583   1.537   3.414  0.3785 -0.0006 -0.1482
    4FIC    C2023403   4.592   1.414   3.467  0.2537 -0.0046 -0.1348
    4FIC    C2123404   4.470   1.327   3.481  0.1733  0.1020 -0.1688
    4FIC    C2223405   4.516   1.201   3.542  0.0430  0.0674 -0.1429
    4FIC    C2323406   4.439   1.089   3.574 -0.0645  0.1367 -0.1598
    4FIC    C2423407   4.504   0.981   3.631 -0.1778  0.0846 -0.1287
    4FIC    C2523408   4.642   0.985   3.655 -0.1823 -0.0334 -0.0823
    4FIC    C2623409   4.719   1.096   3.623 -0.0753 -0.1031 -0.0652
    4FIC    C2723410   4.655   1.206   3.565  0.0401 -0.0518 -0.0962
    4FIC    C2823411   4.708   1.338   3.520  0.1694 -0.1008 -0.0893
    4FIC    C2923412   4.838   1.380   3.527  0.2043 -0.2135 -0.0486
    4FIC    C3023413   4.944   1.300   3.580  0.1163 -0.3009 -0.0062
    4FIC    C3123414   4.880   1.509   3.481  0.3316 -0.2531 -0.0452
    5FIC     F123415   2.777   1.500   3.146 -0.1882  0.0159  0.0039
    5FIC     F223416   2.566   1.666   3.100 -0.1388  0.0941  0.0590
    5FIC     O123417   3.185   1.855   3.162 -0.0109 -0.1687 -0.4070
    5FIC     N523418   2.555   2.158   3.045  0.0588  0.0752 -0.1549
    5FIC     N623419   2.916   2.401   3.067  0.1872 -0.0848 -0.4871
    5FIC    C1923420   3.129   2.139   3.124  0.0993 -0.1595 -0.5005
    5FIC    C2023421   3.035   2.044   3.121  0.0528 -0.1161 -0.3992
    5FIC    C2123422   3.071   1.899   3.142 -0.0024 -0.1242 -0.3569
    5FIC    C2223423   2.946   1.823   3.134 -0.0439 -0.0690 -0.2451
    5FIC    C2323424   2.929   1.685   3.146 -0.1007 -0.0556 -0.1731
    5FIC    C2423425   2.800   1.635   3.135 -0.1317 -0.0003 -0.0712
    5FIC    C2523426   2.692   1.721   3.111 -0.1062  0.0400 -0.0432
    5FIC    C2623427   2.708   1.858   3.098 -0.0494  0.0269 -0.1146
    5FIC    C2723428   2.837   1.911   3.110 -0.0173 -0.0288 -0.2180
    5FIC    C2823429   2.888   2.050   3.101  0.0430 -0.0563 -0.3116
    5FIC    C2923430   2.813   2.163   3.079  0.0823 -0.0309 -0.3161
    5FIC    C3023431   2.671   2.160   3.060  0.0692  0.0273 -0.2274
    5FIC    C3123432   2.870   2.294   3.072  0.1398 -0.0607 -0.4101
    1BTD     S223433   7.837   7.915   6.259  0.4221 -0.1149  0.6678
    1BTD     N123434   7.941   7.903   6.113  0.0230 -0.0485  0.3757
    1BTD     N223435   7.924   8.056   6.328  0.5988 -0.1338  0.4847
    1BTD     N323436   8.289   8.324   6.204  0.2377 -0.0525 -0.4158
    1BTD     N423437   8.310   8.136   5.939 -0.4716  0.0529 -0.5500
    1BTD     C523438   8.133   8.027   6.025 -0.2265  0.0031 -0.1061
    1BTD     C623439   8.030   8.001   6.122  0.0410 -0.0441  0.1676
    1BTD     C723440   8.021   8.086   6.243  0.3631 -0.0916  0.2286
    1BTD     C823441   8.114   8.194   6.260  0.4013 -0.0899  0.0129
    1BTD    C1523442   8.213   8.216   6.162  0.1326 -0.0432 -0.2518
    1BTD    C1623443   8.223   8.133   6.046 -0.1778  0.0033 -0.3107
    1BTD    C4323444   8.454   8.154   5.961  0.2196 -0.4619  0.3876
    1BTD    C4423445   8.530   8.217   5.853 -1.1133  0.4100 -0.4876
    1BTD    C4523446   8.450   8.335   5.780 -0.8980  0.2251  0.1086
    1BTD    C4623447   8.503   8.413   5.656 -0.4847  0.6182  0.6744
    1BTD    C4723448   8.675   8.256   5.893 -0.2037 -0.3453 -0.4295
    1BTD    C4823449   8.713   8.342   6.007 -1.3417 -1.0693  0.3865
    1BTD    C4923450   8.737   8.308   6.161  0.2211 -0.2617 -0.2094
    1BTD    C5023451   8.750   8.163   6.201  0.4901  1.1890  0.5514
    1BTD    C7523452   8.358   8.433   6.134 -2.5398  0.0438 -0.0420
    1BTD    C7623453   8.256   8.539   6.078 -0.8161  0.2669  1.6168
    1BTD    C7723454   8.219   8.513   5.940 -0.0184 -1.4341  0.2074
    1BTD    C7823455   8.144   8.618   5.844 -0.9965  1.5006 -0.2566
    1BTD    C7923456   8.173   8.626   6.165  1.2541 -0.3596 -1.3662
    1BTD    C8023457   8.246   8.735   6.254  0.1154  0.2312 -0.1399
    1BTD    C8123458   8.170   8.751   6.388 -0.5060 -0.1436  1.1106
    1BTD    C8223459   8.043   8.818   6.392  0.2856 -0.1055 -0.5586
    2TTP     S123460   8.120   7.822   5.798 -0.4234  0.1192 -0.0070
    2TTP     S523461   8.440   8.030   5.598  0.6552 -0.8481  0.6883
    2TTP     C123462   8.389   7.888   5.495  0.5146 -0.7511  0.6238
    2TTP     C223463   8.288   7.816   5.551  0.1738 -0.4468  0.4052
    2TTP     C323464   8.246   7.869   5.677  0.0107 -0.2791  0.2807
    2TTP     C423465   8.171   7.963   5.901 -0.2828  0.0223  0.0576
    2TTP    C1723466   8.272   8.036   5.845  0.0583 -0.2817  0.2761
    2TTP    C1823467   8.314   7.982   5.719  0.2213 -0.4499  0.4004
    2TTP    C3223468   8.224   7.685   5.498 -1.0995 -0.4231  0.6264
    2TTP    C3323469   8.268   7.551   5.556 -0.4782  0.1604  1.1767
    2TTP    C3423470   8.418   7.505   5.547 -0.2220  1.5119  0.2573
    2TTP    C3523471   8.508   7.498   5.669  1.2078 -0.6899 -0.8644
    2TTP    C3623472   8.496   7.613   5.763 -1.0888  0.2403 -0.0344
    2TTP    C3723473   8.625   7.642   5.847 -0.0650 -0.8283 -1.4452
    2TTP    C3823474   8.744   7.691   5.761  0.1301  0.4836  1.5158
    2TTP    C3923475   8.792   7.812   5.842 -0.5282  1.2237  2.0408
    2TTP    C4023476   8.907   7.874   5.749  0.9204 -0.0856  0.9927
    2TTP    C4123477   8.879   8.020   5.703 -0.6533 -0.1115 -0.4674
    2TTP    C4223478   8.980   8.077   5.600  2.2052  0.2581 -1.3541
    3TTP     S123479   8.074   8.284   6.526  0.0289 -0.0668 -0.1788
    3TTP     S523480   8.448   8.495   6.518 -0.0226  0.0324  0.0308
    3TTP     C123481   8.397   8.475   6.691 -0.1201  0.0296  0.0019
    3TTP     C223482   8.278   8.408   6.704 -0.1106 -0.0010 -0.0647
    3TTP     C323483   8.224   8.371   6.578 -0.0248 -0.0238 -0.0951
    3TTP     C423484   8.125   8.304   6.353  0.1268 -0.0641 -0.1498
    3TTP    C1723485   8.244   8.370   6.340  0.1169 -0.0338 -0.0832
    3TTP    C1823486   8.298   8.408   6.467  0.0317 -0.0107 -0.0529
    3TTP    C3223487   8.182   8.387   6.833 -0.2695 -0.1719  0.8241
    3TTP    C3323488   8.034   8.337   6.841 -0.6280  0.8505 -0.3953
    3TTP    C3423489   7.963   8.406   6.956 -0.3515 -0.5981 -0.6248
    3TTP    C3523490   7.828   8.358   6.965  0.7357  0.0498  1.0629
    3TTP    C3623491   7.706   8.437   7.041  0.4940 -0.9451  0.5326
    3TTP    C3723492   7.614   8.344   7.115  0.0987  0.6111 -0.4594
    3TTP    C3823493   7.524   8.408   7.225 -1.7407 -0.4843  0.0575
    3TTP    C3923494   7.476   8.311   7.320 -1.0123  0.7829 -0.9341
    3TTP    C4023495   7.370   8.343   7.429  0.5096 -0.8473  0.4149
    3TTP    C4123496   7.399   8.332   7.583 -1.1804 -0.2429 -1.3209
    3TTP    C4223497   7.550   8.369   7.618 -0.3244  0.6482 -0.1627
    4FIC     F123498   9.150   7.928   5.206  0.0038  0.2357 -0.0829
    4FIC     F223499   9.052   7.908   4.953  0.0398  0.3591 -0.1066
    4FIC     O123500   8.695   7.881   5.496 -0.0589  0.2713 -0.1749
    4FIC     N523501   8.587   7.847   4.796  0.0472  0.5621 -0.2064
    4FIC     N623502   8.251   7.815   5.074 -0.0091  0.5653 -0.2737
    4FIC    C1923503   8.440   7.846   5.358 -0.0469  0.4020 -0.2304
    4FIC    C2023504   8.558   7.859   5.295 -0.0322  0.3883 -0.2062
    4FIC    C2123505   8.685   7.876   5.373 -0.0398  0.3198 -0.1786
    4FIC    C2223506   8.794   7.887   5.274 -0.0203  0.3220 -0.1568
    4FIC    C2323507   8.930   7.904   5.299 -0.0191  0.2705 -0.1280
    4FIC    C2423508   9.015   7.911   5.189  0.0014  0.2844 -0.1115
    4FIC    C2523509   8.964   7.901   5.059  0.0202  0.3479 -0.1239
    4FIC    C2623510   8.828   7.884   5.033  0.0191  0.3997 -0.1527
    4FIC    C2723511   8.741   7.876   5.143 -0.0017  0.3866 -0.1696
    4FIC    C2823512   8.594   7.859   5.151 -0.0083  0.4297 -0.2006
    4FIC    C2923513   8.508   7.845   5.044  0.0052  0.4957 -0.2198
    4FIC    C3023514   8.552   7.846   4.908  0.0281  0.5320 -0.2123
    4FIC    C3123515   8.367   7.829   5.061 -0.0029  0.5336 -0.2494
    5FIC     F123516   9.067   8.924   6.846  0.1800 -0.0448 -0.3302
    5FIC     F223517   9.052   8.844   7.106  0.2341 -0.1502 -0.3597
    5FIC     O123518   8.639   8.669   6.634 -0.0775  0.3335 -0.2688
    5FIC     N523519   8.725   8.546   7.328  0.1280 -0.0319 -0.3582
    5FIC     N623520   8.394   8.362   7.110 -0.0844  0.2849 -0.3042
    5FIC    C1923521   8.473   8.501   6.807 -0.1174  0.3673 -0.2751
    5FIC    C2023522   8.581   8.569   6.850 -0.0546  0.2761 -0.2894
    5FIC    C2123523   8.662   8.653   6.755 -0.0381  0.2651 -0.2850
    5FIC    C2223524   8.771   8.712   6.834  0.0341  0.1569 -0.3036
    5FIC    C2323525   8.872   8.797   6.790  0.0722  0.1099 -0.3070
    5FIC    C2423526   8.965   8.840   6.883  0.1395  0.0066 -0.3259
    5FIC    C2523527   8.957   8.798   7.017  0.1671 -0.0475 -0.3411
    5FIC    C2623528   8.857   8.713   7.062  0.1292 -0.0012 -0.3380
    5FIC    C2723529   8.762   8.669   6.969  0.0610  0.1035 -0.3188
    5FIC    C2823530   8.644   8.579   6.984  0.0079  0.1745 -0.3107
    5FIC    C2923531   8.603   8.518   7.099  0.0148  0.1507 -0.3207
    5FIC    C3023532   8.670   8.533   7.224  0.0768  0.0503 -0.3413
    5FIC    C3123533   8.488   8.433   7.104 -0.0398  0.2248 -0.3117
    1BTD     S223534   4.613   5.512   0.168 -0.0072  0.2686 -0.1012
    1BTD     N123535   4.665   5.445   0.010 -0.2602  0.4863 -0.2782
    1BTD     N223536   4.758   5.616   0.188  0.2383 -0.0958  0.0264
    1BTD     N323537   5.148   5.706  -0.058  0.2822 -0.4452 -0.0331
    1BTD     N423538   5.033   5.495  -0.277 -0.3319  0.2722 -0.4084
    1BTD     C523539   4.858   5.474  -0.137 -0.2903  0.3659 -0.3417
    1BTD     C623540   4.782   5.500  -0.019 -0.1539  0.2865 -0.2353
    1BTD     C723541   4.834   5.596   0.081  0.1251 -0.0392 -0.0648
    1BTD     C823542   4.961   5.661   0.057  0.2539 -0.2697 -0.0092
    1BTD    C1523543   5.032   5.631  -0.060  0.1128 -0.1813 -0.1174
    1BTD    C1623544   4.982   5.539  -0.157 -0.1562  0.1327 -0.2820
    1BTD    C4323545   5.152   5.408  -0.287  1.4661 -0.0265 -0.9617
    1BTD    C4423546   5.197   5.305  -0.188  0.9494  1.1332 -0.4413
    1BTD    C4523547   5.300   5.211  -0.236 -1.2780 -0.8442 -0.3984
    1BTD    C4623548   5.322   5.065  -0.206 -0.0129 -0.1507 -0.3400
    1BTD    C4723549   5.217   5.350  -0.051  0.5115 -0.4876 -0.4225
    1BTD    C4823550   5.135   5.352   0.083 -0.8146  0.5743 -0.0387
    1BTD    C4923551   5.106   5.209   0.133 -0.9075 -0.3770  0.4659
    1BTD    C5023552   4.981   5.208   0.234 -0.1440  0.3078 -0.0655
    1BTD    C7523553   5.265   5.680  -0.136 -2.1365  1.6309 -0.3537
    1BTD    C7623554   5.363   5.772  -0.209 -0.9009 -0.0884  0.6091
    1BTD    C7723555   5.284   5.894  -0.269  0.6139 -0.0875  0.6971
    1BTD    C7823556   5.213   5.886  -0.403 -0.6537  0.3608  0.1634
    1BTD    C7923557   5.456   5.702  -0.309 -0.5485 -0.3285 -0.0942
    1BTD    C8023558   5.538   5.794  -0.405  0.1801  0.7850 -1.0512
    1BTD    C8123559   5.644   5.730  -0.483  0.2277  0.4896  0.2276
    1BTD    C8223560   5.640   5.620  -0.593  0.3535 -0.8434 -0.8737
    2TTP     S123561   4.670   5.366  -0.367 -0.1098  0.0771 -0.7938
    2TTP     S523562   5.013   5.344  -0.625  0.3208 -1.3355 -0.1204
    2TTP     C123563   4.865   5.296  -0.720  0.2862 -0.6097 -0.4435
    2TTP     C223564   4.751   5.300  -0.646  0.1512 -0.1308 -0.6700
    2TTP     C323565   4.775   5.341  -0.511  0.0701 -0.3196 -0.5975
    2TTP     C423566   4.818   5.414  -0.271 -0.0751 -0.6487 -0.4706
    2TTP    C1723567   4.932   5.410  -0.346  0.0597 -1.1277 -0.2439
    2TTP    C1823568   4.907   5.369  -0.480  0.1407 -0.9389 -0.3171
    2TTP    C3223569   4.597   5.288  -0.690  0.6752  0.6396  0.1528
    2TTP    C3323570   4.480   5.379  -0.652  0.4433  0.1419  0.1545
    2TTP    C3423571   4.517   5.543  -0.655  0.2574  0.5234 -0.0458
    2TTP    C3523572   4.580   5.616  -0.760 -1.1660 -0.9272  0.8304
    2TTP    C3623573   4.594   5.775  -0.757  0.4636  0.3703 -0.3861
    2TTP    C3723574   4.722   5.830  -0.683  1.7336 -0.2229  0.7128
    2TTP    C3823575   4.679   5.942  -0.592  1.9767 -1.6486 -0.5115
    2TTP    C3923576   4.793   6.006  -0.519 -0.0952  0.5326  0.7772
    2TTP    C4023577   4.904   5.940  -0.429  0.6916 -0.3344  0.3200
    2TTP    C4123578   4.838   5.862  -0.315 -0.8033  0.7554 -0.1815
    2TTP    C4223579   4.739   5.937  -0.218  0.5008  0.0055  0.1028
    3TTP     S123580   5.012   5.852   0.287  0.0492  0.1701  0.4638
    3TTP     S523581   5.366   5.979   0.078  0.0530  0.2617  0.5253
    3TTP     C123582   5.353   6.073   0.233  0.2560 -0.0773  0.7493
    3TTP     C223583   5.243   6.040   0.307  0.2667 -0.1255  0.7436
    3TTP     C323584   5.165   5.938   0.243  0.1152  0.1036  0.5620
    3TTP     C423585   5.024   5.758   0.132 -0.1537  0.5093  0.2398
    3TTP    C1723586   5.134   5.792   0.058 -0.1644  0.5576  0.2455
    3TTP    C1823587   5.213   5.893   0.122 -0.0128  0.3285  0.4271
    3TTP    C3223588   5.206   6.129   0.440 -1.1029  0.6872  1.4761
    3TTP    C3323589   5.101   6.100   0.539  0.3780 -0.4202  0.5439
    3TTP    C3423590   5.118   5.970   0.617 -1.1902 -0.8716  0.8753
    3TTP    C3523591   5.010   5.940   0.727 -0.6196  0.3306  0.0538
    3TTP    C3623592   5.029   5.989   0.865  0.2253 -1.2763  0.5046
    3TTP    C3723593   4.968   5.913   0.981 -0.5803 -0.0398  0.4279
    3TTP    C3823594   5.050   5.819   1.048  0.8263 -0.2376 -0.9881
    3TTP    C3923595   5.021   5.793   1.190  0.8322  0.4292 -0.0203
    3TTP    C4023596   4.884   5.730   1.199 -0.3043 -0.4052  1.2149
    3TTP    C4123597   4.887   5.629   1.295  1.5410  1.0319 -0.0258
    3TTP    C4223598   4.774   5.600   1.402 -1.4054 -0.5120  0.1116
    4FIC     F123599   5.423   4.921  -1.190  0.0565  0.0725 -0.3612
    4FIC     F223600   5.255   4.954  -1.401 -0.1295 -0.2066 -0.2570
    4FIC     O123601   5.126   5.132  -0.789  0.0888 -0.1177 -0.2375
    4FIC     N523602   4.802   5.151  -1.420 -0.3738 -0.7433 -0.0196
    4FIC     N623603   4.603   5.309  -1.064 -0.3111 -0.8355  0.0560
    4FIC    C1923604   4.860   5.238  -0.849 -0.0774 -0.4517 -0.0940
    4FIC    C2023605   4.941   5.183  -0.941 -0.0782 -0.3932 -0.1295
    4FIC    C2123606   5.077   5.131  -0.903  0.0101 -0.2198 -0.2027
    4FIC    C2223607   5.138   5.080  -1.027 -0.0154 -0.1963 -0.2253
    4FIC    C2323608   5.264   5.021  -1.041  0.0429 -0.0554 -0.2897
    4FIC    C2423609   5.301   4.980  -1.168  0.0027 -0.0625 -0.2990
    4FIC    C2523610   5.214   4.997  -1.277 -0.0931 -0.2064 -0.2456
    4FIC    C2623611   5.088   5.055  -1.263 -0.1519 -0.3473 -0.1812
    4FIC    C2723612   5.050   5.097  -1.135 -0.1123 -0.3426 -0.1709
    4FIC    C2823613   4.925   5.162  -1.087 -0.1549 -0.4693 -0.1094
    4FIC    C2923614   4.815   5.195  -1.163 -0.2472 -0.6268 -0.0465
    4FIC    C3023615   4.808   5.171  -1.304 -0.3165 -0.6903 -0.0319
    4FIC    C3123616   4.699   5.258  -1.108 -0.2818 -0.7408  0.0095
    5FIC     F123617   5.914   6.544  -0.134 -0.2102  0.3479 -0.0660
    5FIC     F223618   5.966   6.659   0.107  0.3783 -0.1729  0.0591
    5FIC     O123619   5.526   6.192   0.003 -0.3510  0.5257 -0.0074
    5FIC     N523620   5.765   6.573   0.551  1.1238 -0.7945  0.2814
    5FIC     N623621   5.451   6.275   0.609  0.8951 -0.5507  0.3021
    5FIC    C1923622   5.438   6.177   0.281  0.1613  0.0914  0.1333
    5FIC    C2023623   5.533   6.261   0.238  0.1736  0.0670  0.1136
    5FIC    C2123624   5.573   6.263   0.093 -0.0992  0.2993  0.0403
    5FIC    C2223625   5.679   6.365   0.080 -0.0081  0.2050  0.0367
    5FIC    C2323626   5.746   6.403  -0.036 -0.1847  0.3493 -0.0207
    5FIC    C2423627   5.843   6.502  -0.024 -0.0487  0.2170 -0.0117
    5FIC    C2523628   5.869   6.561   0.101  0.2545 -0.0510  0.0530
    5FIC    C2623629   5.802   6.524   0.216  0.4319 -0.1963  0.1105
    5FIC    C2723630   5.704   6.424   0.206  0.2981 -0.0659  0.1023
    5FIC    C2823631   5.616   6.362   0.308  0.4219 -0.1613  0.1522
    5FIC    C2923632   5.612   6.393   0.442  0.7114 -0.4131  0.2209
    5FIC    C3023633   5.696   6.492   0.501  0.9372 -0.6219  0.2539
    5FIC    C3123634   5.523   6.328   0.533  0.8110 -0.4873  0.2652
    1BTD     S223635   2.717   9.562   3.913  0.5600 -0.0465 -0.1356
    1BTD     N123636   2.706   9.413   4.014  0.4163 -0.0308 -0.1281
    1BTD     N223637   2.652   9.484   3.765  0.2304  0.0770 -0.0575
    1BTD     N323638   2.499   9.057   3.644 -0.7013  0.3583  0.1149
    1BTD     N423639   2.565   8.970   3.951 -0.4723  0.2253  0.0281
    1BTD     C523640   2.632   9.182   3.978 -0.0504  0.1044 -0.0454
    1BTD     C623641   2.657   9.318   3.936  0.1439  0.0613 -0.0708
    1BTD     C723642   2.627   9.357   3.796  0.0399  0.1218 -0.0314
    1BTD     C823643   2.573   9.260   3.706 -0.2533  0.2224  0.0314
    1BTD    C1523644   2.550   9.128   3.751 -0.4359  0.2615  0.0542
    1BTD    C1623645   2.579   9.090   3.885 -0.3356  0.2033  0.0163
    1BTD    C4323646   2.444   8.895   3.924  0.0513 -1.3051  0.2216
    1BTD    C4423647   2.372   8.774   3.981  0.5024 -0.7025 -0.2231
    1BTD    C4523648   2.475   8.660   3.942  0.8882  1.2634 -1.1213
    1BTD    C4623649   2.391   8.521   3.941  0.0276 -0.3407  1.5714
    1BTD    C4723650   2.315   8.776   4.123  0.2447  1.2000 -0.9152
    1BTD    C4823651   2.205   8.861   4.170 -0.2552 -0.7527 -0.4764
    1BTD    C4923652   2.079   8.850   4.098 -0.0520  1.4644  0.1236
    1BTD    C5023653   1.974   8.828   4.207 -0.0272  0.6495  1.1245
    1BTD    C7523654   2.547   8.929   3.600 -1.5985 -0.6559 -1.1817
    1BTD    C7623655   2.461   8.809   3.560 -0.5657 -0.3328  0.0069
    1BTD    C7723656   2.527   8.677   3.513  1.2769  0.0135  0.0777
    1BTD    C7823657   2.559   8.671   3.353 -0.4765 -1.1405  0.3125
    1BTD    C7923658   2.326   8.791   3.634 -0.5387 -0.5000  0.6171
    1BTD    C8023659   2.199   8.710   3.563 -0.0333 -0.5969 -0.1041
    1BTD    C8123660   2.182   8.570   3.517 -0.2494  1.3298 -0.1287
    1BTD    C8223661   2.239   8.442   3.598  0.6514 -0.9465 -0.2240
    2TTP     S123662   2.696   9.146   4.268  0.0558  0.0555 -0.6809
    2TTP     S523663   2.633   8.723   4.221  0.8438 -0.0937 -0.4280
    2TTP     C123664   2.691   8.754   4.391  0.6770  0.1295 -0.4111
    2TTP     C223665   2.714   8.887   4.415  0.4238  0.1886 -0.4883
    2TTP     C323666   2.686   8.968   4.301  0.3525  0.0598 -0.5634
    2TTP     C423667   2.638   9.114   4.099  0.2227 -0.1678 -0.6979
    2TTP    C1723668   2.615   8.982   4.074  0.4759 -0.2274 -0.6205
    2TTP    C1823669   2.642   8.900   4.189  0.5472 -0.0982 -0.5454
    2TTP    C3223670   2.743   8.964   4.544 -0.8271 -0.5292 -0.1380
    2TTP    C3323671   2.876   8.966   4.587  0.0323  0.1802 -0.3769
    2TTP    C3423672   2.920   9.054   4.697 -0.4537  0.7835  0.9695
    2TTP    C3523673   2.989   9.190   4.648 -1.4528  0.6870 -0.0277
    2TTP    C3623674   2.956   9.312   4.721  0.4771 -0.2345 -1.2358
    2TTP    C3723675   2.915   9.313   4.869  0.2346 -0.7443 -2.0811
    2TTP    C3823676   3.034   9.291   4.982  0.5297  0.3175  1.0125
    2TTP    C3923677   3.106   9.425   5.003 -1.4599  1.0134  0.9779
    2TTP    C4023678   3.232   9.446   5.097  0.5238  1.1718 -0.0840
    2TTP    C4123679   3.359   9.360   5.107 -0.4304 -0.0998  0.0430
    2TTP    C4223680   3.446   9.373   5.232 -0.9582 -1.7131  0.1837
    3TTP     S123681   2.558   9.368   3.408 -0.5755  0.2436 -0.2162
    3TTP     S523682   2.398   8.987   3.289  0.4427 -0.3088  0.1609
    3TTP     C123683   2.416   9.092   3.141 -0.0916 -0.3095  0.0936
    3TTP     C223684   2.466   9.215   3.169 -0.4376 -0.1388 -0.0268
    3TTP     C323685   2.492   9.232   3.309 -0.2931 -0.0017 -0.0702
    3TTP     C423686   2.540   9.264   3.556 -0.0411  0.2439 -0.1490
    3TTP    C1723687   2.490   9.140   3.528  0.3048  0.0738 -0.0284
    3TTP    C1823688   2.463   9.123   3.389  0.1602 -0.0639  0.0150
    3TTP    C3223689   2.489   9.328   3.072 -0.8276  0.8740 -0.4296
    3TTP    C3323690   2.399   9.448   3.089 -0.7642  0.2964 -0.4368
    3TTP    C3423691   2.361   9.569   3.015 -0.5885  0.1988 -0.5743
    3TTP    C3523692   2.466   9.679   3.002 -0.0326 -1.0975 -1.4813
    3TTP    C3623693   2.534   9.746   3.135  1.2651  1.5665 -1.0325
    3TTP    C3723694   2.583   9.889   3.107  0.5510  0.4282  0.4228
    3TTP    C3823695   2.682   9.896   2.981  1.3138 -0.0427 -1.1104
    3TTP    C3923696   2.675  10.034   2.919  0.3523  0.2151 -0.8458
    3TTP    C4023697   2.779  10.101   2.844 -0.9487 -0.2808  0.7968
    3TTP    C4123698   2.758  10.231   2.754 -0.6818 -0.9703  0.5792
    3TTP    C4223699   2.836  10.255   2.625  1.0069 -0.2432  0.6775
    4FIC     F123700   2.393   7.998   4.520  0.0890 -0.1594  0.2391
    4FIC     F223701   2.558   7.977   4.736  0.2494 -0.0341  0.1284
    4FIC     O123702   2.503   8.501   4.354 -0.0798 -0.2329 -0.0982
    4FIC     N523703   2.874   8.307   4.927  0.3599  0.0939 -0.2713
    4FIC     N623704   2.926   8.704   4.754  0.1956  0.0110 -0.5126
    4FIC    C1923705   2.700   8.661   4.501  0.0136 -0.1396 -0.3239
    4FIC    C2023706   2.665   8.535   4.534  0.0498 -0.1256 -0.2348
    4FIC    C2123707   2.563   8.459   4.454 -0.0024 -0.1767 -0.1214
    4FIC    C2223708   2.550   8.326   4.517  0.0563 -0.1457 -0.0442
    4FIC    C2323709   2.468   8.222   4.478  0.0372 -0.1738  0.0700
    4FIC    C2423710   2.472   8.105   4.553  0.1034 -0.1349  0.1260
    4FIC    C2523711   2.558   8.095   4.664  0.1861 -0.0702  0.0687
    4FIC    C2623712   2.640   8.199   4.704  0.2055 -0.0420 -0.0451
    4FIC    C2723713   2.637   8.318   4.629  0.1394 -0.0806 -0.1032
    4FIC    C2823714   2.711   8.445   4.644  0.1386 -0.0658 -0.2227
    4FIC    C2923715   2.804   8.475   4.741  0.2072 -0.0074 -0.3058
    4FIC    C3023716   2.842   8.382   4.843  0.2909  0.0479 -0.2865
    4FIC    C3123717   2.871   8.601   4.747  0.2005  0.0021 -0.4190
    5FIC     F123718   1.795   8.626   2.871  0.2897 -0.5298 -0.1222
    5FIC     F223719   1.861   8.699   2.617 -0.4210  0.4697 -0.0321
    5FIC     O123720   2.169   8.896   3.154  0.5617 -0.9756 -0.0552
    5FIC     N523721   2.221   8.995   2.453 -1.2491  1.5886  0.1453
    5FIC     N623722   2.501   9.192   2.726 -0.8933  1.0388  0.1794
    5FIC    C1923723   2.365   9.061   3.012 -0.0207 -0.1789  0.0548
    5FIC    C2023724   2.268   8.991   2.950 -0.0615 -0.1059  0.0343
    5FIC    C2123725   2.171   8.908   3.030  0.2509 -0.5343 -0.0226
    5FIC    C2223726   2.080   8.845   2.933  0.1144 -0.3257 -0.0317
    5FIC    C2323727   1.974   8.759   2.960  0.3049 -0.5794 -0.0784
    5FIC    C2423728   1.902   8.711   2.851  0.1178 -0.3023 -0.0773
    5FIC    C2523729   1.935   8.749   2.721 -0.2483  0.2123 -0.0309
    5FIC    C2623730   2.042   8.834   2.693 -0.4401  0.4680  0.0159
    5FIC    C2723731   2.116   8.884   2.802 -0.2553  0.1938  0.0157
    5FIC    C2823732   2.233   8.975   2.807 -0.3780  0.3495  0.0580
    5FIC    C2923733   2.296   9.033   2.700 -0.7195  0.8245  0.1094
    5FIC    C3023734   2.255   9.012   2.565 -1.0095  1.2429  0.1289
    5FIC    C3123735   2.408   9.120   2.715 -0.8132  0.9398  0.1476
    1BTD     S223736   0.376  10.017  10.336 -0.1871  0.0887 -0.0176
    1BTD     N123737   0.554  10.011  10.366 -0.3472  0.4590  1.1301
    1BTD     N223738   0.349   9.843  10.372  0.0627 -0.1905 -1.1194
    1BTD     N323739   0.614   9.476  10.497  0.2827 -0.0916 -1.2915
    1BTD     N423740   0.866   9.683  10.490 -0.2223  0.7086  1.4796
    1BTD     C523741   0.714   9.837  10.431 -0.2759  0.5796  1.2791
    1BTD     C623742   0.582   9.886  10.399 -0.2131  0.3603  0.6576
    1BTD     C723743   0.467   9.792  10.402  0.0163 -0.0031 -0.6015
    1BTD     C823744   0.490   9.654  10.437  0.1714 -0.1292 -1.1759
    1BTD    C1523745   0.621   9.611  10.468  0.1026  0.0951 -0.5323
    1BTD    C1623746   0.731   9.701  10.464 -0.1184  0.4450  0.6811
    1BTD    C4323747   0.957   9.562  10.468 -0.4370 -0.4393  1.4733
    1BTD    C4423748   1.027   9.547  10.324  2.1509  0.7849  0.3363
    1BTD    C4523749   0.942   9.495  10.199  0.6994 -0.6879  0.1123
    1BTD    C4623750   0.848   9.592  10.149  0.5786  0.9856 -0.9600
    1BTD    C4723751   1.154   9.479  10.358  0.1846  1.2932  0.7110
    1BTD    C4823752   1.185   9.330  10.381  1.7947 -0.0931  0.5109
    1BTD    C4923753   1.321   9.297  10.419 -0.2180  0.6652  0.1476
    1BTD    C5023754   1.441   9.394  10.416  1.1240  1.2300  0.2941
    1BTD    C7523755   0.708   9.414  10.597 -0.3346  0.0326 -0.6596
    1BTD    C7623756   0.694   9.278  10.660  0.4528  0.9713 -2.3149
    1BTD    C7723757   0.819   9.218  10.732 -0.1790 -0.4437 -1.5230
    1BTD    C7823758   0.859   9.302  10.875  1.2146  0.4733  0.6364
    1BTD    C7923759   0.548   9.215  10.700 -0.6024  0.1187 -0.5987
    1BTD    C8023760   0.440   9.295  10.774 -0.5936 -1.1711 -0.5560
    1BTD    C8123761   0.483   9.376  10.894 -1.0451  0.6147 -1.1405
    1BTD    C8223762   0.457   9.292  11.030  0.2461  0.5565  0.1548
    2TTP     S123763   0.937  10.051  10.374 -0.0320  0.0027  0.0452
    2TTP     S523764   1.231   9.776  10.524 -0.4214 -0.2868  0.2813
    2TTP     C123765   1.314   9.932  10.483 -0.1790 -0.4776  0.0344
    2TTP     C223766   1.228  10.027  10.434 -0.0444 -0.3991 -0.0529
    2TTP     C323767   1.094   9.979  10.428 -0.1279 -0.1860  0.0715
    2TTP     C423768   0.854   9.895  10.415 -0.2744  0.1936  0.2923
    2TTP    C1723769   0.940   9.800  10.464 -0.4089  0.1152  0.3797
    2TTP    C1823770   1.075   9.848  10.470 -0.3254 -0.0980  0.2546
    2TTP    C3223771   1.257  10.162  10.376  0.0799  0.4186  0.9202
    2TTP    C3323772   1.197  10.285  10.434  0.2216 -0.3929  0.9476
    2TTP    C3423773   1.264  10.373  10.544  0.5431 -0.2518 -1.1930
    2TTP    C3523774   1.352  10.493  10.520 -0.9598 -0.8400 -0.4303
    2TTP    C3623775   1.375  10.587  10.647 -1.8443  0.4945 -0.2532
    2TTP    C3723776   1.517  10.565  10.697  0.2212  0.8048  0.5290
    2TTP    C3823777   1.538  10.495  10.829 -0.8093  0.6316  0.6703
    2TTP    C3923778   1.685  10.428  10.810  0.2982 -0.1190  0.1333
    2TTP    C4023779   1.769  10.409  10.926 -1.4135 -1.0456  0.4566
    2TTP    C4123780   1.843  10.528  10.989 -1.5579 -0.2196  0.4764
    2TTP    C4223781   1.979  10.471  11.040 -1.2456  0.5708  0.1273
    3TTP     S123782   0.250   9.499  10.347 -0.3337 -0.1349  0.3842
    3TTP     S523783   0.498   9.148  10.334 -0.1195  0.0298 -0.0246
    3TTP     C123784   0.344   9.114  10.243 -0.3370 -0.1411  0.4025
    3TTP     C223785   0.259   9.221  10.242 -0.4160 -0.2024  0.5538
    3TTP     C323786   0.311   9.333  10.312 -0.3076 -0.1159  0.3381
    3TTP     C423787   0.404   9.534  10.438 -0.1162  0.0362 -0.0427
    3TTP    C1723788   0.489   9.427  10.439 -0.0372  0.0973 -0.1939
    3TTP    C1823789   0.437   9.315  10.368 -0.1457  0.0110  0.0219
    3TTP    C3223790   0.121   9.211  10.192  1.3702 -0.8158 -0.3815
    3TTP    C3323791   0.096   9.294  10.065  1.0996  1.4099 -0.8156
    3TTP    C3423792   0.129   9.269   9.918  0.5909  0.7274 -0.1223
    3TTP    C3523793   0.059   9.169   9.835  0.5235 -0.5715 -0.0358
    3TTP    C3623794  -0.092   9.185   9.807 -0.3710  0.4541  0.0734
    3TTP    C3723795  -0.192   9.082   9.865  0.4443 -0.6085 -0.4079
    3TTP    C3823796  -0.202   8.952   9.786 -1.8559 -0.0052 -0.7072
    3TTP    C3923797  -0.338   8.909   9.743  1.1834 -0.8761 -0.7901
    3TTP    C4023798  -0.330   8.784   9.677 -0.1738  0.2202 -0.4606
    3TTP    C4123799  -0.252   8.754   9.535  0.5121  0.1602 -0.1495
    3TTP    C4223800  -0.307   8.619   9.487  0.0135  0.7228  0.9649
    4FIC     F123801   1.906   9.574  10.914 -0.3789 -0.3264  0.2663
    4FIC     F223802   2.085   9.743  10.798 -0.1947 -0.5538  0.2172
    4FIC     O123803   1.445   9.737  10.681 -0.2292  0.2294  0.3588
    4FIC     N523804   2.014  10.103  10.466  0.1767 -0.4842  0.2124
    4FIC     N623805   1.618  10.197  10.308  0.2565 -0.0041  0.2944
    4FIC    C1923806   1.453   9.957  10.488 -0.0001  0.2094  0.3445
    4FIC    C2023807   1.562   9.909  10.551 -0.0450  0.0789  0.3233
    4FIC    C2123808   1.550   9.796  10.649 -0.1634  0.0987  0.3324
    4FIC    C2223809   1.686   9.769  10.699 -0.1852 -0.0668  0.3037
    4FIC    C2323810   1.725   9.673  10.791 -0.2836 -0.1099  0.3006
    4FIC    C2423811   1.860   9.666  10.823 -0.2843 -0.2748  0.2713
    4FIC    C2523812   1.952   9.754  10.763 -0.1894 -0.3917  0.2461
    4FIC    C2623813   1.914   9.850  10.671 -0.0909 -0.3493  0.2491
    4FIC    C2723814   1.778   9.858  10.637 -0.0885 -0.1833  0.2787
    4FIC    C2823815   1.705   9.948  10.544  0.0014 -0.0982  0.2894
    4FIC    C2923816   1.760  10.047  10.467  0.1074 -0.1702  0.2716
    4FIC    C3023817   1.899  10.078  10.467  0.1451 -0.3426  0.2394
    4FIC    C3123818   1.682  10.129  10.380  0.1888 -0.0784  0.2842
    5FIC     F123819   0.807   8.512   9.939  0.0798  0.1113 -0.4308
    5FIC     F223820   0.580   8.370   9.890  0.0582 -0.3378  0.8786
    5FIC     O123821   0.600   8.968  10.144  0.2863  0.5927 -1.2848
    5FIC     N523822   0.106   8.492   9.965  0.1746 -0.6409  2.1527
    5FIC     N623823  -0.010   8.877  10.135  0.3402 -0.1738  1.2214
    5FIC    C1923824   0.310   8.995  10.170  0.3391  0.3344 -0.3373
    5FIC    C2023825   0.370   8.886  10.120  0.2880  0.2310 -0.1733
    5FIC    C2123826   0.520   8.880  10.110  0.2636  0.3757 -0.6888
    5FIC    C2223827   0.553   8.748  10.052  0.2080  0.2089 -0.3455
    5FIC    C2323828   0.679   8.696  10.024  0.1697  0.2606 -0.6180
    5FIC    C2423829   0.685   8.569   9.969  0.1196  0.0731 -0.1940
    5FIC    C2523830   0.568   8.496   9.944  0.1086 -0.1584  0.4801
    5FIC    C2623831   0.442   8.547   9.972  0.1467 -0.2110  0.7553
    5FIC    C2723832   0.434   8.676  10.027  0.1976 -0.0238  0.3343
    5FIC    C2823833   0.317   8.758  10.068  0.2463 -0.0193  0.4666
    5FIC    C2923834   0.184   8.722  10.059  0.2517 -0.2103  1.0681
    5FIC    C3023835   0.142   8.595  10.007  0.2093 -0.4461  1.6625
    5FIC    C3123836   0.078   8.807  10.101  0.3004 -0.1891  1.1489
    1BTD     S223837   2.588   3.603   0.727 -0.3455 -0.0306 -0.3228
    1BTD     N123838   2.591   3.783   0.734 -0.7720 -0.0201 -0.3263
    1BTD     N223839   2.616   3.595   0.549  0.4015  0.0086 -0.2100
    1BTD     N323840   2.681   3.903   0.201  1.1533  0.1073  0.0134
    1BTD     N423841   2.650   4.135   0.428 -0.2926  0.0719 -0.1298
    1BTD     C523842   2.622   3.964   0.572 -0.5042  0.0284 -0.2220
    1BTD     C623843   2.612   3.826   0.610 -0.3572  0.0104 -0.2473
    1BTD     C723844   2.627   3.721   0.507  0.2997  0.0265 -0.1823
    1BTD     C823845   2.650   3.759   0.370  0.7766  0.0597 -0.0951
    1BTD    C1523846   2.659   3.896   0.337  0.6109  0.0763 -0.0732
    1BTD    C1623847   2.645   3.997   0.437 -0.0221  0.0608 -0.1359
    1BTD    C4323848   2.660   4.230   0.322 -0.2821 -0.6346  0.0687
    1BTD    C4423849   2.801   4.275   0.281 -0.6837  0.9153  0.0548
    1BTD    C4523850   2.910   4.157   0.259  0.0665  0.0094 -1.4245
    1BTD    C4623851   3.001   4.109   0.381  0.4031  1.2379 -0.8564
    1BTD    C4723852   2.807   4.358   0.152 -0.6407  0.2073  0.6255
    1BTD    C4823853   2.735   4.482   0.180  0.6014  0.0136 -0.0796
    1BTD    C4923854   2.759   4.583   0.061 -0.9986  0.2984 -0.5517
    1BTD    C5023855   2.705   4.567  -0.080  0.5829 -0.0068 -0.1045
    1BTD    C7523856   2.666   4.020   0.092 -0.0200  0.5952 -1.1572
    1BTD    C7623857   2.541   4.065   0.031 -0.3353 -0.8469  1.8398
    1BTD    C7723858   2.426   4.085   0.121 -0.3423 -1.0853 -1.2028
    1BTD    C7823859   2.284   4.128   0.072 -0.4213  0.0071  0.6412
    1BTD    C7923860   2.571   4.145  -0.097 -0.2241 -0.1601  0.1525
    1BTD    C8023861   2.466   4.147  -0.205 -0.0226  1.4509  0.2211
    1BTD    C8123862   2.519   4.035  -0.300 -0.1632 -0.2598 -0.0675
    1BTD    C8223863   2.422   3.968  -0.390 -0.1276 -0.0847 -1.0265
    2TTP     S123864   2.614   4.142   0.819  0.2638  0.1942  0.3529
    2TTP     S523865   2.619   4.482   0.556 -0.5078 -0.1715 -0.1435
    2TTP     C123866   2.609   4.542   0.728 -0.4920  0.0587 -0.2213
    2TTP     C223867   2.607   4.440   0.819 -0.2528  0.1851 -0.0726
    2TTP     C323868   2.613   4.311   0.757 -0.0734  0.1049  0.1081
    2TTP     C423869   2.624   4.082   0.647  0.2480 -0.0360  0.4307
    2TTP    C1723870   2.627   4.184   0.556  0.0087 -0.1625  0.2820
    2TTP    C1823871   2.620   4.313   0.618 -0.1706 -0.0821  0.1012
    2TTP    C3223872   2.639   4.466   0.963 -0.3092  0.2316 -0.2330
    2TTP    C3323873   2.792   4.465   1.013  0.3545  0.2667 -0.3038
    2TTP    C3423874   2.918   4.538   0.949  0.3742 -0.9490 -0.8187
    2TTP    C3523875   2.943   4.491   0.801  0.7553  0.3234  0.9540
    2TTP    C3623876   3.066   4.553   0.740 -1.0722 -0.2958  0.2483
    2TTP    C3723877   3.070   4.596   0.601 -0.3012 -0.6296 -0.8506
    2TTP    C3823878   3.183   4.677   0.541 -1.5216 -1.1910  0.3657
    2TTP    C3923879   3.214   4.696   0.389 -0.1930  0.6021 -0.6108
    2TTP    C4023880   3.217   4.570   0.304  1.0325 -0.8523 -0.4770
    2TTP    C4123881   3.182   4.621   0.152 -0.4237  0.4309 -1.6777
    2TTP    C4223882   3.139   4.512   0.057  0.7577 -0.2924  0.8983
    3TTP     S123883   2.684   3.506   0.192 -0.2033 -0.1392  0.0145
    3TTP     S523884   2.831   3.759  -0.123  0.5124 -1.1094 -0.4427
    3TTP     C123885   2.840   3.586  -0.178  0.4584 -1.2709  0.0383
    3TTP     C223886   2.795   3.498  -0.085  0.2342 -0.9808  0.2077
    3TTP     C323887   2.752   3.563   0.035  0.0969 -0.6205 -0.0361
    3TTP     C423888   2.675   3.679   0.248 -0.1494  0.0222 -0.4664
    3TTP    C1723889   2.720   3.767   0.154  0.0748 -0.2679 -0.6360
    3TTP    C1823890   2.763   3.702   0.035  0.2121 -0.6281 -0.3922
    3TTP    C3223891   2.812   3.348  -0.086 -0.5652 -0.3933  0.3110
    3TTP    C3323892   2.945   3.324  -0.033 -0.7760  0.7213 -0.2182
    3TTP    C3423893   2.994   3.185   0.016 -0.0083  0.4738  0.5907
    3TTP    C3523894   2.986   3.086  -0.099  0.4068  0.9842 -0.5716
    3TTP    C3623895   3.083   3.089  -0.220 -0.8992 -0.7584 -0.0571
    3TTP    C3723896   3.239   3.091  -0.198  0.5892 -0.2010  0.0653
    3TTP    C3823897   3.304   2.985  -0.123 -1.0411  0.7761  0.4705
    3TTP    C3923898   3.291   2.854  -0.210 -0.6364 -0.4073  1.3436
    3TTP    C4023899   3.356   2.842  -0.354 -1.2340 -0.0524  0.4860
    3TTP    C4123900   3.480   2.731  -0.355  0.6491  1.2695  0.4099
    3TTP    C4223901   3.577   2.772  -0.242 -0.2650 -1.1071  0.7300
    4FIC     F123902   2.693   5.276   0.354  0.0194 -0.2874 -0.2679
    4FIC     F223903   2.658   5.395   0.596 -0.0349 -0.1150 -0.3596
    4FIC     O123904   2.655   4.753   0.490 -0.3570 -0.1807  0.0414
    4FIC     N523905   2.583   5.193   1.042 -0.3814  0.2085 -0.2710
    4FIC     N623906   2.560   4.761   1.099 -0.6647  0.2571 -0.0109
    4FIC    C1923907   2.609   4.681   0.770 -0.5427  0.0217  0.0636
    4FIC    C2023908   2.620   4.808   0.726 -0.4458 -0.0118 -0.0106
    4FIC    C2123909   2.644   4.837   0.581 -0.3542 -0.1168 -0.0170
    4FIC    C2223910   2.650   4.984   0.568 -0.2615 -0.1286 -0.1058
    4FIC    C2323911   2.671   5.058   0.452 -0.1585 -0.2133 -0.1423
    4FIC    C2423912   2.673   5.196   0.465 -0.0840 -0.2065 -0.2278
    4FIC    C2523913   2.655   5.257   0.590 -0.1122 -0.1177 -0.2749
    4FIC    C2623914   2.635   5.184   0.706 -0.2148 -0.0330 -0.2389
    4FIC    C2723915   2.632   5.044   0.695 -0.2913 -0.0384 -0.1525
    4FIC    C2823916   2.613   4.938   0.797 -0.4058  0.0371 -0.0958
    4FIC    C2923917   2.593   4.957   0.932 -0.4634  0.1334 -0.1181
    4FIC    C3023918   2.587   5.087   0.992 -0.4181  0.1744 -0.2021
    4FIC    C3123919   2.575   4.849   1.023 -0.5738  0.2010 -0.0590
    5FIC     F123920   3.164   3.950  -0.842 -0.5094  0.2683 -0.1161
    5FIC     F223921   3.157   3.709  -0.968 -0.1461  0.1164  0.1528
    5FIC     O123922   2.962   3.818  -0.357 -0.3020  0.5019  0.0341
    5FIC     N523923   3.004   3.268  -0.804  0.5243  0.0644  0.6459
    5FIC     N623924   2.848   3.214  -0.399  0.6132  0.2775  0.7095
    5FIC    C1923925   2.884   3.541  -0.305  0.1189  0.4397  0.3442
    5FIC    C2023926   2.935   3.583  -0.423  0.0525  0.3868  0.2961
    5FIC    C2123927   2.973   3.728  -0.442 -0.1663  0.4238  0.1347
    5FIC    C2223928   3.025   3.740  -0.579 -0.1863  0.3490  0.1209
    5FIC    C2323929   3.072   3.854  -0.643 -0.3608  0.3507 -0.0076
    5FIC    C2423930   3.116   3.841  -0.773 -0.3429  0.2714  0.0065
    5FIC    C2523931   3.112   3.717  -0.838 -0.1554  0.1933  0.1448
    5FIC    C2623932   3.065   3.602  -0.775  0.0194  0.1910  0.2737
    5FIC    C2723933   3.020   3.613  -0.643  0.0041  0.2707  0.2613
    5FIC    C2823934   2.965   3.512  -0.549  0.1583  0.2908  0.3748
    5FIC    C2923935   2.946   3.379  -0.575  0.3604  0.2317  0.5238
    5FIC    C3023936   2.978   3.318  -0.701  0.4498  0.1399  0.5906
    5FIC    C3123937   2.892   3.289  -0.478  0.4983  0.2572  0.6247
    1BTD     S223938   9.813  10.299   8.442 -0.5722  0.4929 -0.0191
    1BTD     N123939   9.681  10.189   8.390 -0.5238  0.4187  0.0131
    1BTD     N223940   9.787  10.272   8.618 -0.4511  0.4017 -0.0148
    1BTD     N323941   9.493  10.018   8.882 -0.1163  0.0832  0.0525
    1BTD     N423942   9.363   9.916   8.601 -0.2065  0.1040  0.0868
    1BTD     C523943   9.516  10.048   8.504 -0.3569  0.2539  0.0510
    1BTD     C623944   9.626  10.141   8.501 -0.4249  0.3347  0.0248
    1BTD     C723945   9.686  10.187   8.628 -0.3843  0.3252  0.0093
    1BTD     C823946   9.632  10.138   8.752 -0.2773  0.2360  0.0207
    1BTD    C1523947   9.524  10.048   8.751 -0.2136  0.1592  0.0465
    1BTD    C1623948   9.467  10.003   8.628 -0.2533  0.1680  0.0615
    1BTD    C4323949   9.294   9.817   8.688  0.2719 -0.3412 -0.8863
    1BTD    C4423950   9.358   9.681   8.681  0.0969 -0.4875 -0.6510
    1BTD    C4523951   9.395   9.594   8.813  0.9964 -0.5214 -0.8048
    1BTD    C4623952   9.472   9.645   8.928 -0.1982  0.4138 -0.7197
    1BTD    C4723953   9.340   9.601   8.556 -1.3505 -0.5901 -2.2759
    1BTD    C4823954   9.433   9.473   8.544 -0.9158 -0.2499 -0.2993
    1BTD    C4923955   9.426   9.425   8.399  0.2377  0.4449 -0.1675
    1BTD    C5023956   9.557   9.391   8.322 -0.2005  1.8536 -0.8662
    1BTD    C7523957   9.352   9.997   8.940 -1.0335 -1.2359 -0.1753
    1BTD    C7623958   9.251  10.108   8.990  1.0132  0.9327  0.2973
    1BTD    C7723959   9.278  10.222   9.096  0.3029  0.5015 -1.0247
    1BTD    C7823960   9.204  10.167   9.229  1.5622 -0.9532  0.3309
    1BTD    C7923961   9.191  10.164   8.870 -1.7883  0.4966 -1.4509
    1BTD    C8023962   9.049  10.196   8.846 -0.0448  1.1123 -0.3056
    1BTD    C8123963   8.955  10.070   8.865 -0.0607  0.0292  0.9661
    1BTD    C8223964   8.914   9.973   8.754 -0.0630 -0.3356 -0.0140
    2TTP     S123965   9.402  10.036   8.227  0.3313  0.6875  0.3688
    2TTP     S523966   9.082   9.785   8.366  0.6471 -0.3040 -0.6571
    2TTP     C123967   9.054   9.823   8.190  0.8134  0.0530 -0.6092
    2TTP     C223968   9.151   9.902   8.137  0.7255  0.3805 -0.2897
    2TTP     C323969   9.251   9.937   8.233  0.5240  0.3607 -0.0710
    2TTP     C423970   9.430   9.999   8.403  0.1650  0.3302  0.3209
    2TTP    C1723971   9.333   9.919   8.456  0.2529  0.0032  0.0016
    2TTP    C1823972   9.233   9.885   8.360  0.4547  0.0224 -0.2172
    2TTP    C3223973   9.176   9.931   7.997 -0.1357  0.5331  0.1327
    2TTP    C3323974   9.286   9.846   7.925 -0.1482  0.0279 -1.4148
    2TTP    C3423975   9.315   9.879   7.779  0.5080  0.6586 -0.1751
    2TTP    C3523976   9.412   9.996   7.757 -0.1232 -0.4289  1.3220
    2TTP    C3623977   9.434  10.014   7.599 -0.3404 -0.1950 -0.6865
    2TTP    C3723978   9.329  10.102   7.531 -0.0533  0.1335  0.9494
    2TTP    C3823979   9.321  10.244   7.584 -0.4843 -0.2811  0.1028
    2TTP    C3923980   9.455  10.324   7.588  1.2174  0.4175 -0.8381
    2TTP    C4023981   9.454  10.427   7.690 -0.5632 -0.4498  0.0362
    2TTP    C4123982   9.563  10.451   7.793 -0.3951  1.2569 -0.3127
    2TTP    C4223983   9.646  10.339   7.857 -0.5466  0.8856 -0.0600
    3TTP     S123984   9.803  10.226   8.997 -0.4653  0.2376  0.7337
    3TTP     S523985   9.586   9.943   9.237 -0.0238 -0.7749 -0.0472
    3TTP     C123986   9.725  10.007   9.335 -0.4133 -0.4494  0.3028
    3TTP     C223987   9.800  10.098   9.266 -0.5724 -0.1175  0.5643
    3TTP     C323988   9.751  10.121   9.134 -0.3929 -0.1082  0.4983
    3TTP     C423989   9.664  10.162   8.899 -0.0758 -0.0877  0.3839
    3TTP    C1723990   9.589  10.071   8.967  0.0831 -0.4197  0.1223
    3TTP    C1823991   9.638  10.048   9.099 -0.0966 -0.4289  0.1884
    3TTP    C3223992   9.911  10.185   9.343 -0.5142 -0.3778  1.3677
    3TTP    C3323993  10.027  10.247   9.246  1.2910 -0.3916  0.1104
    3TTP    C3423994  10.167  10.270   9.294 -0.3429  1.0764  0.8272
    3TTP    C3523995  10.239  10.142   9.320  0.3103  0.7371 -0.5023
    3TTP    C3623996  10.389  10.159   9.335 -0.0755 -0.9822 -0.1685
    3TTP    C3723997  10.446  10.039   9.258  0.2647  0.1044 -0.7092
    3TTP    C3823998  10.585  10.001   9.309 -1.1053  0.5822  0.7974
    3TTP    C3923999  10.648   9.851   9.272 -0.5164  0.8729  0.1708
    3TTP    C4024000  10.570   9.783   9.139  0.6213 -1.1237 -0.9198
    3TTP    C4124001  10.500   9.656   9.161  0.9563 -1.5071  1.5929
    3TTP    C4224002  10.370   9.667   9.250 -0.2907 -1.6532  0.3349
    4FIC     F124003   8.289   9.627   8.392  0.0014  0.1795 -0.0985
    4FIC     F224004   8.254   9.533   8.139  0.2766 -0.3698  0.0663
    4FIC     O124005   8.799   9.807   8.365 -0.0417  0.3169  0.0043
    4FIC     N524006   8.568   9.525   7.757  0.6418 -1.0617  0.3769
    4FIC     N624007   8.974   9.684   7.787  0.5529 -0.8435  0.4240
    4FIC    C1924008   8.947   9.780   8.114  0.2058 -0.1591  0.1983
    4FIC    C2024009   8.820   9.739   8.131  0.2060 -0.1724  0.1659
    4FIC    C2124010   8.751   9.756   8.263  0.0746  0.0815  0.0653
    4FIC    C2224011   8.615   9.701   8.246  0.1109 -0.0050  0.0539
    4FIC    C2324012   8.514   9.694   8.342  0.0236  0.1583 -0.0272
    4FIC    C2424013   8.393   9.637   8.303  0.0821  0.0302 -0.0208
    4FIC    C2524014   8.376   9.588   8.172  0.2241 -0.2531  0.0642
    4FIC    C2624015   8.476   9.595   8.077  0.3121 -0.4175  0.1452
    4FIC    C2724016   8.599   9.652   8.114  0.2546 -0.2911  0.1402
    4FIC    C2824017   8.724   9.673   8.038  0.3183 -0.4051  0.2127
    4FIC    C2924018   8.747   9.639   7.907  0.4561 -0.6750  0.3053
    4FIC    C3024019   8.649   9.576   7.825  0.5574 -0.8864  0.3444
    4FIC    C3124020   8.872   9.664   7.841  0.5083 -0.7663  0.3700
    5FIC     F124021   9.286   9.673   9.948  0.0489 -0.2191 -0.1688
    5FIC     F224022   9.502   9.705  10.110  0.2861 -1.0104 -0.3157
    5FIC     O124023   9.473   9.882   9.484 -0.1004  0.6554  0.1621
    5FIC     N524024   9.946   9.901  10.013  0.5202 -1.5252 -0.2909
    5FIC     N624025  10.048  10.058   9.618  0.3557 -0.6816 -0.0029
    5FIC    C1924026   9.745   9.988   9.475  0.0730  0.2102  0.1395
    5FIC    C2024027   9.690   9.934   9.585  0.1011  0.0210  0.0620
    5FIC    C2124028   9.549   9.882   9.582  0.0072  0.2713  0.0799
    5FIC    C2224029   9.521   9.830   9.717  0.0679 -0.0291 -0.0200
    5FIC    C2324030   9.403   9.772   9.763  0.0176  0.0556 -0.0417
    5FIC    C2424031   9.399   9.731   9.896  0.0932 -0.2807 -0.1418
    5FIC    C2524032   9.511   9.748   9.979  0.2149 -0.6880 -0.2174
    5FIC    C2624033   9.629   9.806   9.934  0.2661 -0.7749 -0.1962
    5FIC    C2724034   9.634   9.848   9.800  0.1912 -0.4385 -0.0954
    5FIC    C2824035   9.743   9.912   9.722  0.2162 -0.4239 -0.0479
    5FIC    C2924036   9.868   9.946   9.768  0.3254 -0.7586 -0.0968
    5FIC    C3024037   9.910   9.921   9.903  0.4323 -1.1790 -0.2034
    5FIC    C3124038   9.966  10.007   9.686  0.3417 -0.7145 -0.0451
    1BTD     S224039   5.263   9.064   5.140 -0.1216 -0.3460 -0.2333
    1BTD     N124040   5.427   8.999   5.107 -0.1007 -0.3707 -0.0829
    1BTD     N224041   5.222   8.939   5.262 -0.0527 -0.0348  0.1135
    1BTD     N324042   5.436   8.566   5.451  0.1255  0.5546  1.0916
    1BTD     N424043   5.689   8.640   5.260  0.0664  0.1414  0.8497
    1BTD     C524044   5.561   8.811   5.189 -0.0126 -0.0982  0.4070
    1BTD     C624045   5.443   8.893   5.184 -0.0461 -0.1566  0.2033
    1BTD     C724046   5.328   8.859   5.271 -0.0193  0.0312  0.3132
    1BTD     C824047   5.337   8.745   5.358  0.0396  0.2680  0.6211
    1BTD    C1524048   5.455   8.667   5.359  0.0707  0.3169  0.8125
    1BTD    C1624049   5.565   8.700   5.276  0.0450  0.1362  0.7067
    1BTD    C4324050   5.734   8.502   5.285 -1.1888  0.9607  0.0020
    1BTD    C4424051   5.710   8.365   5.208  1.6764 -0.8432 -1.6703
    1BTD    C4524052   5.812   8.266   5.268 -0.2457 -1.0965 -1.2042
    1BTD    C4624053   5.801   8.115   5.261  0.4437  0.0765 -0.2415
    1BTD    C4724054   5.717   8.374   5.054 -0.5794  0.7367  0.6816
    1BTD    C4824055   5.845   8.394   4.962  0.2336  0.8667 -1.2864
    1BTD    C4924056   5.845   8.447   4.822  0.5562 -0.3601  0.9185
    1BTD    C5024057   5.748   8.383   4.721 -0.0369 -0.5539 -0.2806
    1BTD    C7524058   5.544   8.484   5.522 -0.8331  0.1809 -1.4289
    1BTD    C7624059   5.543   8.355   5.609 -0.6131  1.5625 -0.9955
    1BTD    C7724060   5.482   8.231   5.537 -0.3868  0.0658  0.8652
    1BTD    C7824061   5.460   8.102   5.619 -1.4034 -0.1365  0.5913
    1BTD    C7924062   5.668   8.331   5.719 -0.3320  0.8763 -0.7260
    1BTD    C8024063   5.724   8.456   5.791  0.0372  0.5549 -0.4970
    1BTD    C8124064   5.805   8.402   5.904  0.6472 -0.6221  0.0942
    1BTD    C8224065   5.913   8.499   5.948  0.4863  0.4270  0.2944
    2TTP     S124066   5.788   8.945   5.038  0.5206 -0.3867 -0.2392
    2TTP     S524067   6.059   8.662   5.215  0.5481  0.1535  0.5925
    2TTP     C124068   6.156   8.788   5.127  0.5462  0.0511  0.4436
    2TTP     C224069   6.079   8.883   5.067  0.5376 -0.1218  0.1781
    2TTP     C324070   5.939   8.860   5.089  0.5322 -0.1798  0.0825
    2TTP     C424071   5.691   8.820   5.126  0.5225 -0.2842 -0.0905
    2TTP    C1724072   5.769   8.725   5.186  0.5311 -0.1114  0.1750
    2TTP    C1824073   5.908   8.748   5.165  0.5364 -0.0536  0.2707
    2TTP    C3224074   6.122   8.979   4.968  0.8511 -0.5260  1.0758
    2TTP    C3324075   6.071   8.973   4.816 -0.6225  0.5699  0.4844
    2TTP    C3424076   6.085   9.102   4.710 -0.6379  1.2216  1.2113
    2TTP    C3524077   6.237   9.120   4.688 -1.0479 -0.3465 -0.2732
    2TTP    C3624078   6.299   9.160   4.544  0.8306 -0.0804 -0.4173
    2TTP    C3724079   6.325   9.032   4.455 -0.2887  0.4728  0.6353
    2TTP    C3824080   6.250   9.004   4.318  0.7591 -0.1869 -0.2911
    2TTP    C3924081   6.357   9.012   4.208  0.7020 -0.0606 -0.9887
    2TTP    C4024082   6.442   8.891   4.213 -0.1829  0.6358 -0.2911
    2TTP    C4124083   6.397   8.751   4.149 -1.5532 -1.4031 -0.6320
    2TTP    C4224084   6.272   8.669   4.186 -0.8299  1.2038 -1.2062
    3TTP     S124085   5.079   8.724   5.503 -0.2299 -0.3250  0.0099
    3TTP     S524086   5.237   8.397   5.733 -0.2480  0.0877  0.6150
    3TTP     C124087   5.065   8.426   5.785 -0.4405 -0.1864  0.1465
    3TTP     C224088   5.006   8.529   5.717 -0.4462 -0.3304 -0.0679
    3TTP     C324089   5.094   8.588   5.621 -0.2989 -0.2286  0.1301
    3TTP     C424090   5.251   8.695   5.451 -0.0374 -0.0510  0.4784
    3TTP    C1724091   5.309   8.592   5.519 -0.0317  0.0933  0.6929
    3TTP    C1824092   5.221   8.533   5.615 -0.1792 -0.0086  0.4950
    3TTP    C3224093   4.887   8.617   5.754  0.6482  0.0226  0.9617
    3TTP    C3324094   4.931   8.763   5.803 -0.8955 -0.4595  0.6513
    3TTP    C3424095   4.833   8.878   5.783 -0.5684 -1.5430  0.5425
    3TTP    C3524096   4.809   8.956   5.646  0.1362  0.4332 -1.6283
    3TTP    C3624097   4.701   9.062   5.645  0.6392 -0.2457 -0.6224
    3TTP    C3724098   4.657   9.102   5.508  0.8918 -0.0049  1.2562
    3TTP    C3824099   4.546   9.211   5.520 -0.7912  1.4907  0.2949
    3TTP    C3924100   4.480   9.288   5.405 -1.0299 -0.6986 -0.4724
    3TTP    C4024101   4.383   9.406   5.461 -0.7636 -2.6045 -1.0933
    3TTP    C4124102   4.326   9.402   5.603 -1.1919  1.2354  0.7645
    3TTP    C4224103   4.241   9.519   5.598  1.1720  1.7269  0.3467
    4FIC     F124104   6.727   8.675   5.702  0.1578 -0.3932 -0.0627
    4FIC     F224105   6.914   8.763   5.524  0.0683  0.2623  0.1615
    4FIC     O124106   6.276   8.711   5.405  0.1941 -0.6070 -0.1433
    4FIC     N524107   6.860   8.914   5.056 -0.0347  1.0521  0.4265
    4FIC     N624108   6.470   8.925   4.859  0.0116  0.7529  0.3183
    4FIC    C1924109   6.294   8.807   5.129  0.1211 -0.0566  0.0423
    4FIC    C2024110   6.400   8.795   5.211  0.1156 -0.0286  0.0539
    4FIC    C2124111   6.383   8.744   5.351  0.1547 -0.3231 -0.0455
    4FIC    C2224112   6.517   8.743   5.412  0.1370 -0.2065 -0.0039
    4FIC    C2324113   6.552   8.704   5.541  0.1606 -0.3905 -0.0652
    4FIC    C2424114   6.686   8.712   5.576  0.1366 -0.2262 -0.0073
    4FIC    C2524115   6.782   8.757   5.484  0.0905  0.1112  0.1083
    4FIC    C2624116   6.748   8.796   5.355  0.0666  0.2964  0.1699
    4FIC    C2724117   6.613   8.789   5.318  0.0904  0.1342  0.1129
    4FIC    C2824118   6.544   8.823   5.190  0.0753  0.2575  0.1528
    4FIC    C2924119   6.604   8.870   5.076  0.0327  0.5748  0.2611
    4FIC    C3024120   6.744   8.894   5.065 -0.0044  0.8361  0.3517
    4FIC    C3124121   6.530   8.900   4.957  0.0212  0.6709  0.2919
    5FIC     F124122   5.205   7.684   6.109 -0.0817 -0.0408 -0.3513
    5FIC     F224123   4.995   7.722   6.278  0.6194  0.3655  0.4377
    5FIC     O124124   5.199   8.151   5.834 -0.7048 -0.3603 -0.8851
    5FIC     N524125   4.690   8.108   6.327  1.1832  0.7219  1.1916
    5FIC     N624126   4.728   8.465   6.078  0.5549  0.3905  0.6157
    5FIC    C1924127   4.997   8.352   5.898 -0.2563 -0.0855 -0.3209
    5FIC    C2024128   5.006   8.233   5.961 -0.1270 -0.0210 -0.2174
    5FIC    C2124129   5.113   8.135   5.922 -0.3744 -0.1714 -0.5246
    5FIC    C2224130   5.095   8.017   6.009 -0.1478 -0.0508 -0.3129
    5FIC    C2324131   5.170   7.900   6.010 -0.2565 -0.1233 -0.4728
    5FIC    C2424132   5.134   7.803   6.102  0.0072  0.0203 -0.2131
    5FIC    C2524133   5.027   7.822   6.189  0.3681  0.2295  0.1932
    5FIC    C2624134   4.951   7.939   6.189  0.4790  0.3030  0.3549
    5FIC    C2724135   4.986   8.039   6.097  0.2155  0.1600  0.0967
    5FIC    C2824136   4.927   8.172   6.071  0.2427  0.1864  0.1715
    5FIC    C2924137   4.820   8.229   6.136  0.5513  0.3691  0.5324
    5FIC    C3024138   4.749   8.162   6.240  0.8976  0.5622  0.8936
    5FIC    C3124139   4.770   8.358   6.103  0.5515  0.3798  0.5761
    1BTD     S224140   0.512   6.959   8.318  0.0870  0.2923  0.0879
    1BTD     N124141   0.609   6.895   8.181  0.0631  0.4587 -0.0072
    1BTD     N224142   0.360   6.971   8.225 -0.0175  0.0656  0.2279
    1BTD     N324143   0.222   6.879   7.785 -0.2738 -0.0958  0.3413
    1BTD     N424144   0.530   6.785   7.731 -0.1746  0.3884  0.0516
    1BTD     C524145   0.564   6.839   7.947 -0.0622  0.4162  0.0272
    1BTD     C624146   0.527   6.886   8.078 -0.0174  0.3428  0.0665
    1BTD     C724147   0.387   6.928   8.102 -0.0625  0.1227  0.1979
    1BTD     C824148   0.292   6.922   7.994 -0.1501 -0.0129  0.2835
    1BTD    C1524149   0.333   6.875   7.868 -0.1913  0.0659  0.2409
    1BTD    C1624150   0.467   6.834   7.845 -0.1479  0.2778  0.1140
    1BTD    C4324151   0.481   6.680   7.635  1.4207  0.5949 -0.6012
    1BTD    C4424152   0.513   6.675   7.483 -0.1883  0.0157  1.0499
    1BTD    C4524153   0.441   6.544   7.424 -0.4912 -1.2408 -0.1683
    1BTD    C4624154   0.281   6.573   7.407  0.1369 -0.0785  0.2542
    1BTD    C4724155   0.505   6.812   7.404 -0.7228 -0.2472  0.1443
    1BTD    C4824156   0.566   6.781   7.250  0.6078  1.7801 -0.0482
    1BTD    C4924157   0.611   6.909   7.192  0.4576 -0.0434 -0.8117
    1BTD    C5024158   0.538   7.061   7.211 -0.5000  0.4375  0.5765
    1BTD    C7524159   0.224   6.903   7.639 -1.7354  1.4103 -0.2975
    1BTD    C7624160   0.237   7.048   7.579 -1.3978  0.2165  0.8137
    1BTD    C7724161   0.195   7.073   7.430  0.0703 -0.2174 -1.0493
    1BTD    C7824162   0.075   6.993   7.405 -0.3338  0.9000 -1.1431
    1BTD    C7924163   0.346   7.148   7.615 -1.3349  0.0138  0.9679
    1BTD    C8024164   0.391   7.183   7.752 -0.3700 -0.0274  0.1653
    1BTD    C8124165   0.312   7.306   7.822  0.2853 -0.4948 -0.7246
    1BTD    C8224166   0.345   7.449   7.760  0.1928 -0.6010 -0.1834
    2TTP     S124167   0.847   6.791   7.952  0.6808  0.4613  0.0747
    2TTP     S524168   0.823   6.728   7.527  0.3623 -0.2940  0.2009
    2TTP     C124169   0.996   6.762   7.571  0.2921  0.4775 -0.0797
    2TTP     C224170   1.014   6.783   7.705  0.3863  0.7561 -0.1353
    2TTP     C324171   0.891   6.774   7.777  0.5173  0.3705  0.0418
    2TTP     C424172   0.674   6.758   7.908  0.7510 -0.3101  0.3551
    2TTP    C1724173   0.656   6.736   7.774  0.6567 -0.5888  0.4107
    2TTP    C1824174   0.779   6.746   7.701  0.5257 -0.2031  0.2335
    2TTP    C3224175   1.149   6.794   7.767 -1.5898 -1.4172 -1.8232
    2TTP    C3324176   1.190   6.732   7.898  0.2589  1.7628  1.1144
    2TTP    C3424177   1.331   6.769   7.940 -0.6607  0.6942 -1.4393
    2TTP    C3524178   1.379   6.724   8.076 -0.1723  0.3900 -0.0223
    2TTP    C3624179   1.419   6.580   8.114  0.5411 -0.5712  0.3011
    2TTP    C3724180   1.398   6.556   8.271 -1.0508  0.2254  1.2173
    2TTP    C3824181   1.277   6.565   8.347  0.6194  0.7399 -0.5971
    2TTP    C3924182   1.145   6.583   8.269 -1.7059 -0.4090 -0.3970
    2TTP    C4024183   1.027   6.539   8.346 -0.0123 -1.4471  0.8733
    2TTP    C4124184   0.978   6.391   8.311  0.1915  0.1779 -0.0437
    2TTP    C4224185   1.066   6.267   8.330  0.6416 -0.7804 -0.6880
    3TTP     S124186   0.021   7.014   8.095  0.2085  0.6097 -0.3718
    3TTP     S524187  -0.148   6.913   7.713  0.3538 -0.4116 -0.1704
    3TTP     C124188  -0.281   6.971   7.821  0.3513  0.1194 -0.4549
    3TTP     C224189  -0.237   7.006   7.946  0.3064  0.4661 -0.5339
    3TTP     C324190  -0.096   6.988   7.960  0.2723  0.3248 -0.3725
    3TTP     C424191   0.155   6.955   7.986  0.2109  0.0787 -0.0875
    3TTP    C1724192   0.110   6.920   7.862  0.2559 -0.2680 -0.0084
    3TTP    C1824193  -0.031   6.939   7.848  0.2902 -0.1268 -0.1698
    3TTP    C3224194  -0.322   7.052   8.076  0.0441  0.5381  0.2680
    3TTP    C3324195  -0.269   7.149   8.181  0.6993 -0.2542  0.2922
    3TTP    C3424196  -0.357   7.160   8.308 -0.2144  0.9030 -0.3175
    3TTP    C3524197  -0.322   7.265   8.418 -0.3621  0.5718 -0.3102
    3TTP    C3624198  -0.434   7.276   8.516 -0.4315 -0.4017 -0.0886
    3TTP    C3724199  -0.360   7.388   8.601  1.1870  1.9171 -0.6972
    3TTP    C3824200  -0.457   7.441   8.722 -0.8584  0.5323  0.4672
    3TTP    C3924201  -0.571   7.532   8.680 -0.0487  1.1453 -1.4844
    3TTP    C4024202  -0.699   7.551   8.783 -0.0108 -1.5048 -0.6584
    3TTP    C4124203  -0.791   7.445   8.801 -0.3960  0.4143  0.7587
    3TTP    C4224204  -0.929   7.476   8.824 -0.4855 -0.0515 -0.4468
    4FIC     F124205   1.044   6.983   6.781  0.0267  0.1260  0.0528
    4FIC     F224206   1.294   6.875   6.772 -0.1448 -0.2639 -0.0787
    4FIC     O124207   0.912   6.893   7.298  0.2183  0.4702  0.1618
    4FIC     N524208   1.559   6.656   7.128 -0.2548 -0.5790 -0.1901
    4FIC     N624209   1.406   6.608   7.534 -0.0706 -0.2316 -0.0783
    4FIC    C1924210   1.104   6.759   7.474  0.1225  0.2199  0.0751
    4FIC    C2024211   1.128   6.785   7.344  0.0810  0.1487  0.0528
    4FIC    C2124212   1.024   6.855   7.260  0.1349  0.2866  0.1005
    4FIC    C2224213   1.081   6.868   7.125  0.0692  0.1612  0.0597
    4FIC    C2324214   1.022   6.926   7.013  0.0872  0.2223  0.0821
    4FIC    C2424215   1.096   6.927   6.896  0.0138  0.0761  0.0342
    4FIC    C2524216   1.225   6.872   6.891 -0.0744 -0.1248 -0.0334
    4FIC    C2624217   1.284   6.814   7.003 -0.0928 -0.1867 -0.0560
    4FIC    C2724218   1.211   6.812   7.122 -0.0195 -0.0408 -0.0082
    4FIC    C2824219   1.245   6.758   7.257 -0.0157 -0.0565 -0.0154
    4FIC    C2924220   1.362   6.696   7.293 -0.0882 -0.2285 -0.0739
    4FIC    C3024221   1.470   6.674   7.202 -0.1796 -0.4207 -0.1377
    4FIC    C3124222   1.385   6.648   7.425 -0.0781 -0.2291 -0.0758
    5FIC     F124223  -0.741   6.909   7.134 -0.3605  0.0789  0.2460
    5FIC     F224224  -0.953   7.006   7.276 -0.2215  0.2017  0.3700
    5FIC     O124225  -0.356   6.904   7.514 -0.1371 -0.1355  0.0173
    5FIC     N524226  -0.981   7.141   7.751  0.1378  0.2254  0.3859
    5FIC     N624227  -0.638   7.117   8.019  0.2842  0.0330  0.1819
    5FIC    C1924228  -0.421   6.994   7.785  0.0754 -0.0945  0.0548
    5FIC    C2024229  -0.510   6.992   7.684  0.0136 -0.0452  0.1074
    5FIC    C2124230  -0.469   6.944   7.547 -0.0947 -0.0707  0.0838
    5FIC    C2224231  -0.588   6.954   7.461 -0.1400 -0.0037  0.1546
    5FIC    C2324232  -0.599   6.921   7.327 -0.2389  0.0007  0.1616
    5FIC    C2424233  -0.723   6.940   7.267 -0.2638  0.0706  0.2348
    5FIC    C2524234  -0.832   6.989   7.340 -0.1921  0.1338  0.2989
    5FIC    C2624235  -0.821   7.022   7.475 -0.0937  0.1298  0.2922
    5FIC    C2724236  -0.697   7.005   7.537 -0.0663  0.0596  0.2185
    5FIC    C2824237  -0.653   7.030   7.676  0.0310  0.0364  0.1920
    5FIC    C2924238  -0.730   7.078   7.779  0.1197  0.0823  0.2375
    5FIC    C3024239  -0.868   7.112   7.763  0.1295  0.1608  0.3190
    5FIC    C3124240  -0.679   7.099   7.911  0.2096  0.0550  0.2067
    1BTD     S224241   2.285   6.459   0.097 -0.4099 -0.0070 -0.1738
    1BTD     N124242   2.408   6.577   0.155 -0.5284 -0.2031  0.4925
    1BTD     N224243   2.199   6.578  -0.007  0.3098  0.1433 -0.6170
    1BTD     N324244   2.244   7.033  -0.113  1.5620  0.0950 -0.3171
    1BTD     N424245   2.502   7.032   0.086  0.5292 -0.3319  1.0500
    1BTD     C524246   2.454   6.814   0.117  0.0362 -0.2652  0.7671
    1BTD     C624247   2.380   6.693   0.097 -0.0502 -0.1494  0.3572
    1BTD     C724248   2.263   6.694   0.007  0.4188  0.0446 -0.2638
    1BTD     C824249   2.226   6.816  -0.060  0.9511  0.1130 -0.4442
    1BTD    C1524250   2.301   6.932  -0.037  1.0165 -0.0056 -0.0276
    1BTD    C1624251   2.414   6.932   0.050  0.5645 -0.1923  0.5709
    1BTD    C4324252   2.474   7.179   0.120  0.4837  0.9060  0.7434
    1BTD    C4424253   2.418   7.230   0.255 -0.2755 -0.7768  0.4554
    1BTD    C4524254   2.298   7.156   0.329 -0.0080 -0.0379 -0.4447
    1BTD    C4624255   2.156   7.140   0.280  0.5731  0.0254 -0.2430
    1BTD    C4724256   2.391   7.383   0.227 -0.2071  0.3617  0.0452
    1BTD    C4824257   2.372   7.482   0.337  0.1463 -0.2724  0.3010
    1BTD    C4924258   2.223   7.507   0.347 -0.1010  0.5557 -0.3116
    1BTD    C5024259   2.204   7.598   0.469  0.2050  0.6804 -0.2326
    1BTD    C7524260   2.315   7.138  -0.183  0.5058 -0.6241  0.3497
    1BTD    C7624261   2.255   7.276  -0.194 -0.9675  0.4975  0.7061
    1BTD    C7724262   2.214   7.315  -0.054 -0.0476  2.0594 -0.3036
    1BTD    C7824263   2.176   7.455  -0.042 -1.0881  0.5661  0.4913
    1BTD    C7924264   2.336   7.371  -0.302  0.2428  0.6695  1.6136
    1BTD    C8024265   2.483   7.389  -0.275  0.2110  0.9038 -0.2171
    1BTD    C8124266   2.574   7.447  -0.383 -0.7808 -0.1321 -0.3729
    1BTD    C8224267   2.717   7.422  -0.330 -0.0118 -0.3031  0.7186
    2TTP     S124268   2.721   6.772   0.252 -0.3837 -0.5126  0.1433
    2TTP     S524269   2.829   7.179   0.165 -0.8310 -0.3020  0.5642
    2TTP     C124270   2.978   7.090   0.223 -0.6468 -0.3044  0.0921
    2TTP     C224271   2.953   6.959   0.253 -0.4977 -0.3699 -0.0657
    2TTP     C324272   2.816   6.924   0.232 -0.5238 -0.4201  0.1805
    2TTP     C424273   2.573   6.860   0.195 -0.5679 -0.5102  0.6154
    2TTP    C1724274   2.597   6.991   0.164 -0.7170 -0.4448  0.7732
    2TTP    C1824275   2.734   7.026   0.186 -0.6909 -0.3945  0.5270
    2TTP    C3224276   3.040   6.838   0.307 -1.1578 -0.6800 -1.2928
    2TTP    C3324277   3.121   6.774   0.195  0.2854 -0.8097  2.2390
    2TTP    C3424278   3.176   6.639   0.214 -0.9520  0.7661 -0.4192
    2TTP    C3524279   3.311   6.613   0.275 -0.8978 -0.0343  0.6363
    2TTP    C3624280   3.401   6.482   0.263 -0.0218  0.0238 -0.6145
    2TTP    C3724281   3.428   6.398   0.392  1.4898 -0.0807  0.1354
    2TTP    C3824282   3.272   6.350   0.442  0.2291 -1.3969  1.0679
    2TTP    C3924283   3.262   6.316   0.591 -0.8120 -0.0421  0.6832
    2TTP    C4024284   3.189   6.190   0.600 -0.0348  0.2547 -1.5788
    2TTP    C4124285   3.278   6.058   0.624  0.1551  0.1853 -0.6691
    2TTP    C4224286   3.361   5.987   0.506  0.2837 -0.0661 -0.6193
    3TTP     S124287   1.973   6.772  -0.214  0.1102  0.4354  0.5127
    3TTP     S524288   2.002   7.165  -0.386 -0.2607  0.0671 -0.4055
    3TTP     C124289   1.855   7.083  -0.454 -0.3067 -0.1504 -0.0478
    3TTP     C224290   1.837   6.956  -0.405 -0.1948 -0.0495  0.2568
    3TTP     C324291   1.939   6.920  -0.312 -0.0688  0.2031  0.2189
    3TTP     C424292   2.120   6.854  -0.146  0.1562  0.6527  0.1552
    3TTP    C1724293   2.138   6.980  -0.195  0.0443  0.5518 -0.1496
    3TTP    C1824294   2.036   7.017  -0.288 -0.0817  0.2991 -0.1113
    3TTP    C3224295   1.715   6.849  -0.439 -1.3633  0.9986 -1.1442
    3TTP    C3324296   1.758   6.722  -0.506 -2.1781 -0.6366 -0.8113
    3TTP    C3424297   1.796   6.732  -0.653 -0.3393 -0.0410  1.1867
    3TTP    C3524298   1.806   6.579  -0.708  0.2486 -0.7552  0.2738
    3TTP    C3624299   1.702   6.467  -0.671 -1.3456  0.2146 -0.8150
    3TTP    C3724300   1.570   6.518  -0.710 -0.2967  0.6895 -0.3017
    3TTP    C3824301   1.505   6.463  -0.837 -0.5710  0.2750 -1.2143
    3TTP    C3924302   1.357   6.525  -0.842 -1.0722  0.7610 -0.2682
    3TTP    C4024303   1.302   6.527  -0.985 -0.0745 -1.4662 -0.3630
    3TTP    C4124304   1.165   6.599  -1.007  0.3043  0.2763 -0.4971
    3TTP    C4224305   1.096   6.584  -1.148  0.3134  1.0248  0.6251
    4FIC     F124306   3.247   7.863   0.344 -0.0108  0.0521 -0.2420
    4FIC     F224307   3.497   7.765   0.386 -0.0767  0.0576  0.1693
    4FIC     O124308   2.969   7.406   0.260  0.1328  0.0453 -0.6866
    4FIC     N524309   3.659   7.297   0.387 -0.0688  0.0607  0.4438
    4FIC     N624310   3.392   6.960   0.313  0.0567  0.0545  0.0136
    4FIC    C1924311   3.110   7.149   0.271  0.1211  0.0481 -0.4515
    4FIC    C2024312   3.170   7.268   0.290  0.0874  0.0496 -0.3557
    4FIC    C2124313   3.091   7.396   0.283  0.0962  0.0480 -0.4875
    4FIC    C2224314   3.186   7.506   0.309  0.0528  0.0503 -0.3340
    4FIC    C2324315   3.159   7.642   0.313  0.0440  0.0498 -0.3803
    4FIC    C2424316   3.266   7.727   0.339  0.0001  0.0523 -0.2078
    4FIC    C2524317   3.395   7.676   0.361 -0.0337  0.0552  0.0040
    4FIC    C2624318   3.422   7.540   0.357 -0.0252  0.0557  0.0514
    4FIC    C2724319   3.316   7.452   0.331  0.0190  0.0530 -0.1211
    4FIC    C2824320   3.311   7.305   0.320  0.0390  0.0528 -0.1261
    4FIC    C2924321   3.416   7.218   0.335  0.0167  0.0551  0.0488
    4FIC    C3024322   3.549   7.262   0.363 -0.0303  0.0582  0.2654
    4FIC    C3124323   3.402   7.076   0.323  0.0389  0.0547  0.0284
    5FIC     F124324   1.590   7.858  -0.585 -0.4215  0.1305 -0.2494
    5FIC     F224325   1.492   7.776  -0.825 -0.4707 -0.1187 -0.1457
    5FIC     O124326   1.790   7.394  -0.392  0.1096  0.4417 -0.0465
    5FIC     N524327   1.494   7.328  -1.033 -0.1628 -0.2552  0.1488
    5FIC     N624328   1.670   6.981  -0.834  0.2621  0.0381  0.2861
    5FIC    C1924329   1.768   7.150  -0.553  0.2513  0.3141  0.1249
    5FIC    C2024330   1.721   7.270  -0.592  0.1196  0.2456  0.0699
    5FIC    C2124331   1.737   7.391  -0.504  0.0539  0.3183 -0.0172
    5FIC    C2224332   1.676   7.504  -0.576 -0.0886  0.2145 -0.0603
    5FIC    C2324333   1.666   7.636  -0.534 -0.1894  0.2331 -0.1423
    5FIC    C2424334   1.604   7.726  -0.620 -0.3171  0.1191 -0.1692
    5FIC    C2524335   1.553   7.683  -0.744 -0.3421 -0.0091 -0.1156
    5FIC    C2624336   1.563   7.552  -0.786 -0.2420 -0.0286 -0.0336
    5FIC    C2724337   1.625   7.459  -0.701 -0.1121  0.0856 -0.0052
    5FIC    C2824338   1.652   7.314  -0.716  0.0148  0.0997  0.0768
    5FIC    C2924339   1.617   7.236  -0.823  0.0318 -0.0030  0.1459
    5FIC    C3024340   1.550   7.286  -0.938 -0.0752 -0.1414  0.1471
    5FIC    C3124341   1.647   7.096  -0.829  0.1584  0.0204  0.2227
    1BTD     S224342   0.066   2.268   0.439  0.4282 -0.1672  0.2807
    1BTD     N124343   0.067   2.417   0.539 -0.1651  0.1761 -0.2144
    1BTD     N224344  -0.068   2.190   0.530  0.8247 -0.4650  0.6214
    1BTD     N324345  -0.341   2.302   0.895  0.5615 -0.4522  0.4215
    1BTD     N424346  -0.174   2.582   0.906 -0.6583  0.3379 -0.6084
    1BTD     C524347  -0.061   2.500   0.731 -0.4077  0.2510 -0.4077
    1BTD     C624348  -0.028   2.402   0.630 -0.0434  0.0572 -0.1059
    1BTD     C724349  -0.104   2.275   0.625  0.5107 -0.3017  0.3619
    1BTD     C824350  -0.209   2.252   0.721  0.6723 -0.4488  0.5046
    1BTD    C1524351  -0.237   2.350   0.817  0.3023 -0.2493  0.1975
    1BTD    C1624352  -0.164   2.473   0.822 -0.2317  0.0964 -0.2532
    1BTD    C4324353  -0.301   2.652   0.945  0.4483 -0.1433  0.3034
    1BTD    C4424354  -0.310   2.718   1.082  0.0588 -0.7861  0.0790
    1BTD    C4524355  -0.443   2.782   1.108 -0.0462  0.1873 -0.6215
    1BTD    C4624356  -0.477   2.888   1.005 -0.0562  1.5124 -0.3898
    1BTD    C4724357  -0.249   2.614   1.191 -0.2550 -0.6074 -0.4718
    1BTD    C4824358  -0.216   2.685   1.320 -0.3834 -0.5878 -0.7349
    1BTD    C4924359  -0.193   2.594   1.442  1.2537 -0.4268  0.7577
    1BTD    C5024360  -0.120   2.462   1.443  0.5821 -0.4683  0.0871
    1BTD    C7524361  -0.403   2.352   1.036  0.4414  0.3508 -0.1273
    1BTD    C7624362  -0.379   2.275   1.162 -1.6785  0.6357  0.9328
    1BTD    C7724363  -0.228   2.223   1.155  0.0265 -0.1190 -1.5613
    1BTD    C7824364  -0.184   2.146   1.283 -0.1939 -0.0916 -0.4154
    1BTD    C7924365  -0.430   2.337   1.295  0.2117 -0.4394  0.0350
    1BTD    C8024366  -0.585   2.333   1.315 -0.3076  0.6139 -0.1274
    1BTD    C8124367  -0.622   2.308   1.473  0.0465  0.3592  1.6103
    1BTD    C8224368  -0.775   2.288   1.496 -0.0199 -1.1633 -0.3714
    2TTP     S124369   0.106   2.744   0.688 -0.2237 -0.2815  0.2824
    2TTP     S524370  -0.060   2.919   1.044 -0.4940 -0.7953  0.4107
    2TTP     C124371   0.063   3.035   0.974 -0.9273 -0.3987  0.2976
    2TTP     C224372   0.121   2.987   0.860 -0.8694 -0.2167  0.2513
    2TTP     C324373   0.071   2.858   0.823 -0.4807 -0.3838  0.3035
    2TTP     C424374  -0.016   2.629   0.757  0.2098 -0.6780  0.3955
    2TTP    C1724375  -0.074   2.676   0.871  0.1519 -0.8601  0.4418
    2TTP    C1824376  -0.025   2.805   0.908 -0.2369 -0.6928  0.3896
    2TTP    C3224377   0.220   3.063   0.774 -1.4718  1.2032 -0.6694
    2TTP    C3324378   0.229   3.079   0.634  1.5474  0.7096 -0.6327
    2TTP    C3424379   0.090   3.110   0.590  0.2657  0.4411  0.0652
    2TTP    C3524380   0.105   3.138   0.444  0.2887  0.2682  1.6277
    2TTP    C3624381  -0.029   3.165   0.408  0.2252 -0.5990  1.0337
    2TTP    C3724382  -0.036   3.261   0.285 -0.1322  0.3615  0.4726
    2TTP    C3824383  -0.175   3.341   0.285 -0.9664 -0.3602  0.1241
    2TTP    C3924384  -0.173   3.459   0.182  0.2346  0.9217 -0.2656
    2TTP    C4024385  -0.295   3.549   0.211 -0.5834 -0.1645  0.2078
    2TTP    C4124386  -0.312   3.635   0.346 -2.0141  1.1859  1.1617
    2TTP    C4224387  -0.423   3.736   0.372  0.1540 -0.2374 -0.2540
    3TTP     S124388  -0.347   1.976   0.674  0.1691  0.4405 -0.1751
    3TTP     S524389  -0.604   2.061   1.008  0.5026 -0.3637  0.2945
    3TTP     C124390  -0.648   1.898   0.942  0.5850 -0.3008  0.0838
    3TTP     C224391  -0.571   1.862   0.835  0.4869 -0.0487 -0.0736
    3TTP     C324392  -0.475   1.962   0.801  0.3431  0.1038 -0.0335
    3TTP     C424393  -0.303   2.139   0.741  0.0870  0.3775  0.0355
    3TTP    C1724394  -0.379   2.175   0.848  0.1853  0.1255  0.1929
    3TTP    C1824395  -0.476   2.075   0.881  0.3285 -0.0270  0.1529
    3TTP    C3224396  -0.578   1.729   0.762  0.2964  0.6895 -0.0156
    3TTP    C3324397  -0.493   1.677   0.653 -1.2261  0.5073 -0.9357
    3TTP    C3424398  -0.558   1.706   0.519 -1.2879  0.1028  0.0689
    3TTP    C3524399  -0.693   1.628   0.482 -0.6467 -0.4867 -0.2810
    3TTP    C3624400  -0.666   1.482   0.510 -0.7383 -0.2328 -0.1156
    3TTP    C3724401  -0.778   1.372   0.502 -0.6992  0.5136 -0.4147
    3TTP    C3824402  -0.902   1.370   0.581 -1.2232 -0.6127  1.6163
    3TTP    C3924403  -0.972   1.244   0.614 -0.2591  0.6533 -0.7365
    3TTP    C4024404  -1.077   1.265   0.726 -0.5685  0.7794 -0.7747
    3TTP    C4124405  -1.087   1.136   0.824  1.4142 -0.7721  1.2972
    3TTP    C4224406  -0.952   1.074   0.865 -0.0224 -0.4585 -0.1775
    4FIC     F124407  -0.164   3.488   1.617 -0.9105  0.2282 -0.7603
    4FIC     F224408   0.033   3.666   1.556  0.0432 -0.4638  0.2216
    4FIC     O124409  -0.092   3.119   1.227 -0.7368  0.3408 -0.8351
    4FIC     N524410   0.367   3.659   1.191  1.5381 -1.3787  1.5801
    4FIC     N624411   0.384   3.335   0.899  1.4817 -1.1511  1.3237
    4FIC    C1924412   0.122   3.158   1.031  0.2361 -0.2804  0.0765
    4FIC    C2024413   0.096   3.244   1.131  0.1551 -0.2817  0.0570
    4FIC    C2124414  -0.016   3.217   1.228 -0.3557  0.0484 -0.4258
    4FIC    C2224415  -0.016   3.329   1.324 -0.3124 -0.0451 -0.3153
    4FIC    C2324416  -0.102   3.349   1.432 -0.6879  0.1743 -0.6456
    4FIC    C2424417  -0.083   3.463   1.509 -0.5575  0.0263 -0.4545
    4FIC    C2524418   0.019   3.554   1.477 -0.0659 -0.3304  0.0515
    4FIC    C2624419   0.104   3.536   1.369  0.3106 -0.5508  0.3830
    4FIC    C2724420   0.087   3.421   1.291  0.1857 -0.4056  0.1966
    4FIC    C2824421   0.160   3.372   1.171  0.4926 -0.5652  0.4455
    4FIC    C2924422   0.266   3.434   1.109  0.9937 -0.9099  0.9412
    4FIC    C3024423   0.321   3.558   1.155  1.2913 -1.1665  1.2907
    4FIC    C3124424   0.330   3.379   0.994  1.2592 -1.0406  1.1488
    5FIC     F124425  -1.062   1.845   1.656 -0.5403  0.7219 -0.1753
    5FIC     F224426  -1.233   1.669   1.538  0.6886 -0.8099  0.2634
    5FIC     O124427  -0.714   1.937   1.251 -0.8695  1.7423 -0.2320
    5FIC     N524428  -1.231   1.482   1.080  2.2209 -2.2851  0.8537
    5FIC     N624429  -0.925   1.589   0.788  1.7161 -1.1790  0.7210
    5FIC    C1924430  -0.754   1.802   0.995  0.1874  0.6412  0.1669
    5FIC    C2024431  -0.835   1.786   1.101  0.2224  0.4443  0.1641
    5FIC    C2124432  -0.808   1.859   1.230 -0.3414  1.0434 -0.0476
    5FIC    C2224433  -0.914   1.818   1.324 -0.1421  0.6365  0.0078
    5FIC    C2324434  -0.931   1.860   1.456 -0.5031  0.9505 -0.1346
    5FIC    C2424435  -1.039   1.808   1.525 -0.2108  0.4500 -0.0440
    5FIC    C2524436  -1.127   1.718   1.464  0.4223 -0.3389  0.1821
    5FIC    C2624437  -1.111   1.676   1.333  0.7849 -0.6561  0.3251
    5FIC    C2724438  -1.002   1.727   1.261  0.4978 -0.1587  0.2364
    5FIC    C2824439  -0.957   1.703   1.122  0.7472 -0.3081  0.3414
    5FIC    C2924440  -1.016   1.621   1.029  1.3487 -1.0098  0.5611
    5FIC    C3024441  -1.134   1.544   1.058  1.8263 -1.7086  0.7212
    5FIC    C3124442  -0.966   1.604   0.897  1.5473 -1.0988  0.6478
    1BTD     S224443   5.290   6.494   0.413 -0.0070  0.3491 -0.6466
    1BTD     N124444   5.327   6.597   0.555 -0.4246  0.3396 -0.5274
    1BTD     N224445   5.382   6.595   0.297  0.4283  0.2959 -0.3532
    1BTD     N324446   5.637   6.989   0.317  0.5612  0.1707  0.4598
    1BTD     N424447   5.570   6.990   0.636 -0.4897  0.2247  0.2452
    1BTD     C524448   5.455   6.802   0.594 -0.4458  0.2791 -0.1214
    1BTD     C624449   5.403   6.696   0.511 -0.2284  0.2996 -0.2875
    1BTD     C724450   5.433   6.696   0.367  0.2491  0.2750 -0.1900
    1BTD     C824451   5.514   6.801   0.311  0.4849  0.2313  0.0687
    1BTD    C1524452   5.563   6.902   0.396  0.2582  0.2125  0.2243
    1BTD    C1624453   5.534   6.903   0.535 -0.2017  0.2359  0.1304
    1BTD    C4324454   5.614   7.133   0.622 -0.4078 -0.2303 -0.6310
    1BTD    C4424455   5.515   7.260   0.628 -0.9741  0.1734 -0.2896
    1BTD    C4524456   5.580   7.414   0.634  1.0662  0.9593 -0.7307
    1BTD    C4624457   5.631   7.472   0.505  0.2427  0.8014 -0.3710
    1BTD    C4724458   5.362   7.252   0.653 -0.3127  0.2248  0.5064
    1BTD    C4824459   5.246   7.371   0.648 -0.4694 -1.1983 -0.2182
    1BTD    C4924460   5.275   7.481   0.740  0.7681 -0.2150 -0.0517
    1BTD    C5024461   5.210   7.495   0.865 -0.3017 -0.3686 -1.0808
    1BTD    C7524462   5.749   7.073   0.360 -0.4894 -0.5353 -1.1670
    1BTD    C7624463   5.896   7.060   0.351 -0.7167  0.8529  0.8079
    1BTD    C7724464   5.983   7.184   0.352  0.2634 -0.0587 -0.6723
    1BTD    C7824465   5.960   7.256   0.216  1.8112  0.0693  0.3380
    1BTD    C7924466   5.943   6.927   0.408 -0.9730  1.1251 -0.4595
    1BTD    C8024467   6.018   6.927   0.546  0.2927  0.1958  1.9806
    1BTD    C8124468   5.954   6.857   0.677 -1.0348 -0.9502  1.1647
    1BTD    C8224469   6.014   6.942   0.795  1.0344  0.6006  0.4953
    2TTP     S124470   5.361   6.777   0.883  0.4002  0.0052 -0.0171
    2TTP     S524471   5.579   7.137   0.972 -0.2184  0.3227  0.2236
    2TTP     C124472   5.482   7.090   1.119 -0.2988  0.1729  0.1228
    2TTP     C224473   5.409   6.976   1.100 -0.1125  0.0660  0.0425
    2TTP     C324474   5.427   6.922   0.969  0.1004  0.0985  0.0577
    2TTP     C424475   5.459   6.824   0.736  0.4808  0.1550  0.0836
    2TTP    C1724476   5.532   6.938   0.755  0.2945  0.2618  0.1640
    2TTP    C1824477   5.513   6.993   0.886  0.0814  0.2292  0.1487
    2TTP    C3224478   5.312   6.921   1.203 -0.0238 -0.6715  1.6447
    2TTP    C3324479   5.171   6.987   1.161 -1.3338 -1.5356  1.2435
    2TTP    C3424480   5.065   7.010   1.267  0.7032  0.9111  0.8970
    2TTP    C3524481   4.979   7.141   1.240  1.3674  0.6872 -0.6167
    2TTP    C3624482   4.943   7.228   1.125 -1.1288  0.4975 -0.6285
    2TTP    C3724483   4.901   7.155   1.006  0.8760 -0.3409  0.3486
    2TTP    C3824484   4.808   7.248   0.917  0.0123 -0.5806 -0.3097
    2TTP    C3924485   4.807   7.203   0.773 -0.0700 -1.4086  0.7484
    2TTP    C4024486   4.733   7.089   0.733  0.4854 -0.0687  0.2992
    2TTP    C4124487   4.808   6.962   0.670  0.5134  0.3711  0.8766
    2TTP    C4224488   4.695   6.865   0.635 -0.1919 -1.1850 -0.1216
    3TTP     S124489   5.515   6.791   0.005  0.3333 -0.5906 -0.0906
    3TTP     S524490   5.704   7.178   0.002 -1.7599  0.4628  0.4308
    3TTP     C124491   5.679   7.124  -0.170 -0.9940  0.3161  0.3602
    3TTP     C224492   5.619   7.001  -0.179 -0.3028 -0.0181  0.1948
    3TTP     C324493   5.591   6.946  -0.051 -0.3526 -0.1700  0.1183
    3TTP     C424494   5.540   6.845   0.177 -0.4326 -0.4439 -0.0200
    3TTP    C1724495   5.599   6.967   0.186 -1.1240 -0.1099  0.1451
    3TTP    C1824496   5.628   7.023   0.058 -1.0738  0.0422  0.2217
    3TTP    C3224497   5.588   6.905  -0.299  0.4519 -0.0383  0.9002
    3TTP    C3324498   5.662   6.774  -0.330 -0.1521 -0.0203  0.5425
    3TTP    C3424499   5.657   6.714  -0.478  1.2087 -0.2336 -0.4257
    3TTP    C3524500   5.739   6.588  -0.507 -1.0035  0.5413 -0.1238
    3TTP    C3624501   5.773   6.536  -0.645 -0.1099  0.0508 -1.1540
    3TTP    C3724502   5.810   6.377  -0.614 -0.6949 -0.6759  0.5989
    3TTP    C3824503   5.715   6.288  -0.533  0.7225 -0.6444  0.7341
    3TTP    C3924504   5.581   6.241  -0.596  0.5222  0.2852 -1.2500
    3TTP    C4024505   5.541   6.253  -0.742  0.6578 -0.0790 -0.8436
    3TTP    C4124506   5.491   6.134  -0.830  0.6100  0.4377  0.2240
    3TTP    C4224507   5.596   6.028  -0.859  0.0528 -0.2874  0.0899
    4FIC     F124508   6.206   7.221   1.462 -0.0222  0.9254  0.3178
    4FIC     F224509   6.079   7.335   1.675 -0.3386  0.0488  0.6082
    4FIC     O124510   5.783   7.071   1.159  0.3889  0.6514 -0.1237
    4FIC     N524511   5.596   7.392   1.764 -0.5004 -1.4073  0.7109
    4FIC     N624512   5.291   7.252   1.485 -0.1154 -1.4447  0.3074
    4FIC    C1924513   5.512   7.127   1.255  0.2328 -0.2837 -0.0031
    4FIC    C2024514   5.623   7.160   1.323  0.1416 -0.1804  0.0966
    4FIC    C2124515   5.759   7.128   1.267  0.2310  0.3089  0.0254
    4FIC    C2224516   5.857   7.178   1.366  0.0951  0.2985  0.1670
    4FIC    C2324517   5.996   7.171   1.358  0.1153  0.6694  0.1626
    4FIC    C2424518   6.068   7.224   1.463 -0.0328  0.5749  0.3130
    4FIC    C2524519   6.003   7.283   1.573 -0.1957  0.1229  0.4624
    4FIC    C2624520   5.864   7.290   1.581 -0.2168 -0.2487  0.4677
    4FIC    C2724521   5.790   7.236   1.475 -0.0683 -0.1600  0.3166
    4FIC    C2824522   5.643   7.228   1.453 -0.0463 -0.4723  0.2794
    4FIC    C2924523   5.545   7.274   1.538 -0.1751 -0.9419  0.3927
    4FIC    C3024524   5.573   7.339   1.662 -0.3536 -1.1960  0.5673
    4FIC    C3124525   5.406   7.262   1.508 -0.1416 -1.2158  0.3452
    5FIC     F124526   6.135   7.807  -0.261  0.6118 -0.8217  0.5348
    5FIC     F224527   6.134   7.767  -0.530 -0.8907  0.3177  0.3502
    5FIC     O124528   5.837   7.387  -0.093  0.9427 -1.1259  0.3657
    5FIC     N524529   5.918   7.411  -0.798 -2.8150  1.7390 -0.0355
    5FIC     N624530   5.685   7.091  -0.612 -2.2534  1.2715 -0.1304
    5FIC    C1924531   5.729   7.200  -0.291 -0.3750 -0.1456  0.1295
    5FIC    C2024532   5.804   7.307  -0.322 -0.3997 -0.1135  0.1793
    5FIC    C2124533   5.856   7.399  -0.215  0.3020 -0.6366  0.3011
    5FIC    C2224534   5.933   7.504  -0.284  0.0768 -0.4519  0.3276
    5FIC    C2324535   6.000   7.612  -0.226  0.5338 -0.7865  0.4306
    5FIC    C2424536   6.067   7.698  -0.311  0.1929 -0.5162  0.4358
    5FIC    C2524537   6.066   7.678  -0.450 -0.5812  0.0710  0.3405
    5FIC    C2624538   5.999   7.571  -0.508 -1.0405  0.4076  0.2379
    5FIC    C2724539   5.931   7.482  -0.423 -0.7057  0.1414  0.2313
    5FIC    C2824540   5.852   7.360  -0.453 -1.0294  0.3726  0.1359
    5FIC    C2924541   5.827   7.306  -0.577 -1.7707  0.9305  0.0281
    5FIC    C3024542   5.877   7.364  -0.698 -2.3422  1.3733 -0.0064
    5FIC    C3124543   5.749   7.188  -0.596 -2.0319  1.1150 -0.0584
    1BTD     S224544   4.322   0.570  10.905 -0.2628  0.1320  0.5265
    1BTD     N124545   4.402   0.437  10.815  0.4599  0.4780  0.6487
    1BTD     N224546   4.275   0.466  11.045 -0.8672 -0.2747  0.0358
    1BTD     N324547   4.327   0.016  11.166 -0.7946 -0.4791 -0.7429
    1BTD     N424548   4.483  -0.021  10.883  0.8405  0.4485  0.0119
    1BTD     C524549   4.443   0.199  10.854  0.6388  0.4513  0.3073
    1BTD     C624550   4.391   0.328  10.890  0.2253  0.2826  0.3338
    1BTD     C724551   4.320   0.344  11.018 -0.5175 -0.1388 -0.0091
    1BTD     C824552   4.304   0.231  11.105 -0.8097 -0.3702 -0.3614
    1BTD    C1524553   4.356   0.106  11.066 -0.3850 -0.1925 -0.3744
    1BTD    C1624554   4.425   0.090  10.942  0.3307  0.2135 -0.0438
    1BTD    C4324555   4.550  -0.147  10.933 -1.4952 -1.1693 -0.0306
    1BTD    C4424556   4.701  -0.167  10.917  0.9567  0.8209  0.2442
    1BTD    C4524557   4.781  -0.058  10.974 -0.2815  0.7168 -0.3477
    1BTD    C4624558   4.920  -0.018  10.942 -2.1987  0.4589 -0.9628
    1BTD    C4724559   4.736  -0.303  10.960  0.8329 -0.2336  0.1652
    1BTD    C4824560   4.685  -0.419  10.881 -0.2482  0.2436 -0.1643
    1BTD    C4924561   4.745  -0.563  10.882  0.7239 -0.6346  0.2226
    1BTD    C5024562   4.675  -0.647  10.776  0.2081 -0.1783 -0.3379
    1BTD    C7524563   4.322  -0.133  11.160 -0.0888 -1.0344  0.0962
    1BTD    C7624564   4.331  -0.241  11.261 -0.0591  0.6758 -0.6161
    1BTD    C7724565   4.318  -0.394  11.223 -0.4366  0.1707 -0.2610
    1BTD    C7824566   4.415  -0.453  11.122 -0.2378 -0.1391 -1.1360
    1BTD    C7924567   4.466  -0.212  11.334  0.7764  0.2931 -0.2546
    1BTD    C8024568   4.497  -0.269  11.465 -0.4517  0.3271 -0.8081
    1BTD    C8124569   4.390  -0.279  11.563  0.1175 -0.7014 -1.1277
    1BTD    C8224570   4.438  -0.351  11.690  0.3962  0.1290 -0.1332
    2TTP     S124571   4.492   0.219  10.570 -0.1984  0.0208  0.1297
    2TTP     S524572   4.473  -0.210  10.545 -0.1230  0.0534 -0.5143
    2TTP     C124573   4.448  -0.141  10.379 -0.1869  0.3013 -0.4029
    2TTP     C224574   4.452  -0.004  10.377 -0.2140  0.3059 -0.1969
    2TTP     C324575   4.476   0.051  10.507 -0.1851  0.1137 -0.1204
    2TTP     C424576   4.517   0.150  10.737 -0.1343 -0.2272  0.0184
    2TTP    C1724577   4.512   0.013  10.739 -0.1075 -0.2318 -0.1873
    2TTP    C1824578   4.489  -0.042  10.609 -0.1363 -0.0396 -0.2642
    2TTP    C3224579   4.459   0.085  10.251 -0.7302  0.9636  0.0574
    2TTP    C3324580   4.585   0.100  10.166 -0.9213  0.1493  0.5027
    2TTP    C3424581   4.558   0.200  10.054  0.1536  0.5599  0.2406
    2TTP    C3524582   4.500   0.345  10.093  1.4251  0.9516  0.2363
    2TTP    C3624583   4.457   0.440   9.968  1.0448 -0.8468 -0.5481
    2TTP    C3724584   4.372   0.568  10.001  0.5157 -1.3561  0.6562
    2TTP    C3824585   4.249   0.560  10.089 -1.2794 -1.4769 -0.9785
    2TTP    C3924586   4.146   0.464  10.044  0.4758  0.0300  0.5673
    2TTP    C4024587   4.110   0.455   9.885  0.3083  0.8061  0.0241
    2TTP    C4124588   3.965   0.485   9.836 -0.4806 -0.4063 -0.1513
    2TTP    C4224589   3.873   0.589   9.911  0.6334  0.8485  0.3593
    3TTP     S124590   4.131   0.310  11.342 -0.6044  0.3335  0.4005
    3TTP     S524591   4.117  -0.106  11.450  0.1400  0.1545 -0.1775
    3TTP     C124592   3.994  -0.016  11.550  0.0933 -0.1765  0.0669
    3TTP     C224593   3.991   0.118  11.522 -0.1394 -0.1407  0.2597
    3TTP     C324594   4.086   0.154  11.421 -0.2890  0.1493  0.2215
    3TTP     C424595   4.253   0.221  11.242 -0.5577  0.6643  0.1562
    3TTP    C1724596   4.257   0.087  11.270 -0.3251  0.6284 -0.0367
    3TTP    C1824597   4.162   0.050  11.370 -0.1754  0.3384  0.0015
    3TTP    C3224598   3.908   0.227  11.582 -0.0724 -1.0808  0.0416
    3TTP    C3324599   3.766   0.266  11.499  0.2597  0.4742 -1.7429
    3TTP    C3424600   3.642   0.248  11.594 -0.0917 -0.4596 -0.0955
    3TTP    C3524601   3.557   0.367  11.630  0.3169  0.0075 -0.9277
    3TTP    C3624602   3.538   0.402  11.778  1.1134 -0.2618 -0.2567
    3TTP    C3724603   3.438   0.501  11.749  0.7131 -1.5007  0.9981
    3TTP    C3824604   3.409   0.570  11.879  0.3761  0.6562  0.8924
    3TTP    C3924605   3.492   0.685  11.926  0.7686 -0.6863  1.1384
    3TTP    C4024606   3.502   0.797  11.822  1.8304 -1.0155  0.4633
    3TTP    C4124607   3.619   0.883  11.859  0.4829  0.8078  0.6437
    3TTP    C4224608   3.712   0.915  11.733 -0.4874 -0.4639  0.5594
    4FIC     F124609   4.773  -0.853  10.127 -0.2882 -0.1428 -0.2160
    4FIC     F224610   4.616  -0.840   9.906 -0.4805  0.0529 -0.0684
    4FIC     O124611   4.640  -0.391  10.376  0.3366 -0.0949  0.0334
    4FIC     N524612   4.293  -0.491   9.765 -0.3119  0.3693  0.3219
    4FIC     N624613   4.221  -0.133  10.004  0.2153  0.3672  0.4871
    4FIC    C1924614   4.442  -0.214  10.253  0.3751  0.1091  0.2632
    4FIC    C2024615   4.482  -0.331  10.199  0.2253  0.0896  0.1943
    4FIC    C2124616   4.584  -0.416  10.268  0.2159 -0.0176  0.0772
    4FIC    C2224617   4.604  -0.535  10.183  0.0356 -0.0119  0.0262
    4FIC    C2324618   4.689  -0.642  10.206 -0.0353 -0.0918 -0.0815
    4FIC    C2424619   4.691  -0.743  10.111 -0.2096 -0.0673 -0.1113
    4FIC    C2524620   4.610  -0.736   9.997 -0.3084  0.0332 -0.0347
    4FIC    C2624621   4.524  -0.630   9.973 -0.2383  0.1137  0.0730
    4FIC    C2724622   4.521  -0.526  10.068 -0.0623  0.0908  0.1042
    4FIC    C2824623   4.443  -0.401  10.074  0.0503  0.1569  0.2108
    4FIC    C2924624   4.351  -0.357   9.980  0.0017  0.2611  0.3059
    4FIC    C3024625   4.320  -0.431   9.862 -0.1706  0.3204  0.3145
    4FIC    C3124626   4.280  -0.234   9.994  0.1196  0.3190  0.4048
    5FIC     F124627   3.939  -0.761  11.902  0.5049 -0.1070 -0.1477
    5FIC     F224628   3.844  -0.636  12.124 -0.7454 -0.1872 -0.6219
    5FIC     O124629   3.990  -0.342  11.562  1.1228 -0.1779 -0.1455
    5FIC     N524630   3.743  -0.157  12.202 -2.1025 -0.3526 -1.3024
    5FIC     N624631   3.802   0.145  11.892 -1.3676 -0.3917 -1.2051
    5FIC    C1924632   3.917  -0.074  11.654  0.1477 -0.2796 -0.5979
    5FIC    C2024633   3.908  -0.184  11.731  0.0412 -0.2584 -0.5799
    5FIC    C2124634   3.947  -0.318  11.677  0.5667 -0.2060 -0.3409
    5FIC    C2224635   3.925  -0.415  11.785  0.2903 -0.1953 -0.3855
    5FIC    C2324636   3.948  -0.553  11.782  0.5944 -0.1512 -0.2184
    5FIC    C2424637   3.919  -0.624  11.898  0.2341 -0.1493 -0.3031
    5FIC    C2524638   3.870  -0.560  12.012 -0.4098 -0.1907 -0.5476
    5FIC    C2624639   3.848  -0.423  12.016 -0.7164 -0.2348 -0.7152
    5FIC    C2724640   3.876  -0.349  11.900 -0.3594 -0.2372 -0.6329
    5FIC    C2824641   3.863  -0.204  11.871 -0.5381 -0.2778 -0.7621
    5FIC    C2924642   3.818  -0.107  11.958 -1.1279 -0.3240 -1.0043
    5FIC    C3024643   3.777  -0.135  12.091 -1.6618 -0.3395 -1.1673
    5FIC    C3124644   3.810   0.031  11.921 -1.2564 -0.3610 -1.1133
    1BTD     S224645   3.400   0.841   0.160 -0.0662 -0.4187 -0.4019
    1BTD     N124646   3.503   0.938   0.048 -0.4009 -0.2057 -0.5287
    1BTD     N224647   3.461   0.682   0.100  0.4045 -0.2919 -0.2688
    1BTD     N324648   3.770   0.534  -0.220  0.7598  0.3508 -0.2265
    1BTD     N424649   3.822   0.849  -0.285 -0.2326  0.4571 -0.5469
    1BTD     C524650   3.669   0.888  -0.125 -0.3011  0.1391 -0.5343
    1BTD     C624651   3.574   0.851  -0.023 -0.1571 -0.0587 -0.4685
    1BTD     C724652   3.550   0.708   0.006  0.2938 -0.1070 -0.3230
    1BTD     C824653   3.623   0.608  -0.068  0.5780  0.0449 -0.2506
    1BTD    C1524654   3.715   0.649  -0.166  0.4229  0.2365 -0.3194
    1BTD    C1624655   3.738   0.787  -0.194 -0.0115  0.2830 -0.4598
    1BTD    C4324656   3.963   0.811  -0.290 -0.6159  0.4064  0.3047
    1BTD    C4424657   4.083   0.892  -0.250 -0.3248 -0.0761  0.2564
    1BTD    C4524658   4.171   0.968  -0.349 -0.3925  0.7727  1.3052
    1BTD    C4624659   4.214   0.903  -0.490  0.3445  0.0481  0.4767
    1BTD    C4724660   4.064   0.973  -0.119 -0.4159 -0.4809 -0.1517
    1BTD    C4824661   4.041   0.905   0.015  0.5410 -0.2630 -0.6004
    1BTD    C4924662   3.962   1.001   0.114  1.0214  0.0219  0.0763
    1BTD    C5024663   3.949   0.943   0.262 -0.2472  0.2048 -0.2509
    1BTD    C7524664   3.829   0.527  -0.357  0.2504  0.6511  1.1434
    1BTD    C7624665   3.804   0.390  -0.416 -1.0107  0.2545  0.2088
    1BTD    C7724666   3.694   0.417  -0.517  0.7972 -0.4142 -0.5435
    1BTD    C7824667   3.627   0.290  -0.565  0.1533  0.7534 -0.1134
    1BTD    C7924668   3.930   0.316  -0.469 -0.0374  0.4498  0.8098
    1BTD    C8024669   4.018   0.350  -0.583  0.2575  0.3679 -0.1343
    1BTD    C8124670   4.090   0.227  -0.638  0.6088 -0.2212  0.8197
    1BTD    C8224671   4.043   0.141  -0.764  0.8105  0.3607  0.6866
    2TTP     S124672   3.646   1.183  -0.167 -0.2282 -0.3208  0.0600
    2TTP     S524673   3.920   1.150  -0.497  0.1765  0.4638  0.3114
    2TTP     C124674   3.869   1.324  -0.481 -0.2049  0.3490  0.3734
    2TTP     C224675   3.782   1.345  -0.378 -0.3523  0.1000  0.2997
    2TTP     C324676   3.752   1.224  -0.308 -0.1694 -0.0092  0.1910
    2TTP     C424677   3.697   1.009  -0.183  0.1534 -0.2060 -0.0021
    2TTP    C1724678   3.784   0.989  -0.286  0.3007  0.0430  0.0714
    2TTP    C1824679   3.815   1.110  -0.356  0.1178  0.1522  0.1800
    2TTP    C3224680   3.720   1.471  -0.340  0.6518  0.5991 -0.3279
    2TTP    C3324681   3.562   1.464  -0.367 -0.2784  0.3095  0.3467
    2TTP    C3424682   3.437   1.559  -0.342 -0.0055 -0.3396 -0.2829
    2TTP    C3524683   3.444   1.713  -0.365 -0.0165  1.0812 -1.0136
    2TTP    C3624684   3.369   1.801  -0.257 -0.4874  0.4197 -0.2467
    2TTP    C3724685   3.334   1.951  -0.278  0.0010 -0.3260  0.6152
    2TTP    C3824686   3.448   2.037  -0.346  0.8274  0.2226 -0.6411
    2TTP    C3924687   3.518   2.166  -0.296  0.4288 -1.1275 -0.5904
    2TTP    C4024688   3.427   2.279  -0.241 -0.8215  0.6324 -1.0947
    2TTP    C4124689   3.289   2.294  -0.297 -0.1463  0.4314 -0.0625
    2TTP    C4224690   3.251   2.432  -0.290  0.2024 -0.1497  1.1443
    3TTP     S124691   3.533   0.347   0.040 -0.3467  0.2345 -0.6969
    3TTP     S524692   3.825   0.151  -0.208 -0.3698 -0.6726 -0.0176
    3TTP     C124693   3.742   0.025  -0.105 -0.9882 -0.4166 -0.1932
    3TTP     C224694   3.647   0.078  -0.022 -1.0176 -0.1214 -0.4133
    3TTP     C324695   3.636   0.220  -0.037 -0.5527 -0.0868 -0.4513
    3TTP     C424696   3.616   0.472  -0.062  0.2719 -0.0216 -0.5215
    3TTP    C1724697   3.711   0.419  -0.145  0.3011 -0.3168 -0.3014
    3TTP    C1824698   3.722   0.277  -0.130 -0.1639 -0.3514 -0.2635
    3TTP    C3224699   3.604   0.007   0.101  1.9647  0.6415  0.2787
    3TTP    C3324700   3.522   0.066   0.210 -0.7472  0.5135 -0.4825
    3TTP    C3424701   3.389  -0.015   0.252  0.2599  0.1576 -0.2319
    3TTP    C3524702   3.291   0.090   0.321  0.1643  1.2073 -1.8095
    3TTP    C3624703   3.207   0.029   0.435  0.0824  0.5696 -0.7428
    3TTP    C3724704   3.078   0.088   0.421  0.6556  0.7368  0.4797
    3TTP    C3824705   2.941  -0.002   0.400 -0.1524 -0.7777  0.6174
    3TTP    C3924706   2.914  -0.129   0.481  1.7439 -1.3087 -0.0535
    3TTP    C4024707   2.765  -0.162   0.457  0.2394 -0.7822 -1.4670
    3TTP    C4124708   2.714  -0.261   0.561  1.0564  0.6145  1.0074
    3TTP    C4224709   2.669  -0.220   0.694  0.7141 -0.5387  0.2516
    4FIC     F124710   4.186   1.363  -1.245  0.7911  0.2227  0.4823
    4FIC     F224711   4.182   1.635  -1.223 -0.4699  0.2394  0.1817
    4FIC     O124712   3.975   1.219  -0.768  0.9772 -0.2185  0.4318
    4FIC     N524713   4.025   1.922  -0.851 -2.1503 -0.0511 -0.2866
    4FIC     N624714   3.861   1.754  -0.483 -1.7506 -0.3992 -0.2656
    4FIC    C1924715   3.896   1.427  -0.577 -0.1614 -0.3593  0.1268
    4FIC    C2024716   3.949   1.453  -0.698 -0.1590 -0.2489  0.1512
    4FIC    C2124717   3.987   1.340  -0.791  0.4457 -0.1822  0.3116
    4FIC    C2224718   4.042   1.403  -0.912  0.2803 -0.0660  0.2966
    4FIC    C2324719   4.090   1.339  -1.026  0.6843  0.0262  0.4141
    4FIC    C2424720   4.137   1.420  -1.129  0.4189  0.1280  0.3717
    4FIC    C2524721   4.134   1.560  -1.118 -0.2312  0.1364  0.2170
    4FIC    C2624722   4.086   1.624  -1.004 -0.6369  0.0446  0.0992
    4FIC    C2724723   4.038   1.544  -0.899 -0.3767 -0.0591  0.1395
    4FIC    C2824724   3.981   1.580  -0.767 -0.6725 -0.1711  0.0441
    4FIC    C2924725   3.963   1.707  -0.718 -1.3021 -0.1976 -0.1137
    4FIC    C3024726   3.997   1.825  -0.792 -1.7662 -0.1169 -0.2084
    4FIC    C3124727   3.907   1.732  -0.589 -1.5452 -0.3083 -0.1962
    5FIC     F124728   4.334  -0.440  -0.436 -0.2468 -0.3481 -0.2089
    5FIC     F224729   4.166  -0.653  -0.416  0.0534 -0.4950  0.8900
    5FIC     O124730   4.036  -0.051  -0.205 -0.1769  0.0582 -0.7987
    5FIC     N524731   3.711  -0.681  -0.222  0.5348 -0.4158  2.0494
    5FIC     N624732   3.512  -0.335  -0.046  0.5289 -0.0687  1.3670
    5FIC    C1924733   3.770  -0.116  -0.104  0.1347  0.0625  0.0416
    5FIC    C2024734   3.851  -0.206  -0.163  0.1054 -0.0341  0.1471
    5FIC    C2124735   3.987  -0.165  -0.212 -0.0579 -0.0291 -0.3068
    5FIC    C2224736   4.049  -0.285  -0.270 -0.0483 -0.1483 -0.0517
    5FIC    C2324737   4.175  -0.297  -0.329 -0.1699 -0.1869 -0.3085
    5FIC    C2424738   4.211  -0.421  -0.377 -0.1322 -0.3043  0.0183
    5FIC    C2524739   4.124  -0.531  -0.366  0.0224 -0.3793  0.5844
    5FIC    C2624740   3.999  -0.520  -0.308  0.1444 -0.3414  0.8435
    5FIC    C2724741   3.960  -0.395  -0.259  0.1086 -0.2234  0.5190
    5FIC    C2824742   3.835  -0.350  -0.192  0.2092 -0.1559  0.6638
    5FIC    C2924743   3.725  -0.428  -0.164  0.3682 -0.1984  1.1785
    5FIC    C3024744   3.718  -0.567  -0.196  0.4593 -0.3178  1.6556
    5FIC    C3124745   3.609  -0.376  -0.099  0.4556 -0.1268  1.2792
    1BTD     S224746   4.553   0.097   8.476 -0.1712  0.5316 -0.0945
    1BTD     N124747   4.384   0.158   8.477 -0.2655  0.2743 -0.0951
    1BTD     N224748   4.514  -0.054   8.565  0.0944  0.5665  0.0837
    1BTD     N324749   4.129  -0.252   8.747  0.4658  0.1729  0.4468
    1BTD     N424750   3.969   0.010   8.638  0.0224 -0.1872  0.2263
    1BTD     C524751   4.169   0.077   8.562 -0.1098  0.0377  0.0756
    1BTD     C624752   4.311   0.067   8.540 -0.1024  0.2299  0.0312
    1BTD     C724753   4.384  -0.052   8.590  0.0991  0.3934  0.1314
    1BTD     C824754   4.311  -0.154   8.659  0.2830  0.3567  0.2708
    1BTD    C1524755   4.173  -0.140   8.679  0.2685  0.1662  0.3092
    1BTD    C1624756   4.102  -0.026   8.631  0.0742  0.0083  0.2127
    1BTD    C4324757   3.856  -0.089   8.636 -0.1319  0.3889  0.9550
    1BTD    C4424758   3.726  -0.041   8.679  0.7200  0.4308  0.8888
    1BTD    C4524759   3.609  -0.112   8.622  0.4434 -0.4502  0.5395
    1BTD    C4624760   3.609  -0.128   8.465  0.2958  1.3419 -1.8501
    1BTD    C4724761   3.737  -0.042   8.836  0.7167  0.7611  0.3453
    1BTD    C4824762   3.610  -0.052   8.941 -2.1809  0.9872  0.1877
    1BTD    C4924763   3.489   0.040   8.929  0.0443 -0.0124  0.6136
    1BTD    C5024764   3.421   0.048   9.053  0.2593 -0.3180  0.2411
    1BTD    C7524765   4.012  -0.262   8.837  0.5873  0.3871 -0.3786
    1BTD    C7624766   3.987  -0.381   8.937  0.4410  0.4288  0.0346
    1BTD    C7724767   3.848  -0.390   9.009 -1.4633 -0.2808  0.6678
    1BTD    C7824768   3.796  -0.517   9.076  0.0826  0.6412 -0.4354
    1BTD    C7924769   4.100  -0.421   9.039  0.2417  0.4050  0.8208
    1BTD    C8024770   4.089  -0.337   9.159 -0.4184 -0.4591 -1.0734
    1BTD    C8124771   4.214  -0.313   9.232  0.6537  0.6356  0.2871
    1BTD    C8224772   4.335  -0.240   9.176 -0.2834  1.8219  0.0238
    2TTP     S124773   4.075   0.355   8.480 -0.1629 -0.0561 -0.4702
    2TTP     S524774   3.682   0.266   8.628 -0.0637  0.3756  0.0603
    2TTP     C124775   3.681   0.435   8.561 -0.0903  0.2059 -0.3713
    2TTP     C224776   3.803   0.472   8.511 -0.1225  0.0626 -0.5608
    2TTP     C324777   3.901   0.369   8.525 -0.1274  0.0816 -0.3715
    2TTP     C424778   4.076   0.186   8.547 -0.1363  0.1137 -0.0384
    2TTP    C1724779   3.954   0.149   8.597 -0.1040  0.2570  0.1512
    2TTP    C1824780   3.857   0.252   8.584 -0.0992  0.2379 -0.0381
    2TTP    C3224781   3.828   0.606   8.454 -2.5648 -0.5047  0.4875
    2TTP    C3324782   3.934   0.607   8.337 -0.9189  0.7638  0.0099
    2TTP    C3424783   4.010   0.730   8.345  0.6323  0.4910 -0.6025
    2TTP    C3524784   3.949   0.860   8.304  0.4254  0.0645 -0.5047
    2TTP    C3624785   3.909   0.941   8.435  0.2087 -0.7603  0.1566
    2TTP    C3724786   3.840   1.078   8.408  0.3940  1.2739 -0.2622
    2TTP    C3824787   3.840   1.165   8.534 -0.2488 -0.8760  1.0129
    2TTP    C3924788   3.757   1.292   8.513  1.4790 -1.2501 -0.7932
    2TTP    C4024789   3.772   1.366   8.645 -0.6210 -0.5033 -0.2574
    2TTP    C4124790   3.724   1.515   8.650  0.2581  0.3581  0.3309
    2TTP    C4224791   3.567   1.514   8.649 -0.0434 -0.8489  0.9746
    3TTP     S124792   4.476  -0.386   8.654 -0.5045  0.0182  0.7151
    3TTP     S524793   4.135  -0.640   8.721 -0.5095 -0.2744 -0.3836
    3TTP     C124794   4.272  -0.742   8.656 -0.2911 -0.1145 -0.1786
    3TTP     C224795   4.385  -0.669   8.632 -0.2766 -0.0150  0.1729
    3TTP     C324796   4.368  -0.531   8.663 -0.4375 -0.0610  0.2928
    3TTP     C424797   4.340  -0.284   8.719 -0.7229 -0.1419  0.5100
    3TTP    C1724798   4.227  -0.357   8.743 -0.7374 -0.2411  0.1587
    3TTP    C1824799   4.243  -0.495   8.712 -0.5764 -0.1950  0.0386
    3TTP    C3224800   4.515  -0.717   8.579 -0.3427  0.6578  0.0251
    3TTP    C3324801   4.646  -0.751   8.653 -0.3302  0.5403  0.5383
    3TTP    C3424802   4.636  -0.893   8.716 -0.8672  0.2212  0.1566
    3TTP    C3524803   4.654  -1.017   8.638 -0.1577 -0.1702  0.2279
    3TTP    C3624804   4.708  -1.118   8.736  0.7062 -0.1843  0.5827
    3TTP    C3724805   4.621  -1.244   8.767  1.2689 -0.1965  0.4368
    3TTP    C3824806   4.671  -1.308   8.889 -0.0939 -1.0176  0.2393
    3TTP    C3924807   4.551  -1.390   8.932  0.2372  0.5109 -1.4795
    3TTP    C4024808   4.590  -1.470   9.062  1.0050 -0.2746  0.5979
    3TTP    C4124809   4.687  -1.585   9.071 -0.0537  0.3618  1.0824
    3TTP    C4224810   4.634  -1.704   9.131  0.1919  0.6267  0.1496
    4FIC     F124811   2.905   0.236   8.504 -0.4410  0.1909 -0.5581
    4FIC     F224812   2.837   0.497   8.545 -0.2281  0.2363 -0.4900
    4FIC     O124813   3.446   0.269   8.515 -0.4190 -0.3821  0.2604
    4FIC     N524814   3.124   0.894   8.612  0.0937 -0.1069  0.1910
    4FIC     N624815   3.560   0.867   8.612  0.0679 -0.5638  0.8171
    4FIC    C1924816   3.572   0.529   8.558 -0.2077 -0.5424  0.6161
    4FIC    C2024817   3.439   0.511   8.553 -0.2216 -0.3999  0.4075
    4FIC    C2124818   3.381   0.374   8.531 -0.3328 -0.3251  0.2337
    4FIC    C2224819   3.235   0.390   8.532 -0.3187 -0.1722  0.0272
    4FIC    C2324820   3.139   0.290   8.515 -0.3988 -0.0607 -0.1791
    4FIC    C2424821   3.006   0.329   8.520 -0.3659  0.0757 -0.3499
    4FIC    C2524822   2.971   0.464   8.541 -0.2563  0.0988 -0.3145
    4FIC    C2624823   3.066   0.563   8.558 -0.1759 -0.0120 -0.1090
    4FIC    C2724824   3.201   0.526   8.553 -0.2076 -0.1507  0.0658
    4FIC    C2824825   3.326   0.605   8.567 -0.1435 -0.2898  0.3011
    4FIC    C2924826   3.334   0.741   8.589 -0.0330 -0.3121  0.4008
    4FIC    C3024827   3.218   0.825   8.601  0.0364 -0.1991  0.2851
    4FIC    C3124828   3.458   0.810   8.601  0.0219 -0.4504  0.6294
    5FIC     F124829   4.040  -1.333   9.164  0.3288  0.0806  0.1504
    5FIC     F224830   4.100  -1.516   8.971 -0.7929  0.2160 -0.3424
    5FIC     O124831   4.175  -0.872   8.914  1.0899  0.0906  0.5744
    5FIC     N524832   4.282  -1.450   8.516 -1.8630  0.4168 -0.7482
    5FIC     N624833   4.376  -1.053   8.359 -1.0422  0.3972 -0.3173
    5FIC    C1924834   4.280  -0.883   8.641  0.2886  0.2230  0.2550
    5FIC    C2024835   4.244  -0.992   8.711  0.1410  0.2153  0.1674
    5FIC    C2124836   4.191  -0.978   8.851  0.5772  0.1457  0.3436
    5FIC    C2224837   4.161  -1.115   8.898  0.2756  0.1552  0.1879
    5FIC    C2324838   4.110  -1.153   9.022  0.5026  0.1054  0.2670
    5FIC    C2424839   4.090  -1.289   9.044  0.1329  0.1272  0.0845
    5FIC    C2524840   4.121  -1.382   8.944 -0.4448  0.1970 -0.1690
    5FIC    C2624841   4.172  -1.345   8.820 -0.6740  0.2470 -0.2496
    5FIC    C2724842   4.193  -1.208   8.797 -0.3066  0.2260 -0.0677
    5FIC    C2824843   4.245  -1.137   8.678 -0.4122  0.2651 -0.0904
    5FIC    C2924844   4.286  -1.193   8.560 -0.9249  0.3352 -0.3080
    5FIC    C3024845   4.284  -1.334   8.536 -1.4389  0.3800 -0.5493
    5FIC    C3124846   4.335  -1.116   8.450 -0.9865  0.3688 -0.3121
    1BTD     S224847   8.360   5.170   1.461  0.0543 -0.7922 -0.4048
    1BTD     N124848   8.310   5.116   1.625  0.2916 -0.2807 -0.1623
    1BTD     N224849   8.511   5.072   1.458 -0.0293 -0.9229 -0.3847
    1BTD     N324850   8.730   4.776   1.750  0.2279 -0.2657  0.0944
    1BTD     N424851   8.483   4.831   1.955  0.6232  0.5258  0.3684
    1BTD     C524852   8.403   4.966   1.795  0.4599  0.1309  0.1115
    1BTD     C624853   8.404   5.033   1.667  0.2959 -0.2360 -0.0829
    1BTD     C724854   8.516   5.008   1.574  0.1163 -0.5955 -0.2074
    1BTD     C824855   8.622   4.918   1.613  0.1097 -0.5703 -0.1313
    1BTD    C1524856   8.617   4.856   1.739  0.2741 -0.2048  0.0599
    1BTD    C1624857   8.509   4.880   1.829  0.4470  0.1417  0.1798
    1BTD    C4324858   8.581   4.853   2.058 -1.4006  1.5637 -0.9673
    1BTD    C4424859   8.639   4.735   2.156 -0.5802  0.0812 -0.0435
    1BTD    C4524860   8.769   4.752   2.231 -0.3758  1.1875 -0.5239
    1BTD    C4624861   8.890   4.808   2.153  0.5984  0.4784 -0.3497
    1BTD    C4724862   8.553   4.657   2.237  0.5913  0.1898 -0.3353
    1BTD    C4824863   8.596   4.521   2.302 -0.8801  0.4519 -0.2164
    1BTD    C4924864   8.611   4.515   2.453 -0.4677  0.4300 -0.9347
    1BTD    C5024865   8.475   4.568   2.504  0.4838  0.4736  0.0869
    1BTD    C7524866   8.773   4.680   1.856  0.6160  0.1484 -0.1948
    1BTD    C7624867   8.747   4.537   1.826  1.1965  0.7138  0.2605
    1BTD    C7724868   8.811   4.433   1.907  0.5956 -0.0700 -0.1913
    1BTD    C7824869   8.793   4.400   2.054 -0.2892  1.0694 -0.2604
    1BTD    C7924870   8.587   4.536   1.796 -0.0314  0.1992  1.3190
    1BTD    C8024871   8.540   4.401   1.736  0.6794 -0.2429  0.5221
    1BTD    C8124872   8.492   4.393   1.589  1.0620  0.6461 -0.6295
    1BTD    C8224873   8.564   4.358   1.457 -0.4146 -0.7935 -0.2555
    2TTP     S124874   8.167   5.073   1.934  0.5272 -0.3937 -0.4061
    2TTP     S524875   8.181   4.714   2.169 -0.8659 -0.1915  0.0036
    2TTP     C124876   8.016   4.788   2.187 -0.6943  0.2853 -0.3551
    2TTP     C224877   8.002   4.904   2.115 -0.2537  0.2509 -0.5027
    2TTP     C324878   8.121   4.938   2.044 -0.0362 -0.1532 -0.3379
    2TTP     C424879   8.332   4.999   1.916  0.3555 -0.8703 -0.0474
    2TTP    C1724880   8.346   4.884   1.988 -0.0851 -0.8360  0.1003
    2TTP    C1824881   8.227   4.850   2.059 -0.3028 -0.4319 -0.0646
    2TTP    C3224882   7.870   4.978   2.093  1.6924  0.7325 -0.1789
    2TTP    C3324883   7.862   5.120   2.087  1.6532  0.7493 -0.7275
    2TTP    C3424884   7.799   5.170   2.212 -0.2262  0.9371  1.3595
    2TTP    C3524885   7.900   5.230   2.293  0.0061 -0.9742 -2.4200
    2TTP    C3624886   7.826   5.273   2.436 -0.4231  1.2394  0.9962
    2TTP    C3724887   7.819   5.429   2.437 -0.1494  0.7701  1.0788
    2TTP    C3824888   7.682   5.483   2.399  0.1281 -0.4028 -0.2377
    2TTP    C3924889   7.541   5.419   2.398 -0.1309  0.2375  1.2375
    2TTP    C4024890   7.434   5.517   2.398  0.0608  0.4347 -0.3011
    2TTP    C4124891   7.317   5.445   2.473 -0.9368  0.5445  0.0944
    2TTP    C4224892   7.203   5.545   2.444  1.3256  0.0931 -0.2036
    3TTP     S124893   8.789   4.856   1.364 -0.8334 -0.3112  0.1708
    3TTP     S524894   9.052   4.624   1.614  0.1123  0.5078 -0.0548
    3TTP     C124895   9.119   4.626   1.445 -0.7071 -0.3338 -0.4026
    3TTP     C224896   9.042   4.697   1.358 -1.0469 -0.6361 -0.3535
    3TTP     C324897   8.927   4.753   1.421 -0.6731 -0.2143 -0.0393
    3TTP     C424898   8.722   4.854   1.533 -0.0138  0.5302  0.5186
    3TTP    C1724899   8.799   4.783   1.620  0.3261  0.8329  0.4694
    3TTP    C1824900   8.914   4.727   1.557 -0.0477  0.4110  0.1553
    3TTP    C3224901   9.046   4.730   1.214 -0.8153 -0.4376 -0.3501
    3TTP    C3324902   8.997   4.625   1.099 -0.1014 -0.8063 -0.2753
    3TTP    C3424903   9.016   4.689   0.954 -0.1462  0.4720  0.0720
    3TTP    C3524904   8.925   4.820   0.934 -0.6672 -0.5611  1.5725
    3TTP    C3624905   8.951   4.899   0.807 -1.1045 -0.5860  0.3998
    3TTP    C3724906   8.902   4.821   0.684  0.5632 -0.5261 -1.0720
    3TTP    C3824907   8.826   4.888   0.582 -0.5150  0.1595  2.1835
    3TTP    C3924908   8.817   4.822   0.427  0.2849 -1.5804  0.8491
    3TTP    C4024909   8.711   4.892   0.330  0.5820  0.0663  0.3474
    3TTP    C4124910   8.580   4.808   0.362 -0.0796  0.0617  0.3261
    3TTP    C4224911   8.575   4.662   0.293 -0.2409  0.7832  0.5524
    4FIC     F124912   7.903   4.099   2.621  0.5049 -0.6392 -0.9045
    4FIC     F224913   7.636   4.148   2.608  0.4941 -0.3594  0.1948
    4FIC     O124914   8.100   4.537   2.371 -0.0198 -0.2683 -0.6722
    4FIC     N524915   7.392   4.532   2.412  0.1053  0.3072  1.9408
    4FIC     N624916   7.600   4.864   2.219 -0.3024  0.5406  1.9007
    4FIC    C1924917   7.915   4.740   2.270 -0.2159  0.1306  0.4605
    4FIC    C2024918   7.876   4.628   2.334 -0.0836  0.0265  0.3591
    4FIC    C2124919   7.977   4.528   2.383  0.0110 -0.1779 -0.2351
    4FIC    C2224920   7.901   4.419   2.446  0.1463 -0.2483 -0.1935
    4FIC    C2324921   7.951   4.304   2.506  0.2666 -0.4295 -0.6335
    4FIC    C2424922   7.860   4.215   2.560  0.3821 -0.4631 -0.4903
    4FIC    C2524923   7.722   4.240   2.553  0.3765 -0.3185  0.0764
    4FIC    C2624924   7.671   4.355   2.494  0.2568 -0.1374  0.5174
    4FIC    C2724925   7.762   4.446   2.439  0.1386 -0.1010  0.3809
    4FIC    C2824926   7.741   4.576   2.369 -0.0029  0.0738  0.7431
    4FIC    C2924927   7.620   4.636   2.343 -0.0499  0.2460  1.3232
    4FIC    C3024928   7.495   4.578   2.381  0.0356  0.2789  1.6608
    4FIC    C3124929   7.610   4.761   2.275 -0.1885  0.4071  1.6375
    5FIC     F124930   9.769   4.284   1.782  0.2916  0.6329 -0.4553
    5FIC     F224931   9.805   4.135   1.556 -0.7637 -0.7212  0.2382
    5FIC     O124932   9.339   4.581   1.640  0.7830  1.1412 -0.8914
    5FIC     N524933   9.551   4.133   1.132 -1.9307 -2.3059  0.9243
    5FIC     N624934   9.207   4.395   1.067 -1.3342 -1.6357  0.4438
    5FIC    C1924935   9.221   4.544   1.375 -0.0511  0.0280 -0.3838
    5FIC    C2024936   9.327   4.475   1.419 -0.1333 -0.0468 -0.3012
    5FIC    C2124937   9.383   4.500   1.557  0.3157  0.5497 -0.5768
    5FIC    C2224938   9.498   4.409   1.573  0.0904  0.2921 -0.3993
    5FIC    C2324939   9.580   4.395   1.684  0.3536  0.6574 -0.5472
    5FIC    C2424940   9.683   4.302   1.676  0.0563  0.3032 -0.3264
    5FIC    C2524941   9.702   4.226   1.559 -0.4874 -0.3945  0.0308
    5FIC    C2624942   9.619   4.239   1.448 -0.7527 -0.7621  0.1801
    5FIC    C2724943   9.515   4.332   1.455 -0.4582 -0.4123 -0.0392
    5FIC    C2824944   9.411   4.370   1.356 -0.6170 -0.6484  0.0353
    5FIC    C2924945   9.395   4.318   1.230 -1.1172 -1.2999  0.3550
    5FIC    C3024946   9.481   4.217   1.176 -1.5631 -1.8506  0.6669
    5FIC    C3124947   9.292   4.361   1.141 -1.2338 -1.4808  0.4019
    1BTD     S224948   0.641   7.942   4.111 -0.1518  0.6033 -0.6443
    1BTD     N124949   0.746   8.025   4.231 -0.2890  0.6452 -0.5534
    1BTD     N224950   0.743   7.986   3.970  0.1265  0.3687 -0.5192
    1BTD     N324951   1.140   8.226   3.899  0.4460 -0.0336 -0.0995
    1BTD     N424952   1.144   8.274   4.222 -0.0660  0.3073 -0.1415
    1BTD     C524953   0.953   8.154   4.222 -0.1664  0.4649 -0.3376
    1BTD     C624954   0.846   8.078   4.164 -0.1286  0.4902 -0.4401
    1BTD     C724955   0.845   8.057   4.017  0.1040  0.3352 -0.4210
    1BTD     C824956   0.950   8.112   3.937  0.2872  0.1626 -0.3006
    1BTD    C1524957   1.053   8.186   3.999  0.2422  0.1440 -0.2031
    1BTD    C1624958   1.055   8.206   4.140  0.0180  0.2932 -0.2215
    1BTD    C4324959   1.295   8.282   4.200 -0.1062 -0.3156  1.2952
    1BTD    C4424960   1.365   8.408   4.255  0.3111  0.1089 -0.0860
    1BTD    C4524961   1.498   8.393   4.317 -0.8330  0.4709 -0.7096
    1BTD    C4624962   1.621   8.436   4.240 -2.4387  0.4515  0.4673
    1BTD    C4724963   1.326   8.543   4.204  0.8736  0.8347 -0.4430
    1BTD    C4824964   1.404   8.674   4.231 -0.6813 -0.1418  1.2465
    1BTD    C4924965   1.371   8.794   4.147  0.4643  1.4891 -0.5424
    1BTD    C5024966   1.281   8.909   4.190 -0.0405 -0.0680  0.0958
    1BTD    C7524967   1.223   8.341   3.898 -0.0591 -0.7900 -0.4764
    1BTD    C7624968   1.170   8.475   3.856  1.3172 -2.1733  0.5707
    1BTD    C7724969   1.290   8.588   3.821  0.1998  0.1965 -0.5238
    1BTD    C7824970   1.417   8.547   3.760 -0.7168  0.2650  2.2116
    1BTD    C7924971   1.054   8.533   3.938  0.3160  1.2004 -0.2712
    1BTD    C8024972   0.990   8.628   3.841  0.6213  0.5475 -0.7143
    1BTD    C8124973   0.906   8.735   3.914 -0.8279  0.2847  0.0044
    1BTD    C8224974   0.793   8.772   3.822 -0.0662  0.0556  0.3407
    2TTP     S124975   0.892   8.202   4.514  0.0992  0.0958  0.0246
    2TTP     S524976   1.279   8.385   4.556  0.2830 -0.3812  0.4448
    2TTP     C124977   1.201   8.377   4.720  0.0857 -0.2676  0.3574
    2TTP     C224978   1.077   8.320   4.717  0.0172 -0.1140  0.2224
    2TTP     C324979   1.039   8.281   4.585  0.1183 -0.0799  0.1833
    2TTP     C424980   0.970   8.210   4.350  0.2966 -0.0179  0.1121
    2TTP    C1724981   1.094   8.267   4.353  0.3650 -0.1714  0.2468
    2TTP    C1824982   1.132   8.307   4.486  0.2640 -0.2055  0.2861
    2TTP    C3224983   0.985   8.285   4.835  1.1675 -0.7237 -1.1261
    2TTP    C3324984   0.862   8.382   4.859 -0.2283  1.9211 -0.2251
    2TTP    C3424985   0.763   8.373   4.974 -0.5933 -0.2721 -1.2294
    2TTP    C3524986   0.729   8.233   5.022 -0.1630 -0.3499 -0.2759
    2TTP    C3624987   0.651   8.248   5.154 -0.6391 -0.0831 -0.8715
    2TTP    C3724988   0.624   8.136   5.244 -0.0149  0.5531 -0.1515
    2TTP    C3824989   0.743   8.104   5.339 -1.3418 -0.5099 -0.0893
    2TTP    C3924990   0.727   7.958   5.390  0.0845  1.1602  0.8723
    2TTP    C4024991   0.590   7.884   5.398  0.3686  0.5605  0.7854
    2TTP    C4124992   0.543   7.736   5.405 -0.7498 -0.4868 -0.6997
    2TTP    C4224993   0.588   7.651   5.290 -0.2039  1.0406 -0.5503
    3TTP     S124994   0.895   8.076   3.641  0.3985  0.0821 -0.4437
    3TTP     S524995   1.281   8.236   3.539  0.0731  1.0498 -0.1823
    3TTP     C124996   1.194   8.193   3.386 -0.1047  1.7639 -0.2866
    3TTP     C224997   1.069   8.141   3.408 -0.0147  1.5073 -0.3735
    3TTP     C324998   1.038   8.133   3.547  0.1979  0.7374 -0.3607
    3TTP     C424999   0.982   8.119   3.795  0.5763 -0.6318 -0.3393
    3TTP    C1725000   1.106   8.170   3.772  0.4862 -0.3753 -0.2523
    3TTP    C1825001   1.137   8.178   3.633  0.2736  0.3946 -0.2651
    3TTP    C3225002   0.979   8.070   3.316  2.2178 -0.8417 -1.2651
    3TTP    C3325003   0.861   8.172   3.255 -0.1066  0.2729 -0.1809
    3TTP    C3425004   0.748   8.114   3.163 -1.1444  0.5956 -0.6886
    3TTP    C3525005   0.693   7.990   3.220  1.6495  2.0013  0.1600
    3TTP    C3625006   0.705   7.874   3.126  0.5779  0.2370  1.7427
    3TTP    C3725007   0.634   7.728   3.152  0.3593 -0.4949 -0.1338
    3TTP    C3825008   0.648   7.665   3.291 -0.4462  0.5936 -1.5320
    3TTP    C3925009   0.794   7.652   3.349 -0.8904  0.4566 -0.5047
    3TTP    C4025010   0.904   7.548   3.323 -0.1056  0.1770  0.6471
    3TTP    C4125011   0.905   7.523   3.170 -0.3573  1.2441 -0.5604
    3TTP    C4225012   1.021   7.574   3.098 -1.2097 -0.7017 -0.8833
    4FIC     F125013   1.692   8.978   5.033  0.0475 -0.0558 -0.4269
    4FIC     F225014   1.713   8.828   5.259  0.0819  0.2213 -0.2458
    4FIC     O125015   1.352   8.675   4.740  0.7372 -0.8819 -0.3829
    4FIC     N525016   1.499   8.397   5.376  0.6229  0.0308  0.0460
    4FIC     N625017   1.229   8.190   5.101  1.1548 -0.6707  0.0439
    4FIC    C1925018   1.250   8.424   4.852  1.0150 -0.9105 -0.1943
    4FIC    C2025019   1.335   8.506   4.917  0.8402 -0.7136 -0.2124
    4FIC    C2125020   1.383   8.634   4.853  0.7053 -0.7126 -0.3114
    4FIC    C2225021   1.473   8.698   4.950  0.5294 -0.4723 -0.3060
    4FIC    C2325022   1.542   8.819   4.935  0.3638 -0.3865 -0.3797
    4FIC    C2425023   1.621   8.860   5.041  0.2155 -0.1524 -0.3574
    4FIC    C2525024   1.632   8.782   5.157  0.2336 -0.0099 -0.2640
    4FIC    C2625025   1.564   8.662   5.173  0.3984 -0.0947 -0.1901
    4FIC    C2725026   1.482   8.619   5.067  0.5500 -0.3312 -0.2112
    4FIC    C2825027   1.398   8.498   5.051  0.7417 -0.4735 -0.1502
    4FIC    C2925028   1.382   8.397   5.143  0.8140 -0.3977 -0.0541
    4FIC    C3025029   1.446   8.397   5.271  0.7086 -0.1624  0.0005
    4FIC    C3125030   1.298   8.284   5.120  1.0011 -0.5481 -0.0008
    5FIC     F125031   1.612   8.777   2.994  0.7889 -0.2553 -0.0023
    5FIC     F225032   1.573   8.639   2.762 -0.5315  0.4573 -0.2195
    5FIC     O125033   1.357   8.457   3.348  1.1745 -0.3841  0.1606
    5FIC     N525034   1.333   8.213   2.682 -2.1549  1.3897 -0.4157
    5FIC     N625035   1.142   7.991   3.006 -1.5874  1.1456 -0.2446
    5FIC    C1925036   1.228   8.212   3.253  0.0500  0.2507  0.0110
    5FIC    C2025037   1.294   8.298   3.173  0.0046  0.2556 -0.0215
    5FIC    C2125038   1.358   8.422   3.229  0.6051 -0.0823  0.0604
    5FIC    C2225039   1.420   8.492   3.116  0.3826  0.0172 -0.0021
    5FIC    C2325040   1.491   8.612   3.119  0.7631 -0.2055  0.0384
    5FIC    C2425041   1.541   8.659   2.998  0.4424 -0.0502 -0.0367
    5FIC    C2525042   1.521   8.588   2.879 -0.2379  0.3170 -0.1486
    5FIC    C2625043   1.450   8.468   2.875 -0.6206  0.5410 -0.1895
    5FIC    C2725044   1.398   8.419   2.996 -0.3047  0.3884 -0.1149
    5FIC    C2825045   1.320   8.297   3.027 -0.5639  0.5493 -0.1312
    5FIC    C2925046   1.279   8.201   2.937 -1.2080  0.9034 -0.2293
    5FIC    C3025047   1.309   8.208   2.797 -1.7264  1.1697 -0.3315
    5FIC    C3125048   1.204   8.086   2.975 -1.4130  1.0345 -0.2372
    1BTD     S225049   3.904   5.366  10.902  0.0316 -0.8928 -0.1697
    1BTD     N125050   3.844   5.415  11.065  0.0258 -0.3338 -0.3347
    1BTD     N225051   3.750   5.286  10.854  0.0172 -1.0196  0.0808
    1BTD     N325052   3.330   5.210  11.048 -0.0228 -0.2682  0.2940
    1BTD     N425053   3.445   5.369  11.308 -0.0123  0.5767 -0.2179
    1BTD     C525054   3.634   5.389  11.189  0.0057  0.1314 -0.2673
    1BTD     C625055   3.719   5.371  11.074  0.0139 -0.2735 -0.2012
    1BTD     C725056   3.667   5.299  10.956  0.0092 -0.6573  0.0312
    1BTD     C825057   3.532   5.249  10.958 -0.0035 -0.6171  0.1860
    1BTD    C1525058   3.453   5.268  11.073 -0.0112 -0.2144  0.1138
    1BTD    C1625059   3.503   5.338  11.187 -0.0067  0.1556 -0.1104
    1BTD    C4325060   3.371   5.274  11.372  0.4335 -0.1539  1.1645
    1BTD    C4425061   3.264   5.317  11.462 -0.0674  0.0733 -0.5898
    1BTD    C4525062   3.175   5.205  11.524 -0.4877  0.8681 -0.3099
    1BTD    C4625063   3.237   5.105  11.603  0.0593  0.1228  0.0260
    1BTD    C4725064   3.181   5.436  11.396 -0.6938 -0.0111 -1.0895
    1BTD    C4825065   3.102   5.504  11.515  0.8846 -0.5372  0.4331
    1BTD    C4925066   2.981   5.601  11.509  0.5782 -0.7188  1.1907
    1BTD    C5025067   2.987   5.752  11.477 -0.0594 -1.2989 -0.3524
    1BTD    C7525068   3.201   5.236  11.120  0.2192 -0.1403 -0.3547
    1BTD    C7625069   3.045   5.244  11.067 -0.2132 -0.3619  0.2021
    1BTD    C7725070   3.028   5.313  10.936 -0.9476  0.0114  0.8045
    1BTD    C7825071   3.056   5.460  10.923  0.6183 -1.0117 -1.8276
    1BTD    C7925072   2.945   5.268  11.178 -0.3226 -0.6473  0.5993
    1BTD    C8025073   2.824   5.173  11.180 -0.1169  0.6062 -0.2477
    1BTD    C8125074   2.860   5.019  11.183  0.8533  1.1055  1.7847
    1BTD    C8225075   2.921   4.980  11.321  1.0888  0.2948  0.6622
    2TTP     S125076   3.780   5.554  11.402 -0.1760 -0.5813 -0.0111
    2TTP     S525077   3.414   5.575  11.627 -0.4727  0.9991 -0.6098
    2TTP     C125078   3.540   5.674  11.713 -0.2363  0.6192 -0.5109
    2TTP     C225079   3.661   5.674  11.648 -0.1307  0.1087 -0.3202
    2TTP     C325080   3.658   5.595  11.529 -0.2328 -0.0007 -0.2453
    2TTP     C425081   3.653   5.455  11.317 -0.4126 -0.2013 -0.1100
    2TTP    C1725082   3.533   5.455  11.381 -0.5181  0.3090 -0.3007
    2TTP    C1825083   3.536   5.534  11.501 -0.4160  0.4185 -0.3756
    2TTP    C3225084   3.800   5.729  11.699  1.2725 -0.5203  0.0971
    2TTP    C3325085   3.847   5.849  11.625 -0.5416  0.3375 -0.5924
    2TTP    C3425086   4.003   5.860  11.641 -1.6432 -0.1061  0.0931
    2TTP    C3525087   4.058   5.970  11.542  0.0796  0.0660 -0.2450
    2TTP    C3625088   4.160   5.917  11.436 -0.1470 -1.5449 -0.4926
    2TTP    C3725089   4.213   6.027  11.354  0.7555 -0.0285 -0.4947
    2TTP    C3825090   4.243   5.966  11.210 -1.1092  1.3015 -1.1849
    2TTP    C3925091   4.313   6.048  11.100 -0.2084  0.6004  0.6156
    2TTP    C4025092   4.347   5.960  10.976  0.5228  0.2184  0.8263
    2TTP    C4125093   4.250   5.913  10.870 -0.6868  0.4146  1.4740
    2TTP    C4225094   4.145   5.817  10.926  0.7224 -0.2817 -0.7918
    3TTP     S125095   3.500   5.036  10.747  0.3692 -0.4099  0.0974
    3TTP     S525096   3.115   4.941  10.913 -0.0931 -0.1252 -0.7982
    3TTP     C125097   3.159   4.812  10.793  0.1122 -0.1814 -0.6630
    3TTP     C225098   3.281   4.834  10.734  0.2671 -0.2728 -0.3784
    3TTP     C325099   3.343   4.953  10.782  0.2292 -0.3015 -0.2568
    3TTP     C425100   3.455   5.165  10.867  0.1639 -0.3537 -0.0379
    3TTP    C1725101   3.334   5.143  10.925  0.0090 -0.2625 -0.3226
    3TTP    C1825102   3.271   5.024  10.877  0.0469 -0.2335 -0.4439
    3TTP    C3225103   3.353   4.753  10.613 -0.4875 -1.1848 -1.1139
    3TTP    C3325104   3.488   4.681  10.641  0.2245  1.4299  0.8019
    3TTP    C3425105   3.510   4.554  10.559 -0.2463 -0.2512 -0.0935
    3TTP    C3525106   3.458   4.535  10.411  0.4574  0.5449 -0.7795
    3TTP    C3625107   3.353   4.419  10.399 -0.0641 -1.5267 -0.0386
    3TTP    C3725108   3.315   4.367  10.273  0.4807 -0.3962 -0.3191
    3TTP    C3825109   3.248   4.465  10.190 -0.1333  0.4714 -0.5185
    3TTP    C3925110   3.108   4.494  10.246  1.2802 -1.0251 -0.1578
    3TTP    C4025111   3.036   4.595  10.151 -0.8000  0.9739  1.0488
    3TTP    C4125112   2.958   4.698  10.223 -0.5678  0.2368  0.6365
    3TTP    C4225113   3.042   4.814  10.286  1.2861 -0.7044  0.4310
    4FIC     F125114   2.977   5.635  12.309 -0.0090 -0.5455  0.1416
    4FIC     F225115   3.113   5.828  12.445 -0.1691 -0.3943  0.0890
    4FIC     O125116   3.289   5.579  11.870 -0.0704 -0.2607  0.0608
    4FIC     N525117   3.531   6.064  12.327 -0.4431  0.0262 -0.0443
    4FIC     N625118   3.748   5.982  11.957 -0.4586  0.2183 -0.0968
    4FIC    C1925119   3.530   5.743  11.844 -0.2452 -0.0151 -0.0182
    4FIC    C2025120   3.446   5.749  11.949 -0.2234 -0.0926  0.0042
    4FIC    C2125121   3.324   5.662  11.955 -0.1321 -0.2174  0.0445
    4FIC    C2225122   3.256   5.694  12.082 -0.1311 -0.2775  0.0606
    4FIC    C2325123   3.138   5.639  12.131 -0.0609 -0.3942  0.0972
    4FIC    C2425124   3.092   5.686  12.254 -0.0756 -0.4311  0.1059
    4FIC    C2525125   3.163   5.785  12.323 -0.1581 -0.3532  0.0788
    4FIC    C2625126   3.280   5.841  12.275 -0.2285 -0.2364  0.0422
    4FIC    C2725127   3.328   5.795  12.151 -0.2149 -0.1974  0.0328
    4FIC    C2825128   3.448   5.832  12.072 -0.2749 -0.0807 -0.0029
    4FIC    C2925129   3.542   5.926  12.107 -0.3616  0.0191 -0.0362
    4FIC    C3025130   3.536   6.002  12.228 -0.4061  0.0228 -0.0406
    4FIC    C3125131   3.655   5.956  12.024 -0.4146  0.1280 -0.0694
    5FIC     F125132   2.359   4.863  10.670 -0.2740 -0.4079  0.5469
    5FIC     F225133   2.354   4.601  10.598  0.0153 -0.0280 -0.9000
    5FIC     O125134   2.887   4.932  10.771 -0.4013 -0.4613  1.2603
    5FIC     N525135   2.724   4.273  10.564  0.3408  0.4805 -2.4717
    5FIC     N625136   3.137   4.380  10.658  0.1830  0.3623 -1.6227
    5FIC    C1925137   3.069   4.706  10.737 -0.1699 -0.1172  0.1314
    5FIC    C2025138   2.937   4.699  10.715 -0.1493 -0.1186  0.0086
    5FIC    C2125139   2.849   4.820  10.734 -0.2735 -0.3011  0.6170
    5FIC    C2225140   2.712   4.778  10.701 -0.2137 -0.2521  0.2975
    5FIC    C2325141   2.596   4.855  10.705 -0.2876 -0.3744  0.6499
    5FIC    C2425142   2.477   4.793  10.669 -0.2078 -0.2950  0.2331
    5FIC    C2525143   2.475   4.658  10.632 -0.0586 -0.0994 -0.5121
    5FIC    C2625144   2.590   4.580  10.628  0.0157  0.0236 -0.8671
    5FIC    C2725145   2.712   4.641  10.664 -0.0633 -0.0542 -0.4544
    5FIC    C2825146   2.850   4.588  10.670 -0.0177  0.0358 -0.6616
    5FIC    C2925147   2.889   4.459  10.641  0.1200  0.2257 -1.3444
    5FIC    C3025148   2.798   4.357  10.599  0.2409  0.3651 -1.9619
    5FIC    C3125149   3.025   4.416  10.650  0.1540  0.2997 -1.4935
    1BTD     S225150   3.555   2.220   2.221  0.3050 -0.0759  0.1051
    1BTD     N125151   3.380   2.255   2.242  0.3297  0.0086  0.1701
    1BTD     N225152   3.537   2.042   2.240  0.2151 -0.0752  0.0311
    1BTD     N325153   3.184   1.743   2.320  0.0764  0.0787 -0.0025
    1BTD     N425154   2.991   2.005   2.322  0.2175  0.1819  0.1687
    1BTD     C525155   3.179   2.121   2.284  0.2695  0.0979  0.1672
    1BTD     C625156   3.320   2.138   2.262  0.2726  0.0317  0.1349
    1BTD     C725157   3.408   2.019   2.261  0.2084 -0.0151  0.0573
    1BTD     C825158   3.350   1.889   2.282  0.1444  0.0065  0.0156
    1BTD    C1525159   3.212   1.877   2.303  0.1437  0.0716  0.0494
    1BTD    C1625160   3.127   1.992   2.304  0.2056  0.1168  0.1244
    1BTD    C4325161   2.890   1.915   2.272 -0.9415  0.4061  1.0330
    1BTD    C4425162   2.852   1.884   2.126 -0.5303  0.2696  0.4247
    1BTD    C4525163   2.765   1.760   2.089  0.4575 -0.9664 -0.1994
    1BTD    C4625164   2.791   1.704   1.948 -1.3764 -0.3744  0.4463
    1BTD    C4725165   2.800   2.013   2.058 -0.4900  0.8827  0.1901
    1BTD    C4825166   2.831   2.045   1.907 -0.2023 -0.8503 -1.7984
    1BTD    C4925167   2.940   2.000   1.820  0.5740  0.1264  1.2169
    1BTD    C5025168   2.912   2.050   1.684  0.4550 -0.1622 -0.4135
    1BTD    C7525169   3.064   1.696   2.406 -0.2050 -0.1001  1.4140
    1BTD    C7625170   3.069   1.652   2.552  0.0667 -0.1909 -1.2486
    1BTD    C7725171   2.927   1.588   2.588  0.1289 -0.5150  0.1864
    1BTD    C7825172   2.863   1.477   2.485  0.0760 -0.0110 -0.5918
    1BTD    C7925173   3.129   1.764   2.657  0.6940  0.3117  0.3538
    1BTD    C8025174   3.152   1.681   2.796 -0.2708 -0.3185  0.3789
    1BTD    C8125175   3.293   1.617   2.790 -1.2188  0.9070  0.3436
    1BTD    C8225176   3.422   1.681   2.837  0.5987  1.3869 -1.3248
    2TTP     S125177   3.029   2.396   2.287  0.2028 -0.0541  0.0646
    2TTP     S525178   2.667   2.188   2.390  0.1222  0.0831  0.0583
    2TTP     C125179   2.632   2.367   2.384  0.2223  0.1077  0.1938
    2TTP     C225180   2.742   2.441   2.352  0.2530  0.0666  0.2038
    2TTP     C325181   2.857   2.360   2.331  0.1988  0.0145  0.1047
    2TTP     C425182   3.064   2.217   2.293  0.1027 -0.0786 -0.0709
    2TTP    C1725183   2.954   2.143   2.326  0.0719 -0.0377 -0.0808
    2TTP    C1825184   2.839   2.224   2.347  0.1263  0.0146  0.0183
    2TTP    C3225185   2.742   2.598   2.341  1.3693 -0.6353 -0.8607
    2TTP    C3325186   2.876   2.672   2.381  0.8129 -0.9681 -0.1164
    2TTP    C3425187   2.880   2.816   2.363 -0.4164 -0.0042  0.6636
    2TTP    C3525188   2.827   2.876   2.251 -0.5478  0.1272 -0.5943
    2TTP    C3625189   2.850   3.027   2.255  0.8726 -0.7659  0.2638
    2TTP    C3725190   2.848   3.108   2.116  0.9938  0.2157 -0.0333
    2TTP    C3825191   2.733   3.100   2.022  0.7984  0.9404 -0.3983
    2TTP    C3925192   2.745   3.079   1.867 -0.3998  0.0814 -0.0617
    2TTP    C4025193   2.622   3.068   1.785 -0.2648 -0.5154 -0.6065
    2TTP    C4125194   2.534   2.942   1.838 -0.9265 -0.6296  0.0463
    2TTP    C4225195   2.518   2.851   1.719  0.5653  0.1192 -0.1229
    3TTP     S125196   3.560   1.674   2.243 -0.2067 -0.2284  0.3967
    3TTP     S525197   3.243   1.384   2.225 -0.1161 -0.2566 -0.9724
    3TTP     C125198   3.401   1.300   2.193  0.0390 -0.2456 -0.2755
    3TTP     C225199   3.508   1.384   2.196  0.0201 -0.2362  0.1884
    3TTP     C325200   3.470   1.519   2.225 -0.1175 -0.2374  0.0101
    3TTP     C425201   3.402   1.759   2.275 -0.3618 -0.2395 -0.3003
    3TTP    C1725202   3.295   1.674   2.272 -0.3429 -0.2488 -0.7642
    3TTP    C1825203   3.334   1.540   2.243 -0.2053 -0.2476 -0.5859
    3TTP    C3225204   3.658   1.352   2.204  0.7451 -0.5899  1.8120
    3TTP    C3325205   3.728   1.325   2.061 -0.1206 -1.3757 -1.0434
    3TTP    C3425206   3.890   1.298   2.071  1.0222 -0.0660 -0.7055
    3TTP    C3525207   3.987   1.401   2.107  0.3172  0.4855  1.4238
    3TTP    C3625208   4.005   1.461   2.245 -0.0797 -1.1479 -0.8781
    3TTP    C3725209   4.106   1.413   2.321  0.2694  0.3206  0.5332
    3TTP    C3825210   4.112   1.481   2.454 -1.0684 -0.8655 -0.0268
    3TTP    C3925211   4.232   1.487   2.539 -1.3467  0.1771  2.3149
    3TTP    C4025212   4.304   1.353   2.582 -0.9654 -0.3396 -0.0264
    3TTP    C4125213   4.328   1.223   2.509 -1.0049  0.1285  1.4456
    3TTP    C4225214   4.448   1.225   2.396  0.8799 -0.1180 -0.9743
    4FIC     F125215   1.860   2.106   2.318  0.0075  0.1361  0.0121
    4FIC     F225216   1.775   2.361   2.360  0.1777  0.2953 -0.5776
    4FIC     O125217   2.396   2.170   2.353  0.0283 -0.2427  0.3988
    4FIC     N525218   2.035   2.773   2.447  0.4373  0.2542 -1.1499
    4FIC     N625219   2.471   2.772   2.466  0.4192 -0.0737 -0.7288
    4FIC    C1925220   2.506   2.436   2.406  0.1983 -0.2250 -0.0273
    4FIC    C2025221   2.374   2.410   2.396  0.1864 -0.1360 -0.1015
    4FIC    C2125222   2.326   2.271   2.368  0.0969 -0.1518  0.1302
    4FIC    C2225223   2.178   2.278   2.363  0.1073 -0.0387 -0.0249
    4FIC    C2325224   2.089   2.173   2.340  0.0426 -0.0107  0.0975
    4FIC    C2425225   1.954   2.204   2.340  0.0682  0.1024 -0.0938
    4FIC    C2525226   1.910   2.336   2.362  0.1559  0.1843 -0.3976
    4FIC    C2625227   1.999   2.440   2.385  0.2208  0.1569 -0.5211
    4FIC    C2725228   2.136   2.411   2.386  0.1962  0.0429 -0.3310
    4FIC    C2825229   2.254   2.497   2.407  0.2483 -0.0136 -0.3902
    4FIC    C2925230   2.254   2.633   2.431  0.3369  0.0376 -0.6608
    4FIC    C3025231   2.133   2.709   2.440  0.3917  0.1565 -0.9288
    4FIC    C3125232   2.373   2.708   2.450  0.3817 -0.0239 -0.6967
    5FIC     F125233   2.921   0.681   1.937  0.0829 -0.0910 -0.7715
    5FIC     F225234   3.131   0.513   1.982 -0.4006 -0.3234  0.7095
    5FIC     O125235   3.142   1.157   2.070  0.3386 -0.0367 -1.3843
    5FIC     N525236   3.589   0.610   2.142 -0.9136 -0.6190  2.4019
    5FIC     N625237   3.719   1.016   2.237 -0.6164 -0.5297  1.6247
    5FIC    C1925238   3.420   1.165   2.160 -0.0327 -0.2394 -0.1869
    5FIC    C2025239   3.357   1.052   2.125 -0.0780 -0.2441 -0.0907
    5FIC    C2125240   3.214   1.056   2.080  0.1223 -0.1360 -0.7336
    5FIC    C2225241   3.176   0.917   2.049  0.0112 -0.1716 -0.4371
    5FIC    C2325242   3.053   0.870   2.004  0.1252 -0.1016 -0.8239
    5FIC    C2425243   3.040   0.734   1.982 -0.0179 -0.1551 -0.4238
    5FIC    C2525244   3.148   0.647   2.006 -0.2671 -0.2748  0.3391
    5FIC    C2625245   3.271   0.693   2.051 -0.3819 -0.3452  0.7285
    5FIC    C2725246   3.286   0.831   2.074 -0.2401 -0.2927  0.3330
    5FIC    C2825247   3.401   0.911   2.121 -0.3048 -0.3420  0.5763
    5FIC    C2925248   3.526   0.863   2.155 -0.5317 -0.4564  1.2843
    5FIC    C3025249   3.560   0.724   2.148 -0.7409 -0.5454  1.8964
    5FIC    C3125250   3.631   0.947   2.200 -0.5770 -0.4961  1.4674
    1BTD     S225251   6.874   6.119  10.637 -0.1381 -0.1574  0.0672
    1BTD     N125252   6.764   6.048  10.762  0.1370 -0.7498 -0.0200
    1BTD     N225253   6.763   6.085  10.500 -0.4489  0.5120  0.1445
    1BTD     N325254   6.340   5.889  10.443 -0.5860  0.8059  0.1447
    1BTD     N425255   6.342   5.843  10.766  0.1360 -0.7490 -0.0584
    1BTD     C525256   6.544   5.942  10.760  0.1278 -0.7308 -0.0377
    1BTD     C625257   6.657   6.005  10.697 -0.0095 -0.4345  0.0114
    1BTD     C725258   6.656   6.026  10.551 -0.3375  0.2716  0.1035
    1BTD     C825259   6.542   5.982  10.474 -0.5118  0.6467  0.1423
    1BTD    C1525260   6.434   5.920  10.540 -0.3677  0.3361  0.0917
    1BTD    C1625261   6.435   5.900  10.681 -0.0517 -0.3443  0.0030
    1BTD    C4325262   6.199   5.819  10.739  0.2383  0.6119 -0.0969
    1BTD    C4425263   6.171   5.654  10.745  0.1826 -0.8428 -0.4893
    1BTD    C4525264   6.028   5.603  10.752  0.3625 -0.6609  1.5367
    1BTD    C4625265   5.956   5.647  10.879  0.5138 -0.9654 -0.4484
    1BTD    C4725266   6.288   5.556  10.706 -1.2112  0.5602  0.6257
    1BTD    C4825267   6.272   5.400  10.736 -0.1462  0.3470 -0.6039
    1BTD    C4925268   6.166   5.320  10.656 -1.3189 -1.2455 -0.4721
    1BTD    C5025269   6.143   5.192  10.722  0.3643 -0.4835 -1.5260
    1BTD    C7525270   6.265   5.762  10.434  0.4745  0.3370 -1.0327
    1BTD    C7625271   6.203   5.694  10.313  0.9123 -0.5022  0.0811
    1BTD    C7725272   6.058   5.647  10.314  0.1052 -0.0922  0.9166
    1BTD    C7825273   6.031   5.497  10.321  0.0331  0.5317 -0.3616
    1BTD    C7925274   6.291   5.639  10.195  0.0415 -0.1171 -0.5333
    1BTD    C8025275   6.232   5.650  10.051  1.1796 -0.0837 -1.1159
    1BTD    C8125276   6.326   5.623   9.925  1.2230  1.0060  0.4210
    1BTD    C8225277   6.442   5.713   9.911 -0.4673 -0.7214 -0.7161
    2TTP     S125278   6.586   5.934  11.065 -0.0874  0.2217 -0.3927
    2TTP     S525279   6.198   5.750  11.102 -0.5103  1.2767  0.4945
    2TTP     C125280   6.273   5.762  11.268 -0.0530  0.9805  0.3118
    2TTP     C225281   6.398   5.819  11.266  0.1045  0.6373  0.0269
    2TTP     C325282   6.438   5.856  11.134 -0.1302  0.5958 -0.0570
    2TTP     C425283   6.511   5.922  10.899 -0.5448  0.5180 -0.2096
    2TTP    C1725284   6.387   5.865  10.901 -0.7022  0.8611  0.0751
    2TTP    C1825285   6.346   5.828  11.033 -0.4675  0.9027  0.1593
    2TTP    C3225286   6.481   5.849  11.393 -0.0542  1.1065 -0.9322
    2TTP    C3325287   6.615   5.780  11.432 -0.4578  0.9531 -0.5658
    2TTP    C3425288   6.737   5.842  11.364  0.0075 -0.6007 -0.2446
    2TTP    C3525289   6.875   5.771  11.370  0.7802  0.0063 -1.3279
    2TTP    C3625290   6.989   5.848  11.456  0.1270 -0.7373 -0.3075
    2TTP    C3725291   7.008   5.800  11.619 -0.6661  0.6559  0.5362
    2TTP    C3825292   6.892   5.768  11.712 -0.6218 -0.1084 -0.3229
    2TTP    C3925293   6.834   5.635  11.719 -1.0774  0.1958  0.7112
    2TTP    C4025294   6.926   5.550  11.811 -0.8297  0.5560 -0.0700
    2TTP    C4125295   6.904   5.397  11.793  0.1993 -1.1337 -0.6324
    2TTP    C4225296   6.984   5.293  11.860  0.7176 -0.0727  0.6017
    3TTP     S125297   6.567   6.074  10.185 -0.1366 -0.1783 -0.0386
    3TTP     S525298   6.141   6.023  10.163 -0.2738  0.7446  0.4084
    3TTP     C125299   6.194   6.128  10.024 -0.1825  0.5691  0.3105
    3TTP     C225300   6.329   6.149  10.023 -0.1346  0.2739  0.1669
    3TTP     C325301   6.395   6.084  10.131 -0.1684  0.1755  0.1287
    3TTP     C425302   6.514   5.969  10.324 -0.2278 -0.0030  0.0591
    3TTP    C1725303   6.379   5.947  10.326 -0.2757  0.2921  0.2029
    3TTP    C1825304   6.313   6.012  10.217 -0.2419  0.3908  0.2410
    3TTP    C3225305   6.401   6.216   9.909  0.9228 -0.1757  0.1876
    3TTP    C3325306   6.561   6.226   9.901 -0.1936  0.3299 -1.1656
    3TTP    C3425307   6.636   6.136   9.799  0.4369 -0.6627 -0.3023
    3TTP    C3525308   6.588   6.003   9.764 -0.6034  0.1056  0.4439
    3TTP    C3625309   6.615   5.965   9.617 -0.9020  0.6188 -0.8192
    3TTP    C3725310   6.543   5.841   9.589  0.9680 -1.0509  1.8929
    3TTP    C3825311   6.405   5.884   9.539  0.4277 -0.2622 -0.1920
    3TTP    C3925312   6.343   5.810   9.409 -0.1721  0.2262  0.2366
    3TTP    C4025313   6.195   5.852   9.411  0.7361 -0.3589 -0.6698
    3TTP    C4125314   6.091   5.749   9.342 -0.2710  0.0715 -0.6764
    3TTP    C4225315   6.077   5.798   9.202 -0.4815  0.2681  1.3188
    4FIC     F125316   5.770   5.124  11.368 -0.1680  0.3541 -0.2406
    4FIC     F225317   5.747   5.193  11.631  0.9260 -0.6527  0.1339
    4FIC     O125318   6.122   5.498  11.195 -0.8116  0.9558 -0.2597
    4FIC     N525319   5.966   5.557  11.885  2.0397 -1.6708  0.6588
    4FIC     N625320   6.245   5.835  11.696  1.3162 -0.9978  0.5684
    4FIC    C1925321   6.225   5.696  11.384  0.0049  0.2080  0.0913
    4FIC    C2025322   6.137   5.599  11.418  0.1240  0.0958  0.0815
    4FIC    C2125323   6.089   5.501  11.315 -0.3182  0.5010 -0.1042
    4FIC    C2225324   5.995   5.410  11.384 -0.0498  0.2515 -0.0645
    4FIC    C2325325   5.925   5.303  11.330 -0.2928  0.4733 -0.1926
    4FIC    C2425326   5.842   5.232  11.415  0.0455  0.1598 -0.1218
    4FIC    C2525327   5.831   5.267  11.551  0.6089 -0.3587  0.0712
    4FIC    C2625328   5.901   5.374  11.605  0.8541 -0.5822  0.1998
    4FIC    C2725329   5.985   5.448  11.520  0.5183 -0.2712  0.1308
    4FIC    C2825330   6.072   5.565  11.546  0.6474 -0.3874  0.2282
    4FIC    C2925331   6.088   5.630  11.667  1.1554 -0.8539  0.4180
    4FIC    C3025332   6.021   5.590  11.786  1.6398 -1.3015  0.5497
    4FIC    C3125333   6.174   5.742  11.682  1.2410 -0.9303  0.4996
    5FIC     F125334   5.578   5.743   9.626  0.1699  0.2186  0.4768
    5FIC     F225335   5.615   5.915   9.418  0.3065 -0.0837  0.2499
    5FIC     O125336   5.948   5.925   9.977  0.2520  0.4433  0.2749
    5FIC     N525337   5.934   6.290   9.370  0.5614 -0.3581 -0.2201
    5FIC     N625338   6.216   6.397   9.686  0.5981 -0.1216 -0.3321
    5FIC    C1925339   6.116   6.153   9.903  0.4118  0.2342 -0.0133
    5FIC    C2025340   6.021   6.100   9.823  0.3859  0.1898  0.0460
    5FIC    C2125341   5.939   5.983   9.868  0.3028  0.3039  0.1953
    5FIC    C2225342   5.846   5.952   9.758  0.2941  0.2176  0.2265
    5FIC    C2325343   5.750   5.851   9.753  0.2276  0.2742  0.3514
    5FIC    C2425344   5.674   5.841   9.638  0.2334  0.1703  0.3564
    5FIC    C2525345   5.694   5.929   9.531  0.3038  0.0147  0.2393
    5FIC    C2625346   5.789   6.030   9.535  0.3705 -0.0427  0.1142
    5FIC    C2725347   5.867   6.042   9.651  0.3656  0.0607  0.1073
    5FIC    C2825348   5.976   6.137   9.687  0.4247  0.0374 -0.0081
    5FIC    C2925349   6.024   6.239   9.608  0.5013 -0.0993 -0.1402
    5FIC    C3025350   5.975   6.267   9.477  0.5339 -0.2410 -0.1838
    5FIC    C3125351   6.129   6.325   9.651  0.5541 -0.1107 -0.2449
    1BTD     S225352   4.689  10.403   4.947 -0.4764 -0.1558 -0.1577
    1BTD     N125353   4.623  10.401   5.114 -0.4438 -0.2348 -0.1459
    1BTD     N225354   4.830  10.298   4.986 -0.3210  0.0460 -0.1743
    1BTD     N325355   4.999  10.082   5.366  0.0541  0.3152 -0.1870
    1BTD     N425356   4.744  10.209   5.525 -0.0970 -0.0310 -0.1520
    1BTD     C525357   4.689  10.299   5.327 -0.2607 -0.1242 -0.1494
    1BTD     C625358   4.705  10.327   5.187 -0.3251 -0.1130 -0.1546
    1BTD     C725359   4.821  10.269   5.115 -0.2563  0.0441 -0.1706
    1BTD     C825360   4.915  10.187   5.186 -0.1270  0.1822 -0.1806
    1BTD    C1525361   4.895  10.163   5.324 -0.0681  0.1656 -0.1751
    1BTD    C1625362   4.784  10.218   5.393 -0.1342  0.0139 -0.1597
    1BTD    C4325363   4.758  10.076   5.604 -0.0589 -0.9994  0.1600
    1BTD    C4425364   4.683   9.942   5.585  0.2037 -0.0507 -0.0635
    1BTD    C4525365   4.702   9.849   5.694 -1.4226 -0.2652 -0.7135
    1BTD    C4625366   4.571   9.863   5.773 -0.0323  0.1649  1.1707
    1BTD    C4725367   4.675   9.879   5.458 -1.1825  0.5410  0.6289
    1BTD    C4825368   4.803   9.823   5.400 -0.7497 -0.2232 -1.2723
    1BTD    C4925369   4.763   9.737   5.265 -2.0322 -0.0978 -0.4082
    1BTD    C5025370   4.713   9.595   5.265  0.5390 -0.1631  1.3758
    1BTD    C7525371   5.049  10.083   5.508 -0.0643  0.1534  0.2139
    1BTD    C7625372   5.157   9.998   5.588  0.8164  0.4392  0.9951
    1BTD    C7725373   5.101   9.863   5.632 -0.1343 -0.7281  0.2535
    1BTD    C7825374   5.133   9.828   5.774 -0.6945 -0.0936 -0.7666
    1BTD    C7925375   5.301  10.055   5.562  0.0205 -0.0797 -1.0301
    1BTD    C8025376   5.416   9.984   5.611  0.5507 -0.3626  0.5475
    1BTD    C8125377   5.513   9.970   5.500  0.2358  0.4250  0.4010
    1BTD    C8225378   5.650   9.918   5.545 -0.9086 -0.5894  0.3718
    2TTP     S125379   4.434  10.428   5.421  0.0324  0.0036  0.3278
    2TTP     S525380   4.527  10.314   5.825  0.5575  0.0281  0.2155
    2TTP     C125381   4.372  10.410   5.826  0.5976  0.0922  0.4199
    2TTP     C225382   4.335  10.451   5.701  0.4377  0.0882  0.4666
    2TTP     C325383   4.427  10.408   5.601  0.2780  0.0350  0.3426
    2TTP     C425384   4.589  10.332   5.420 -0.0077 -0.0606  0.1234
    2TTP    C1725385   4.627  10.292   5.545  0.1521 -0.0564  0.0769
    2TTP    C1825386   4.535  10.334   5.646  0.3120 -0.0026  0.2007
    2TTP    C3225387   4.199  10.509   5.653 -0.7000  0.3806  0.7633
    2TTP    C3325388   4.099  10.418   5.575  0.0804 -0.4840  0.9713
    2TTP    C3425389   3.975  10.502   5.567 -0.2121 -1.1078  1.4497
    2TTP    C3525390   3.886  10.529   5.687 -2.1257 -0.9517 -0.2146
    2TTP    C3625391   3.827  10.668   5.684 -0.0234  0.2310  0.1832
    2TTP    C3725392   3.712  10.655   5.789  0.6023  0.7170 -1.2417
    2TTP    C3825393   3.623  10.772   5.773  1.4010  0.0139  0.2410
    2TTP    C3925394   3.539  10.819   5.896  0.4528  0.8954  0.6778
    2TTP    C4025395   3.415  10.905   5.851 -0.0568 -0.3605 -0.2789
    2TTP    C4125396   3.347  11.005   5.948 -0.3902  1.1834 -0.6069
    2TTP    C4225397   3.280  10.953   6.083 -0.6348  0.5041  1.1860
    3TTP     S125398   5.136  10.081   5.000  0.3952 -0.0072  0.0206
    3TTP     S525399   5.258   9.789   5.292  0.5360 -0.1526 -0.1826
    3TTP     C125400   5.354   9.763   5.140  0.4359 -0.1011 -0.2552
    3TTP     C225401   5.322   9.851   5.041  0.3866 -0.0529 -0.1965
    3TTP     C325402   5.220   9.943   5.081  0.4261 -0.0553 -0.0924
    3TTP     C425403   5.040  10.108   5.152  0.4953 -0.0587  0.0931
    3TTP    C1725404   5.072  10.019   5.251  0.5445 -0.1070  0.0345
    3TTP    C1825405   5.173   9.927   5.211  0.5052 -0.1047 -0.0696
    3TTP    C3225406   5.385   9.868   4.909 -0.4018 -0.7702  1.2510
    3TTP    C3325407   5.310   9.796   4.785 -0.8274 -0.0197 -1.6028
    3TTP    C3425408   5.196   9.870   4.736 -0.8842 -0.1709  1.0266
    3TTP    C3525409   5.221   9.995   4.638  0.8139  0.3193 -0.9444
    3TTP    C3625410   5.334  10.043   4.538 -0.8704  0.7386 -0.7563
    3TTP    C3725411   5.294  10.175   4.475 -0.1940  0.1105  0.6611
    3TTP    C3825412   5.401  10.235   4.373  0.2316  0.1994  0.4901
    3TTP    C3925413   5.393  10.204   4.230 -0.1328 -0.9199  1.1922
    3TTP    C4025414   5.293  10.277   4.120 -0.6118  0.6310 -0.4264
    3TTP    C4125415   5.320  10.424   4.086 -0.5970 -0.6382  0.0989
    3TTP    C4225416   5.263  10.500   3.973 -0.2338  0.6122 -0.5450
    4FIC     F125417   4.272  10.103   6.577 -0.0398  0.0894  0.2031
    4FIC     F225418   4.129  10.325   6.640  0.4896  0.3798  0.3967
    4FIC     O125419   4.388  10.201   6.057 -0.1265  0.0882  0.1836
    4FIC     N525420   4.004  10.714   6.361  1.1888  0.7968  0.6613
    4FIC     N625421   4.123  10.746   5.942  1.0141  0.7372  0.6069
    4FIC    C1925422   4.291  10.448   5.933  0.3484  0.3654  0.3616
    4FIC    C2025423   4.268  10.415   6.061  0.3495  0.3543  0.3589
    4FIC    C2125424   4.321  10.286   6.118  0.0973  0.2079  0.2645
    4FIC    C2225425   4.277  10.281   6.259  0.1688  0.2348  0.2878
    4FIC    C2325426   4.303  10.181   6.352  0.0011  0.1328  0.2238
    4FIC    C2425427   4.251  10.198   6.480  0.1146  0.1844  0.2626
    4FIC    C2525428   4.177  10.313   6.512  0.3872  0.3343  0.3620
    4FIC    C2625429   4.152  10.413   6.419  0.5558  0.4368  0.4265
    4FIC    C2725430   4.203  10.397   6.290  0.4447  0.3865  0.3886
    4FIC    C2825431   4.194  10.484   6.170  0.5664  0.4656  0.4365
    4FIC    C2925432   4.130  10.605   6.161  0.8301  0.6139  0.5338
    4FIC    C3025433   4.061  10.665   6.271  1.0263  0.7141  0.6034
    4FIC    C3125434   4.126  10.682   6.040  0.9298  0.6809  0.5735
    5FIC     F125435   5.491   9.063   5.541 -0.1857  0.0675 -0.0588
    5FIC     F225436   5.687   9.005   5.362 -0.0015  0.2902  0.0687
    5FIC     O125437   5.323   9.543   5.358 -0.3616  0.0484  0.0517
    5FIC     N525438   5.849   9.264   4.973  0.1376  0.5975  0.3303
    5FIC     N625439   5.678   9.652   4.866 -0.0371  0.5379  0.3909
    5FIC    C1925440   5.450   9.659   5.121 -0.2483  0.2549  0.2126
    5FIC    C2025441   5.485   9.540   5.174 -0.2112  0.2508  0.1798
    5FIC    C2125442   5.415   9.488   5.296 -0.2741  0.1414  0.0967
    5FIC    C2225443   5.476   9.357   5.327 -0.2114  0.1674  0.0799
    5FIC    C2325444   5.445   9.271   5.432 -0.2371  0.0925  0.0104
    5FIC    C2425445   5.517   9.153   5.441 -0.1650  0.1362  0.0081
    5FIC    C2525446   5.618   9.123   5.348 -0.0705  0.2512  0.0739
    5FIC    C2625447   5.650   9.209   5.244 -0.0440  0.3264  0.1435
    5FIC    C2725448   5.578   9.329   5.233 -0.1160  0.2830  0.1466
    5FIC    C2825449   5.587   9.440   5.135 -0.1122  0.3397  0.2106
    5FIC    C2925450   5.674   9.449   5.029 -0.0322  0.4518  0.2844
    5FIC    C3025451   5.770   9.347   4.999  0.0608  0.5317  0.3095
    5FIC    C3125452   5.676   9.560   4.940 -0.0353  0.4983  0.3426
    1BTD     S225453   3.689   8.679   0.131 -0.1768  0.2735 -0.1068
    1BTD     N125454   3.716   8.757  -0.029  0.4495  0.3657  0.0399
    1BTD     N225455   3.828   8.566   0.115 -0.5410 -0.2060  0.0682
    1BTD     N325456   4.161   8.478  -0.204 -0.1527 -1.0176  0.6900
    1BTD     N425457   4.023   8.713  -0.381  1.0680 -0.3133  0.6552
    1BTD     C525458   3.878   8.732  -0.211  0.7578  0.0024  0.3614
    1BTD     C625459   3.822   8.698  -0.082  0.3594  0.0503  0.2034
    1BTD     C725460   3.885   8.591  -0.002 -0.1951 -0.2699  0.2192
    1BTD     C825461   4.000   8.523  -0.053 -0.3237 -0.6213  0.3924
    1BTD    C1525462   4.051   8.559  -0.180  0.0794 -0.6551  0.5436
    1BTD    C1625463   3.991   8.662  -0.257  0.6136 -0.3469  0.5285
    1BTD    C4325464   4.158   8.705  -0.450  0.3743  0.5856 -0.5710
    1BTD    C4425465   4.186   8.707  -0.600 -0.2596 -0.6094 -0.2882
    1BTD    C4525466   4.339   8.717  -0.624  0.9660  0.4679  0.5690
    1BTD    C4625467   4.411   8.828  -0.552  0.4334  0.4373  0.1068
    1BTD    C4725468   4.103   8.625  -0.698 -0.7139 -0.3822 -0.5144
    1BTD    C4825469   4.106   8.640  -0.842 -1.1360 -0.9503  1.2213
    1BTD    C4925470   4.067   8.766  -0.919 -0.2747 -0.0647  0.1047
    1BTD    C5025471   4.063   8.787  -1.065  0.2437 -0.2864  1.1238
    1BTD    C7525472   4.237   8.421  -0.320  0.1843 -0.2693  1.3023
    1BTD    C7625473   4.388   8.422  -0.346 -0.4966  0.4757  0.2102
    1BTD    C7725474   4.445   8.344  -0.479 -0.8789 -0.6056 -0.5037
    1BTD    C7825475   4.427   8.186  -0.486  1.1806  0.1074 -0.2594
    1BTD    C7925476   4.457   8.555  -0.320  0.0756 -0.6546  1.4190
    1BTD    C8025477   4.596   8.558  -0.238  1.1667  0.2521 -0.2283
    1BTD    C8125478   4.615   8.481  -0.114  0.7143  0.2628 -0.6496
    1BTD    C8225479   4.747   8.402  -0.100 -0.7439  1.1117 -0.3353
    2TTP     S125480   3.789   9.011  -0.284 -0.2138 -0.0737 -0.2184
    2TTP     S525481   4.095   9.024  -0.585  0.1863 -0.1044  0.1845
    2TTP     C125482   4.029   9.192  -0.562  0.2140 -0.0869  0.1387
    2TTP     C225483   3.930   9.198  -0.468  0.0921 -0.0765  0.0114
    2TTP     C325484   3.904   9.070  -0.410 -0.0275 -0.0815 -0.0544
    2TTP     C425485   3.855   8.843  -0.306 -0.2414 -0.0911 -0.1726
    2TTP    C1725486   3.954   8.837  -0.401 -0.1195 -0.1016 -0.0456
    2TTP    C1825487   3.980   8.965  -0.459  0.0001 -0.0961  0.0200
    2TTP    C3225488   3.824   9.305  -0.430 -0.2340  0.8955 -1.1161
    2TTP    C3325489   3.677   9.317  -0.482 -1.8575  0.5757 -0.0683
    2TTP    C3425490   3.583   9.428  -0.448  0.1611 -0.2244 -0.0850
    2TTP    C3525491   3.608   9.521  -0.342  1.1884 -0.3783  1.4307
    2TTP    C3625492   3.544   9.665  -0.382 -0.4936  1.6815  0.7790
    2TTP    C3725493   3.538   9.774  -0.284  0.7714  0.7684 -0.1470
    2TTP    C3825494   3.574   9.757  -0.126 -0.2809 -0.9733  0.6697
    2TTP    C3925495   3.520   9.871  -0.038  1.4272 -0.9018  0.8836
    2TTP    C4025496   3.374   9.872  -0.044  1.2146 -0.6626  0.4414
    2TTP    C4125497   3.293   9.909   0.082 -0.6319 -0.4860 -1.1458
    2TTP    C4225498   3.164   9.850   0.050  1.6505  0.3991 -0.0436
    3TTP     S125499   4.119   8.332   0.161 -0.0967  0.3959 -0.2740
    3TTP     S525500   4.388   8.180  -0.139 -0.0391 -0.8807  0.4115
    3TTP     C125501   4.412   8.084   0.014 -0.0789 -0.2448  0.8208
    3TTP     C225502   4.330   8.126   0.116 -0.0989  0.1867  0.6332
    3TTP     C325503   4.246   8.234   0.076 -0.0838  0.0310  0.1595
    3TTP     C425504   4.095   8.427   0.008 -0.0571 -0.2396 -0.6833
    3TTP    C1725505   4.177   8.386  -0.094 -0.0370 -0.6715 -0.4961
    3TTP    C1825506   4.261   8.277  -0.054 -0.0521 -0.5157 -0.0219
    3TTP    C3225507   4.286   8.064   0.252 -0.5886 -0.6748 -1.6688
    3TTP    C3325508   4.345   8.137   0.383 -0.1376  0.3639 -1.6123
    3TTP    C3425509   4.298   8.089   0.521  0.0886  0.4983  0.1533
    3TTP    C3525510   4.319   7.939   0.546  1.2620 -0.2596 -0.2367
    3TTP    C3625511   4.298   7.898   0.692  0.6625  0.9122 -1.4042
    3TTP    C3725512   4.275   7.743   0.732 -0.2347 -0.7436  0.7911
    3TTP    C3825513   4.388   7.653   0.727 -0.6264  0.9838 -0.0652
    3TTP    C3925514   4.457   7.640   0.592  0.0267 -0.1859  0.5574
    3TTP    C4025515   4.588   7.554   0.633  0.5027 -0.5193  1.7117
    3TTP    C4125516   4.703   7.525   0.530  0.2055  0.0388 -0.8238
    3TTP    C4225517   4.733   7.652   0.453  1.6155 -0.7160 -0.7318
    4FIC     F125518   4.568   9.379  -1.145 -0.0563  0.0682  0.1392
    4FIC     F225519   4.507   9.642  -1.110  0.4938  0.1161  0.7839
    4FIC     O125520   4.232   9.148  -0.789 -0.6562 -0.1204 -0.5453
    4FIC     N525521   4.179   9.855  -0.806  0.8572  0.0505  1.2228
    4FIC     N625522   3.929   9.621  -0.535  0.2776 -0.1061  0.5579
    4FIC    C1925523   4.054   9.316  -0.629 -0.3436 -0.1417 -0.1724
    4FIC    C2025524   4.141   9.364  -0.720 -0.2142 -0.0958 -0.0255
    4FIC    C2125525   4.229   9.271  -0.799 -0.3896 -0.0880 -0.2341
    4FIC    C2225526   4.311   9.356  -0.888 -0.1827 -0.0343  0.0031
    4FIC    C2325527   4.407   9.315  -0.979 -0.2437 -0.0100 -0.0718
    4FIC    C2425528   4.472   9.413  -1.053 -0.0117  0.0413  0.1956
    4FIC    C2525529   4.440   9.548  -1.034  0.2715  0.0659  0.5278
    4FIC    C2625530   4.344   9.590  -0.943  0.3338  0.0410  0.6049
    4FIC    C2725531   4.277   9.492  -0.868  0.1018 -0.0105  0.3369
    4FIC    C2825532   4.172   9.503  -0.764  0.0938 -0.0470  0.3328
    4FIC    C2925533   4.114   9.619  -0.718  0.3272 -0.0374  0.6077
    4FIC    C3025534   4.150   9.748  -0.767  0.6179  0.0110  0.9449
    4FIC    C3125535   4.013   9.619  -0.618  0.2986 -0.0756  0.5789
    5FIC     F125536   5.046   7.710  -0.333  0.6514  0.0137  0.5746
    5FIC     F225537   4.984   7.489  -0.186 -0.0286 -0.3166 -0.1915
    5FIC     O125538   4.661   8.053  -0.166  0.7104  0.0863  0.5624
    5FIC     N525539   4.622   7.415   0.143 -0.9639 -0.7393 -1.3016
    5FIC     N625540   4.334   7.728   0.243 -0.7808 -0.6164 -1.1568
    5FIC    C1925541   4.466   7.963   0.033  0.0818 -0.2035 -0.1739
    5FIC    C2025542   4.565   7.886  -0.015  0.0936 -0.2087 -0.1409
    5FIC    C2125543   4.661   7.939  -0.117  0.4264 -0.0545  0.2477
    5FIC    C2225544   4.756   7.829  -0.147  0.3482 -0.1040  0.1800
    5FIC    C2325545   4.863   7.831  -0.235  0.5751 -0.0035  0.4532
    5FIC    C2425546   4.938   7.715  -0.247  0.4412 -0.0783  0.3198
    5FIC    C2525547   4.906   7.601  -0.171  0.0908 -0.2484 -0.0747
    5FIC    C2625548   4.800   7.599  -0.082 -0.1371 -0.3494 -0.3490
    5FIC    C2725549   4.722   7.715  -0.070 -0.0062 -0.2757 -0.2198
    5FIC    C2825550   4.604   7.745   0.014 -0.1768 -0.3471 -0.4326
    5FIC    C2925551   4.542   7.660   0.102 -0.5195 -0.5100 -0.8250
    5FIC    C3025552   4.586   7.526   0.124 -0.7627 -0.6356 -1.0856
    5FIC    C3125553   4.428   7.697   0.179 -0.6613 -0.5674 -1.0053
    1BTD     S225554   6.477  11.053   5.239 -0.0617  0.1817 -0.1106
    1BTD     N125555   6.625  11.123   5.166 -0.4648  0.0539 -1.0862
    1BTD     N225556   6.528  10.883   5.216  0.3392  0.1278  1.0488
    1BTD     N325557   6.901  10.661   5.037  0.4278 -0.2129  1.6505
    1BTD     N425558   7.021  10.958   4.976 -0.5628 -0.3037 -0.9801
    1BTD     C525559   6.831  11.033   5.067 -0.5040 -0.1316 -0.9991
    1BTD     C625560   6.702  11.021   5.130 -0.2891 -0.0184 -0.5262
    1BTD     C725561   6.647  10.886   5.158  0.1611  0.0229  0.6688
    1BTD     C825562   6.724  10.770   5.122  0.3735 -0.0510  1.3312
    1BTD    C1525563   6.850  10.787   5.061  0.1503 -0.1611  0.8327
    1BTD    C1625564   6.903  10.917   5.034 -0.2832 -0.2013 -0.3188
    1BTD    C4325565   7.107  10.893   4.873  0.7787  0.0351 -0.0253
    1BTD    C4425566   7.140  10.976   4.746 -0.6402  0.2735  0.8381
    1BTD    C4525567   7.278  10.918   4.697  0.1299 -0.4813 -0.2918
    1BTD    C4625568   7.371  11.003   4.621  1.1106  0.3498 -0.5313
    1BTD    C4725569   7.047  11.008   4.631 -0.0786 -0.3511 -0.0657
    1BTD    C4825570   6.932  11.088   4.675  1.1536 -0.0630 -0.1789
    1BTD    C4925571   6.825  11.138   4.572 -0.3405 -0.1227 -1.2422
    1BTD    C5025572   6.754  11.240   4.650 -0.7271 -0.2489  1.6695
    1BTD    C7525573   7.042  10.647   5.072 -1.2905  0.5928  1.4463
    1BTD    C7625574   7.134  10.529   5.051  0.1884 -0.6214  0.4988
    1BTD    C7725575   7.143  10.513   4.904 -0.0100  0.3267  0.7893
    1BTD    C7825576   7.180  10.376   4.829  0.1297  0.7677  0.3209
    1BTD    C7925577   7.278  10.536   5.111  0.3879  1.4450 -0.2619
    1BTD    C8025578   7.379  10.647   5.098 -0.2891 -0.4063  0.8450
    1BTD    C8125579   7.415  10.721   4.968  1.0398  0.3352  1.5369
    1BTD    C8225580   7.529  10.809   5.001  0.0828  0.1828  0.0122
    2TTP     S125581   6.937  11.316   5.113 -0.7090 -0.0663 -0.0735
    2TTP     S525582   7.320  11.181   4.971 -0.3530  0.2476  0.5783
    2TTP     C125583   7.338  11.351   5.034 -0.5518  0.1827  0.8127
    2TTP     C225584   7.221  11.403   5.082 -0.6733  0.0819  0.6253
    2TTP     C325585   7.113  11.310   5.070 -0.6140  0.0524  0.2898
    2TTP     C425586   6.919  11.147   5.050 -0.5101 -0.0013 -0.3077
    2TTP    C1725587   7.036  11.095   5.003 -0.3887  0.0996 -0.1203
    2TTP    C1825588   7.145  11.187   5.014 -0.4480  0.1290  0.2153
    2TTP    C3225589   7.174  11.542   5.131  0.3512  1.4754 -1.4279
    2TTP    C3325590   7.173  11.547   5.283  0.4837 -0.4537 -0.0759
    2TTP    C3425591   7.052  11.575   5.370  0.5541 -1.1143  1.4414
    2TTP    C3525592   7.063  11.590   5.512  0.1419 -0.4794 -0.6219
    2TTP    C3625593   6.980  11.695   5.594  0.6915  0.6314  0.0166
    2TTP    C3725594   6.826  11.683   5.598  0.8762 -1.3463 -0.8504
    2TTP    C3825595   6.766  11.678   5.740  0.5924 -0.0387 -0.2813
    2TTP    C3925596   6.613  11.696   5.750  1.2444 -0.1586 -0.7040
    2TTP    C4025597   6.523  11.619   5.851  0.1100 -0.5134  0.1023
    2TTP    C4125598   6.381  11.670   5.861  0.7231 -1.3611  0.9112
    2TTP    C4225599   6.338  11.618   5.998  0.6644  0.8654  0.1325
    3TTP     S125600   6.577  10.517   5.195  0.1173 -0.3857 -0.1420
    3TTP     S525601   6.884  10.284   5.005  0.0373 -0.0970 -0.6289
    3TTP     C125602   6.758  10.171   5.071  0.0130 -0.1941 -0.8395
    3TTP     C225603   6.656  10.236   5.134  0.0360 -0.2890 -0.7015
    3TTP     C325604   6.674  10.378   5.132  0.0740 -0.2882 -0.4244
    3TTP     C425605   6.704  10.630   5.129  0.1416 -0.2887  0.0687
    3TTP    C1725606   6.806  10.565   5.066  0.1184 -0.1940 -0.0693
    3TTP    C1825607   6.788  10.423   5.068  0.0805 -0.1943 -0.3463
    3TTP    C3225608   6.558  10.159   5.227  0.2078  0.5887 -1.5112
    3TTP    C3325609   6.405  10.155   5.184 -1.5035  0.2449 -0.0394
    3TTP    C3425610   6.364  10.061   5.297 -0.5531 -0.3342  0.0626
    3TTP    C3525611   6.223  10.061   5.339  0.1632  1.4166  0.4550
    3TTP    C3625612   6.155   9.922   5.324 -0.5628  0.9291 -0.6140
    3TTP    C3725613   6.021   9.907   5.364  1.1782  0.2574 -1.4509
    3TTP    C3825614   5.958   9.775   5.324  1.1076  0.0561  0.8910
    3TTP    C3925615   5.966   9.645   5.402  1.0745  1.0338  0.9232
    3TTP    C4025616   5.951   9.517   5.323  1.0687  0.0442  0.5667
    3TTP    C4125617   5.971   9.391   5.404  0.9221  0.4483  0.9832
    3TTP    C4225618   6.086   9.379   5.494 -0.2913 -1.1554 -0.3823
    4FIC     F125619   8.060  11.016   5.229  0.1266  0.4840  0.5047
    4FIC     F225620   8.181  11.240   5.132 -0.0427  0.4804  0.2837
    4FIC     O125621   7.539  11.145   5.163  0.0244  0.1235  0.6015
    4FIC     N525622   7.984  11.654   4.946 -0.3581  0.2182  0.0350
    4FIC     N625623   7.551  11.710   4.914 -0.4038 -0.0629  0.1552
    4FIC    C1925624   7.469  11.405   5.047 -0.1733 -0.0082  0.4249
    4FIC    C2025625   7.596  11.364   5.068 -0.1409  0.0827  0.4090
    4FIC    C2125626   7.623  11.229   5.128 -0.0381  0.1460  0.5041
    4FIC    C2225627   7.770  11.216   5.136 -0.0273  0.2393  0.4585
    4FIC    C2325628   7.843  11.108   5.185  0.0548  0.3207  0.5150
    4FIC    C2425629   7.982  11.119   5.182  0.0479  0.4006  0.4540
    4FIC    C2525630   8.044  11.235   5.132 -0.0394  0.3989  0.3403
    4FIC    C2625631   7.971  11.343   5.083 -0.1220  0.3178  0.2834
    4FIC    C2725632   7.831  11.333   5.085 -0.1160  0.2360  0.3436
    4FIC    C2825633   7.726  11.429   5.041 -0.1893  0.1397  0.3088
    4FIC    C2925634   7.747  11.553   4.987 -0.2836  0.1092  0.2036
    4FIC    C3025635   7.877  11.608   4.965 -0.3242  0.1693  0.1112
    4FIC    C3125636   7.639  11.639   4.947 -0.3490  0.0147  0.1775
    5FIC     F125637   7.335   9.642   4.853 -0.3082 -0.0134 -0.4625
    5FIC     F225638   7.145   9.448   4.831 -0.2453 -0.2024  0.5316
    5FIC     O125639   7.034  10.061   5.018 -0.1625  0.2286 -0.8107
    5FIC     N525640   6.658   9.468   4.915 -0.0508 -0.3014  1.7126
    5FIC     N625641   6.461   9.834   5.048  0.0503 -0.0741  1.2399
    5FIC    C1925642   6.746  10.025   5.054 -0.0506  0.1345  0.0153
    5FIC    C2025643   6.829   9.927   5.014 -0.0896  0.0808  0.0640
    5FIC    C2125644   6.976   9.953   4.997 -0.1463  0.1349 -0.3784
    5FIC    C2225645   7.036   9.826   4.953 -0.1785  0.0546 -0.1956
    5FIC    C2325646   7.170   9.802   4.924 -0.2331  0.0675 -0.4693
    5FIC    C2425647   7.204   9.673   4.883 -0.2546 -0.0205 -0.2147
    5FIC    C2525648   7.106   9.574   4.872 -0.2218 -0.1179  0.2972
    5FIC    C2625649   6.972   9.598   4.900 -0.1673 -0.1311  0.5727
    5FIC    C2725650   6.936   9.727   4.941 -0.1448 -0.0434  0.3215
    5FIC    C2825651   6.805   9.785   4.979 -0.0890 -0.0310  0.5014
    5FIC    C2925652   6.684   9.719   4.980 -0.0453 -0.1082  0.9817
    5FIC    C3025653   6.670   9.581   4.944 -0.0485 -0.2141  1.3819
    5FIC    C3125654   6.562   9.783   5.017  0.0070 -0.0889  1.1209
    1BTD     S225655   1.725   4.267   2.543  0.2087 -0.1843 -0.1910
    1BTD     N125656   1.669   4.105   2.599  0.1982 -0.2331 -0.3433
    1BTD     N225657   1.791   4.315   2.704  0.0183 -0.2533 -0.0912
    1BTD     N325658   1.825   4.121   3.130 -0.3884 -0.4826 -0.1628
    1BTD     N425659   1.674   3.862   3.000 -0.1667 -0.4576 -0.4736
    1BTD     C525660   1.673   3.981   2.810  0.0050 -0.3506 -0.4076
    1BTD     C625661   1.701   4.096   2.727  0.0606 -0.2953 -0.3136
    1BTD     C725662   1.769   4.213   2.786 -0.0402 -0.3067 -0.1724
    1BTD     C825663   1.807   4.210   2.925 -0.1914 -0.3728 -0.1324
    1BTD    C1525664   1.778   4.096   3.002 -0.2408 -0.4254 -0.2278
    1BTD    C1625665   1.712   3.983   2.945 -0.1438 -0.4144 -0.3640
    1BTD    C4325666   1.704   3.803   3.132 -0.0201 -1.4510  0.2001
    1BTD    C4425667   1.814   3.708   3.124 -0.9319 -0.5986 -0.1055
    1BTD    C4525668   1.785   3.568   3.073 -0.5847  0.8726 -0.3866
    1BTD    C4625669   1.731   3.490   3.200  0.3058 -0.5673 -0.1393
    1BTD    C4725670   1.954   3.734   3.075  0.4050 -0.4680 -0.3443
    1BTD    C4825671   2.023   3.851   3.154  0.4604  0.6234 -0.3373
    1BTD    C4925672   2.166   3.836   3.203 -0.1659  1.0770 -0.2205
    1BTD    C5025673   2.220   3.982   3.204 -0.9527  1.3834 -1.3698
    1BTD    C7525674   1.773   4.065   3.270  0.1757  0.3492  0.2382
    1BTD    C7625675   1.709   4.145   3.379  0.3274  0.1594 -0.7303
    1BTD    C7725676   1.575   4.225   3.361  0.8622  0.5568 -0.7172
    1BTD    C7825677   1.522   4.306   3.471 -1.5376 -1.1601 -0.5742
    1BTD    C7925678   1.701   4.036   3.495 -0.4244 -1.0935  0.1564
    1BTD    C8025679   1.712   4.065   3.642  1.0321  0.6737  0.5963
    1BTD    C8125680   1.846   4.116   3.671 -0.9836 -0.3180 -1.4522
    1BTD    C8225681   1.846   4.153   3.827 -0.2642  0.9990 -0.4431
    2TTP     S125682   1.494   3.814   2.662 -0.2101  0.0815  0.5261
    2TTP     S525683   1.412   3.579   3.012  0.1715  0.2013  0.6970
    2TTP     C125684   1.297   3.529   2.880  0.2458 -0.0742  0.7360
    2TTP     C225685   1.315   3.599   2.764  0.1324 -0.1276  0.6854
    2TTP     C325686   1.421   3.694   2.775 -0.0173  0.0474  0.6142
    2TTP     C425687   1.609   3.865   2.793 -0.2843  0.3572  0.4871
    2TTP    C1725688   1.590   3.795   2.909 -0.1709  0.4105  0.5376
    2TTP    C1825689   1.484   3.699   2.898 -0.0212  0.2355  0.6089
    2TTP    C3225690   1.240   3.595   2.635  1.5284  0.3355 -0.5134
    2TTP    C3325691   1.282   3.494   2.533  1.3144 -0.0612  0.1934
    2TTP    C3425692   1.418   3.426   2.556 -1.1829  0.1667 -0.1032
    2TTP    C3525693   1.458   3.283   2.517  0.5113 -0.4054  0.6336
    2TTP    C3625694   1.582   3.203   2.542  0.4285  0.8552 -0.6574
    2TTP    C3725695   1.556   3.108   2.653 -0.2471  1.6362  0.3910
    2TTP    C3825696   1.548   2.950   2.628  1.1674 -0.2791 -0.5021
    2TTP    C3925697   1.518   2.869   2.497  0.9486  0.6506 -0.7654
    2TTP    C4025698   1.622   2.866   2.392 -1.2048  1.3467  0.4904
    2TTP    C4125699   1.586   2.770   2.257 -1.0554 -0.8815 -1.3758
    2TTP    C4225700   1.647   2.631   2.285 -0.1058  0.5254  0.5355
    3TTP     S125701   1.987   4.450   2.992  0.1331  0.4215  0.3642
    3TTP     S525702   2.063   4.278   3.378 -0.4196  0.4309  0.4794
    3TTP     C125703   2.179   4.416   3.352 -0.4397  0.4868  0.6784
    3TTP     C225704   2.162   4.477   3.231 -0.2703  0.4870  0.6546
    3TTP     C325705   2.057   4.417   3.155 -0.1183  0.4433  0.4783
    3TTP     C425706   1.871   4.312   3.018  0.1533  0.3656  0.1653
    3TTP    C1725707   1.888   4.251   3.139 -0.0162  0.3654  0.1891
    3TTP    C1825708   1.993   4.311   3.215 -0.1681  0.4091  0.3654
    3TTP    C3225709   2.239   4.597   3.172  0.4379 -0.7600 -0.1204
    3TTP    C3325710   2.345   4.575   3.060 -0.6775  0.0137  0.0293
    3TTP    C3425711   2.432   4.687   3.007 -0.4446 -0.7294  0.9033
    3TTP    C3525712   2.564   4.700   3.091 -0.6015 -0.2317 -0.0133
    3TTP    C3625713   2.672   4.601   3.063 -0.3850  0.3700 -0.1363
    3TTP    C3725714   2.794   4.585   3.157  0.4664  0.1112  0.1482
    3TTP    C3825715   2.881   4.457   3.120 -0.2815 -0.5224 -1.1484
    3TTP    C3925716   2.992   4.409   3.224  0.6354 -1.3298  0.3987
    3TTP    C4025717   3.121   4.504   3.194  0.0496  0.1520 -0.3042
    3TTP    C4125718   3.220   4.470   3.306  0.6064  0.1324 -1.6752
    3TTP    C4225719   3.332   4.568   3.310  0.0147  2.5376  0.0472
    4FIC     F125720   1.336   2.802   3.256 -0.5595 -0.3893 -0.1976
    4FIC     F225721   1.072   2.765   3.200 -0.6638  0.1135 -0.0554
    4FIC     O125722   1.423   3.283   3.023  0.3152 -0.6983 -0.5187
    4FIC     N525723   0.755   3.053   2.953 -0.1903  0.6161 -0.0800
    4FIC     N625724   0.876   3.437   2.783  0.5142  0.2733 -0.3597
    4FIC    C1925725   1.202   3.418   2.887  0.5263 -0.3277 -0.4971
    4FIC    C2025726   1.190   3.299   2.948  0.3103 -0.2697 -0.4219
    4FIC    C2125727   1.308   3.236   3.016  0.2138 -0.4706 -0.4387
    4FIC    C2225728   1.261   3.107   3.071 -0.0229 -0.3438 -0.3422
    4FIC    C2325729   1.335   3.014   3.143 -0.1807 -0.4525 -0.3209
    4FIC    C2425730   1.269   2.899   3.185 -0.3951 -0.2942 -0.2238
    4FIC    C2525731   1.133   2.880   3.156 -0.4484 -0.0352 -0.1506
    4FIC    C2625732   1.059   2.973   3.084 -0.2919  0.0747 -0.1714
    4FIC    C2725733   1.124   3.090   3.041 -0.0740 -0.0826 -0.2693
    4FIC    C2825734   1.075   3.206   2.964  0.1287 -0.0268 -0.3154
    4FIC    C2925735   0.947   3.225   2.917  0.1449  0.2056 -0.2683
    4FIC    C3025736   0.842   3.131   2.937 -0.0395  0.4306 -0.1650
    4FIC    C3125737   0.909   3.342   2.843  0.3480  0.2415 -0.3189
    5FIC     F125738   2.087   4.512   4.160  0.2530 -0.0255 -0.0284
    5FIC     F225739   2.358   4.507   4.183  0.2668 -0.5628 -0.2701
    5FIC     O125740   2.029   4.475   3.622 -0.2943  0.3821  0.0004
    5FIC     N525741   2.707   4.474   3.834 -0.1036 -1.0448 -0.5972
    5FIC     N625742   2.607   4.446   3.409 -0.5339 -0.6180 -0.5260
    5FIC    C1925743   2.268   4.458   3.454 -0.4755  0.0137 -0.2204
    5FIC    C2025744   2.272   4.467   3.588 -0.3385 -0.0679 -0.2182
    5FIC    C2125745   2.145   4.476   3.668 -0.2521  0.1338 -0.1011
    5FIC    C2225746   2.185   4.485   3.810 -0.1087 -0.0221 -0.1310
    5FIC    C2325747   2.102   4.494   3.921  0.0083  0.0770 -0.0520
    5FIC    C2425748   2.163   4.502   4.045  0.1332 -0.1095 -0.1013
    5FIC    C2525749   2.302   4.499   4.057  0.1400 -0.3862 -0.2259
    5FIC    C2625750   2.386   4.489   3.947  0.0238 -0.4865 -0.3052
    5FIC    C2725751   2.326   4.482   3.820 -0.1037 -0.3006 -0.2570
    5FIC    C2825752   2.385   4.471   3.684 -0.2446 -0.3400 -0.3155
    5FIC    C2925753   2.519   4.466   3.653 -0.2809 -0.5821 -0.4367
    5FIC    C3025754   2.622   4.470   3.753 -0.1832 -0.8355 -0.5245
    5FIC    C3125755   2.567   4.455   3.519 -0.4199 -0.6005 -0.4852
    1BTD     S225756   4.151   4.067   8.812  0.2830  0.0869 -0.1405
    1BTD     N125757   4.052   3.920   8.842 -0.7517  0.9628  0.8507
    1BTD     N225758   4.258   4.042   8.955  1.3161 -0.6622 -1.0064
    1BTD     N325759   4.295   3.727   9.301  1.5529 -0.6078 -0.9816
    1BTD     N425760   4.040   3.577   9.163 -0.9950  1.3945  1.3068
    1BTD     C525761   4.049   3.743   9.012 -0.8481  1.1642  1.0614
    1BTD     C625762   4.100   3.864   8.952 -0.2974  0.6669  0.5031
    1BTD     C725763   4.216   3.932   9.015  0.8600 -0.2427 -0.5364
    1BTD     C825764   4.274   3.876   9.134  1.4089 -0.6097 -0.9658
    1BTD    C1525765   4.220   3.758   9.189  0.8373 -0.0985 -0.3913
    1BTD    C1625766   4.109   3.692   9.128 -0.2781  0.7778  0.6105
    1BTD    C4325767   4.085   3.472   9.255 -0.0947 -0.3461  0.9512
    1BTD    C4425768   4.021   3.338   9.290 -1.1152  0.8796 -0.1450
    1BTD    C4525769   3.880   3.291   9.321  0.9963  0.5246 -1.3062
    1BTD    C4625770   3.769   3.361   9.400  0.1764  0.0458 -0.1069
    1BTD    C4725771   4.103   3.242   9.399  0.6156 -0.7036 -0.2075
    1BTD    C4825772   4.236   3.273   9.459 -0.0354 -0.6856  0.4504
    1BTD    C4925773   4.305   3.203   9.573 -0.1070  0.4097  1.2944
    1BTD    C5025774   4.456   3.220   9.581 -0.2908 -0.8875 -0.1281
    1BTD    C7525775   4.249   3.659   9.424 -1.4935  1.0916 -0.5569
    1BTD    C7625776   4.125   3.701   9.498  1.1188  0.4801 -0.8549
    1BTD    C7725777   4.096   3.570   9.583  0.1998 -1.3964  1.0743
    1BTD    C7825778   3.969   3.577   9.665 -0.3870  0.2224 -0.3801
    1BTD    C7925779   4.113   3.842   9.559 -0.5050 -0.6792  0.1248
    1BTD    C8025780   4.237   3.913   9.612  0.5042 -0.1014  0.8742
    1BTD    C8125781   4.274   3.884   9.765 -0.6322 -1.0377 -1.0447
    1BTD    C8225782   4.387   3.984   9.795  0.4349  0.8039 -0.5825
    2TTP     S125783   3.876   3.610   8.808  0.1758 -0.0450 -0.3503
    2TTP     S525784   3.953   3.241   9.015 -0.1070  0.0579 -0.0606
    2TTP     C125785   3.886   3.202   8.851 -0.0500 -0.0211 -0.0652
    2TTP     C225786   3.858   3.314   8.777  0.0406 -0.0575 -0.1550
    2TTP     C325787   3.889   3.434   8.848  0.0684 -0.0244 -0.2234
    2TTP     C425788   3.944   3.649   8.972  0.1188  0.0340 -0.3457
    2TTP    C1725789   3.971   3.537   9.046  0.0282  0.0703 -0.2559
    2TTP    C1825790   3.940   3.417   8.975  0.0004  0.0372 -0.1876
    2TTP    C3225791   3.788   3.328   8.631  1.2883 -0.1982 -0.7804
    2TTP    C3325792   3.636   3.284   8.646 -0.3573  0.1054  0.2805
    2TTP    C3425793   3.559   3.302   8.522 -0.4841  0.8466  1.0428
    2TTP    C3525794   3.415   3.345   8.550 -0.5214 -0.0319  0.0928
    2TTP    C3625795   3.340   3.375   8.427  0.1856 -0.2427 -1.1513
    2TTP    C3725796   3.208   3.454   8.431 -0.0925  0.6292 -0.2323
    2TTP    C3825797   3.211   3.602   8.493 -1.0081  0.3904 -0.3214
    2TTP    C3925798   3.139   3.713   8.427  0.6921 -0.2532  0.1681
    2TTP    C4025799   3.241   3.832   8.380 -1.4548  1.0251  0.3466
    2TTP    C4125800   3.186   3.970   8.344  0.7695  0.9860  0.8843
    2TTP    C4225801   3.260   4.082   8.407 -1.1772 -0.3776  1.8494
    3TTP     S125802   4.491   4.065   9.239  0.1894  0.2740 -0.1143
    3TTP     S525803   4.580   3.792   9.559  0.1911  0.4981  0.0768
    3TTP     C125804   4.695   3.932   9.569  0.2884  0.4330 -0.1116
    3TTP     C225805   4.674   4.025   9.470  0.2934  0.3600 -0.1817
    3TTP     C325806   4.567   3.988   9.384  0.2209  0.3528 -0.0889
    3TTP     C425807   4.376   3.924   9.229  0.0924  0.3389  0.0737
    3TTP    C1725808   4.396   3.831   9.327  0.0872  0.4120  0.1443
    3TTP    C1825809   4.504   3.868   9.414  0.1596  0.4193  0.0517
    3TTP    C3225810   4.746   4.158   9.447  1.1630 -0.2880  0.3069
    3TTP    C3325811   4.661   4.287   9.461  0.7260  0.3182 -0.2613
    3TTP    C3425812   4.609   4.315   9.601 -0.3841 -0.8779  0.9621
    3TTP    C3525813   4.691   4.341   9.724 -1.1467  0.7121 -0.3471
    3TTP    C3625814   4.610   4.386   9.851 -0.1685 -0.5195  0.8808
    3TTP    C3725815   4.568   4.531   9.836 -0.3345 -0.6674  0.8813
    3TTP    C3825816   4.635   4.643   9.918  0.6507 -0.1130  0.3537
    3TTP    C3925817   4.791   4.645   9.917 -0.0665  0.3266 -1.6406
    3TTP    C4025818   4.876   4.541   9.987  0.8834  1.1266  2.3395
    3TTP    C4125819   4.948   4.579  10.114  0.7929 -0.0414  0.0250
    3TTP    C4225820   4.975   4.452  10.208  1.0046 -1.2290  0.9255
    4FIC     F125821   3.643   2.508   9.208 -0.0600  0.2750  0.1342
    4FIC     F225822   3.635   2.392   8.961 -0.1735  0.1336  0.2041
    4FIC     O125823   3.810   3.007   9.081 -0.0288  0.1757 -0.2198
    4FIC     N525824   3.743   2.582   8.517 -0.3147 -0.1406  0.0517
    4FIC     N625825   3.876   2.995   8.468 -0.2676 -0.1898 -0.2389
    4FIC    C1925826   3.862   3.074   8.801 -0.1264  0.0052 -0.2789
    4FIC    C2025827   3.820   2.953   8.843 -0.1298  0.0356 -0.1926
    4FIC    C2125828   3.796   2.926   8.988 -0.0777  0.1240 -0.1674
    4FIC    C2225829   3.751   2.785   8.998 -0.0963  0.1367 -0.0689
    4FIC    C2325830   3.717   2.715   9.113 -0.0631  0.2088 -0.0150
    4FIC    C2425831   3.678   2.583   9.098 -0.0902  0.2060  0.0768
    4FIC    C2525832   3.674   2.524   8.971 -0.1488  0.1330  0.1124
    4FIC    C2625833   3.709   2.593   8.856 -0.1822  0.0608  0.0587
    4FIC    C2725834   3.748   2.727   8.869 -0.1554  0.0625 -0.0341
    4FIC    C2825835   3.790   2.827   8.769 -0.1783 -0.0024 -0.1087
    4FIC    C2925836   3.800   2.808   8.633 -0.2339 -0.0827 -0.1011
    4FIC    C3025837   3.769   2.684   8.570 -0.2781 -0.1143 -0.0169
    4FIC    C3125838   3.841   2.911   8.543 -0.2521 -0.1411 -0.1771
    5FIC     F125839   5.063   3.501  10.165 -0.0916  0.5708  0.2277
    5FIC     F225840   5.237   3.708  10.194  0.1755  0.4113 -0.2141
    5FIC     O125841   4.750   3.685   9.763 -0.0247  0.2371  0.0219
    5FIC     N525842   5.264   4.138   9.950  0.6073 -0.0557 -0.9954
    5FIC     N625843   4.984   4.240   9.630  0.6056 -0.2843 -1.0672
    5FIC    C1925844   4.805   3.949   9.648  0.2542 -0.0337 -0.4730
    5FIC    C2025845   4.877   3.894   9.748  0.2270  0.0564 -0.4041
    5FIC    C2125846   4.843   3.758   9.802  0.0807  0.1938 -0.1464
    5FIC    C2225847   4.940   3.730   9.909  0.0883  0.2656 -0.1338
    5FIC    C2325848   4.948   3.615   9.988 -0.0210  0.3961  0.0679
    5FIC    C2425849   5.049   3.611  10.083  0.0114  0.4425  0.0357
    5FIC    C2525850   5.139   3.718  10.098  0.1492  0.3603 -0.1920
    5FIC    C2625851   5.131   3.832  10.020  0.2587  0.2298 -0.3941
    5FIC    C2725852   5.029   3.839   9.923  0.2279  0.1811 -0.3648
    5FIC    C2825853   4.994   3.944   9.825  0.3188  0.0494 -0.5400
    5FIC    C2925854   5.058   4.065   9.808  0.4603 -0.0587 -0.7820
    5FIC    C3025855   5.171   4.104   9.886  0.5406 -0.0565 -0.8986
    5FIC    C3125856   5.017   4.160   9.710  0.5395 -0.1819 -0.9375
    1BTD     S225857   8.009   3.860   8.705 -0.0656 -0.0736 -0.4472
    1BTD     N125858   8.115   3.969   8.609 -0.1187  0.2981 -0.0875
    1BTD     N225859   7.855   3.924   8.636 -0.0765 -0.3390 -0.6766
    1BTD     N325860   7.734   4.253   8.324 -0.1947 -0.2089 -0.4945
    1BTD     N425861   8.054   4.308   8.290 -0.2470  0.5764  0.2317
    1BTD     C525862   8.079   4.145   8.443 -0.1853  0.4339  0.0706
    1BTD     C625863   8.034   4.044   8.535 -0.1409  0.2097 -0.1535
    1BTD     C725864   7.889   4.019   8.550 -0.1172 -0.1470 -0.4835
    1BTD     C825865   7.796   4.096   8.473 -0.1388 -0.2617 -0.5727
    1BTD    C1525866   7.844   4.195   8.384 -0.1821 -0.0332 -0.3456
    1BTD    C1625867   7.984   4.219   8.369 -0.2050  0.3103 -0.0279
    1BTD    C4325868   8.002   4.379   8.185  0.7260 -0.8862  0.0417
    1BTD    C4425869   8.021   4.338   8.036  0.3054 -0.8342  0.2747
    1BTD    C4525870   8.173   4.361   8.009  1.6552 -0.8868 -0.7538
    1BTD    C4625871   8.224   4.273   7.899  0.0619 -0.4139  0.9264
    1BTD    C4725872   7.939   4.418   7.949  1.0942  0.1032 -0.1641
    1BTD    C4825873   7.926   4.384   7.797  0.3279 -1.0780  0.9531
    1BTD    C4925874   7.804   4.426   7.717  0.0003 -0.4378  0.7207
    1BTD    C5025875   7.750   4.357   7.577  0.6804 -0.9235 -0.6853
    1BTD    C7525876   7.704   4.393   8.280  0.3126  0.0560  0.6145
    1BTD    C7625877   7.652   4.471   8.403 -0.5798 -1.0308 -0.0924
    1BTD    C7725878   7.552   4.602   8.387 -1.8307 -0.2009 -0.6118
    1BTD    C7825879   7.420   4.597   8.335 -0.0997  0.8808  0.3034
    1BTD    C7925880   7.763   4.475   8.510  1.0581 -0.0629 -0.9166
    1BTD    C8025881   7.860   4.592   8.498  0.1706 -0.7789  0.1588
    1BTD    C8125882   7.982   4.579   8.572  0.9326 -0.7368  0.2956
    1BTD    C8225883   8.067   4.703   8.595 -0.0125 -0.5958 -0.1994
    2TTP     S125884   8.385   4.155   8.443 -0.0151 -0.0046  0.2580
    2TTP     S525885   8.337   4.532   8.243 -0.0019 -0.3182 -0.3386
    2TTP     C125886   8.514   4.507   8.277 -0.0114 -0.2320 -0.2244
    2TTP     C225887   8.539   4.389   8.341 -0.0160 -0.1301 -0.0329
    2TTP     C325888   8.420   4.314   8.365 -0.0122 -0.1165  0.0293
    2TTP     C425889   8.208   4.180   8.409 -0.0055 -0.0907  0.1433
    2TTP    C1725890   8.183   4.298   8.345 -0.0006 -0.1927 -0.0480
    2TTP    C1825891   8.302   4.373   8.321 -0.0048 -0.2064 -0.1106
    2TTP    C3225892   8.674   4.337   8.405  0.8720  1.0360  1.1250
    2TTP    C3325893   8.764   4.248   8.312 -0.0607  0.5484 -0.0093
    2TTP    C3425894   8.737   4.104   8.319 -0.3287  0.1912  0.8870
    2TTP    C3525895   8.824   4.030   8.224 -0.5030  0.4148 -0.0266
    2TTP    C3625896   8.766   3.890   8.181 -0.4160  0.6234  0.7765
    2TTP    C3725897   8.828   3.853   8.053 -1.0157  0.2172  0.9843
    2TTP    C3825898   8.767   3.925   7.943  0.1185  0.2082  0.9361
    2TTP    C3925899   8.778   3.836   7.827 -0.4808  1.4777  0.7600
    2TTP    C4025900   8.703   3.877   7.702  0.3390 -0.0680  0.7392
    2TTP    C4125901   8.777   3.941   7.577 -0.6504 -0.4224 -0.4583
    2TTP    C4225902   8.677   3.989   7.465 -0.6930  1.0711  0.6446
    3TTP     S125903   7.506   4.030   8.542  0.2106  0.1841 -0.4178
    3TTP     S525904   7.367   4.270   8.214 -0.0833  0.3946 -0.1407
    3TTP     C125905   7.223   4.194   8.295  0.0082  0.1375 -0.2178
    3TTP     C225906   7.257   4.115   8.401  0.1044  0.0572 -0.3080
    3TTP     C325907   7.399   4.112   8.422  0.1092  0.1961 -0.3192
    3TTP     C425908   7.650   4.106   8.461  0.1189  0.4412 -0.3405
    3TTP    C1725909   7.615   4.185   8.355  0.0228  0.5215 -0.2506
    3TTP    C1825910   7.474   4.187   8.334  0.0179  0.3827 -0.2389
    3TTP    C3225911   7.164   4.035   8.503  0.4917 -1.3101 -0.0821
    3TTP    C3325912   7.220   3.999   8.637  0.2477 -0.4225 -0.5879
    3TTP    C3425913   7.189   4.094   8.750  0.7608  0.1935  1.0400
    3TTP    C3525914   7.297   4.124   8.851 -0.3581 -0.1142  0.3945
    3TTP    C3625915   7.329   4.280   8.864 -0.1584  0.2758 -0.2713
    3TTP    C3725916   7.393   4.362   8.759  0.7762  1.1920  0.0490
    3TTP    C3825917   7.549   4.330   8.722  0.6278  1.6454  0.4313
    3TTP    C3925918   7.638   4.315   8.848 -0.4261  0.9336  0.8887
    3TTP    C4025919   7.779   4.278   8.818 -0.8775  0.2956 -0.6723
    3TTP    C4125920   7.879   4.297   8.926  0.8715 -1.1232  0.4506
    3TTP    C4225921   8.032   4.302   8.866  0.8979  2.0201 -0.2014
    4FIC     F125922   8.549   5.306   8.079  0.1674 -0.1339  0.4218
    4FIC     F225923   8.762   5.246   7.921 -0.2382 -0.1624 -0.1230
    4FIC     O125924   8.449   4.824   8.304  0.4373 -0.2077  0.3831
    4FIC     N525925   8.999   4.817   7.855 -0.6287 -0.2562 -0.9329
    4FIC     N625926   8.878   4.452   8.062 -0.3362 -0.3083 -0.8533
    4FIC    C1925927   8.618   4.595   8.233  0.1455 -0.2614 -0.1507
    4FIC    C2025928   8.635   4.719   8.183  0.0937 -0.2416 -0.1197
    4FIC    C2125929   8.544   4.832   8.224  0.2522 -0.2146  0.1614
    4FIC    C2225930   8.590   4.951   8.151  0.1447 -0.1980  0.1211
    4FIC    C2325931   8.536   5.080   8.156  0.2279 -0.1714  0.3221
    4FIC    C2425932   8.597   5.177   8.078  0.0953 -0.1600  0.2338
    4FIC    C2525933   8.707   5.146   7.997 -0.1133 -0.1748 -0.0468
    4FIC    C2625934   8.760   5.018   7.991 -0.1972 -0.2013 -0.2482
    4FIC    C2725935   8.701   4.918   8.069 -0.0658 -0.2133 -0.1633
    4FIC    C2825936   8.733   4.774   8.086 -0.1054 -0.2406 -0.3223
    4FIC    C2925937   8.834   4.705   8.023 -0.2916 -0.2611 -0.6034
    4FIC    C3025938   8.924   4.767   7.931 -0.4761 -0.2583 -0.7838
    4FIC    C3125939   8.857   4.566   8.045 -0.3150 -0.2869 -0.7393
    5FIC     F125940   6.859   4.362   7.584 -0.0933  0.4026  0.1818
    5FIC     F225941   6.620   4.372   7.713 -0.0805  0.3905  0.2066
    5FIC     O125942   7.191   4.238   7.994 -0.0948  0.0672  0.0818
    5FIC     N525943   6.511   4.297   8.190 -0.0628  0.1346  0.1707
    5FIC     N625944   6.819   4.198   8.484 -0.0665 -0.1248  0.0875
    5FIC    C1925945   7.079   4.203   8.262 -0.0832 -0.0630  0.0698
    5FIC    C2025946   7.005   4.234   8.154 -0.0831  0.0217  0.0939
    5FIC    C2125947   7.070   4.250   8.019 -0.0894  0.0849  0.0987
    5FIC    C2225948   6.962   4.283   7.925 -0.0879  0.1707  0.1271
    5FIC    C2325949   6.972   4.307   7.788 -0.0920  0.2496  0.1404
    5FIC    C2425950   6.856   4.337   7.720 -0.0893  0.3225  0.1672
    5FIC    C2525951   6.732   4.342   7.786 -0.0826  0.3160  0.1799
    5FIC    C2625952   6.721   4.318   7.922 -0.0784  0.2378  0.1667
    5FIC    C2725953   6.838   4.288   7.994 -0.0811  0.1632  0.1394
    5FIC    C2825954   6.860   4.258   8.137 -0.0777  0.0715  0.1197
    5FIC    C2925955   6.764   4.253   8.236 -0.0714  0.0386  0.1242
    5FIC    C3025956   6.625   4.277   8.210 -0.0666  0.0914  0.1495
    5FIC    C3125957   6.795   4.223   8.372 -0.0688 -0.0510  0.1040
    1BTD     S225958   2.271   5.754   3.297  0.5302 -0.3264 -0.0492
    1BTD     N125959   2.152   5.879   3.347 -0.2223 -0.8020 -0.5959
    1BTD     N225960   2.261   5.662   3.451  0.9261  0.1613  0.2728
    1BTD     N325961   2.027   5.702   3.856  0.3742  0.2959 -0.0579
    1BTD     N425962   1.893   5.969   3.727 -1.0409 -0.8913 -1.1286
    1BTD     C525963   2.018   5.923   3.547 -0.6326 -0.8343 -0.8612
    1BTD     C625964   2.113   5.848   3.470 -0.1437 -0.5842 -0.5145
    1BTD     C725965   2.174   5.726   3.528  0.4991 -0.0451 -0.0283
    1BTD     C825966   2.137   5.686   3.661  0.6209  0.2173  0.0871
    1BTD    C1525967   2.043   5.763   3.733  0.1278 -0.0430 -0.2636
    1BTD    C1625968   1.985   5.880   3.677 -0.4916 -0.5626 -0.7322
    1BTD    C4325969   1.800   5.974   3.841 -0.7944  0.0020 -0.1094
    1BTD    C4425970   1.725   5.835   3.890  0.6746 -1.0072  0.0073
    1BTD    C4525971   1.680   5.745   3.778 -0.1587  0.0478  0.1289
    1BTD    C4625972   1.616   5.608   3.812 -1.5555 -1.3411 -0.1714
    1BTD    C4725973   1.621   5.862   3.991  0.1393 -0.6917 -0.0277
    1BTD    C4825974   1.497   5.964   3.997 -0.5014  0.8475 -0.4296
    1BTD    C4925975   1.520   6.105   4.039 -1.4864  0.7194 -0.3878
    1BTD    C5025976   1.536   6.120   4.195  0.2884 -0.3082 -1.4123
    1BTD    C7525977   2.031   5.773   3.988 -1.1757 -0.5285 -0.2975
    1BTD    C7625978   2.028   5.718   4.134 -1.1736  0.5896  0.8830
    1BTD    C7725979   2.111   5.821   4.209  0.3639  2.0132 -0.1902
    1BTD    C7825980   2.023   5.950   4.232 -0.1266 -0.7047 -0.1903
    1BTD    C7925981   1.893   5.669   4.200 -0.4135 -0.6461 -0.4106
    1BTD    C8025982   1.885   5.604   4.335 -0.2374  1.1722 -0.9775
    1BTD    C8125983   1.754   5.619   4.371  0.5728 -0.3868  1.2281
    1BTD    C8225984   1.697   5.536   4.480 -0.2514  0.6681 -1.6057
    2TTP     S125985   1.956   6.199   3.417  0.0740  0.3950 -0.1241
    2TTP     S525986   1.686   6.292   3.739 -0.2352  0.3493 -0.3684
    2TTP     C125987   1.700   6.438   3.631  0.1978  0.5080 -0.1027
    2TTP     C225988   1.784   6.418   3.525  0.3188  0.5318 -0.0117
    2TTP     C325989   1.841   6.287   3.525  0.0739  0.4249 -0.1484
    2TTP     C425990   1.942   6.053   3.525 -0.3590  0.2359 -0.3898
    2TTP    C1725991   1.858   6.073   3.630 -0.4800  0.2123 -0.4808
    2TTP    C1825992   1.801   6.205   3.630 -0.2352  0.3191 -0.3441
    2TTP    C3225993   1.820   6.532   3.434 -0.9922 -0.8709  0.2052
    2TTP    C3325994   1.805   6.505   3.285 -0.0609 -1.6992 -0.5025
    2TTP    C3425995   1.772   6.612   3.187  1.4089 -0.2134 -0.8697
    2TTP    C3525996   1.626   6.614   3.195 -0.2058  0.1969 -0.6361
    2TTP    C3625997   1.576   6.763   3.196 -1.9253  0.9959  0.4494
    2TTP    C3725998   1.431   6.767   3.236 -0.7767  0.6126  0.0835
    2TTP    C3825999   1.339   6.780   3.115 -0.8314 -0.8410  0.0791
    2TTP    C3926000   1.239   6.904   3.139 -1.1059  0.1692 -0.6446
    2TTP    C4026001   1.104   6.874   3.089 -1.0915  0.0262  1.2373
    2TTP    C4126002   0.983   6.816   3.157 -0.4486 -0.0785  0.7448
    2TTP    C4226003   0.871   6.768   3.059 -0.4172 -1.7851 -0.5416
    3TTP     S126004   2.234   5.401   3.697 -0.0466 -0.2206 -0.0979
    3TTP     S526005   1.986   5.381   4.048  0.2080 -0.1285  0.0889
    3TTP     C126006   2.050   5.214   4.013  0.2683 -0.1176  0.1481
    3TTP     C226007   2.131   5.211   3.903  0.1932 -0.1453  0.0940
    3TTP     C326008   2.144   5.339   3.842  0.0853 -0.1762  0.0037
    3TTP     C426009   2.170   5.568   3.732 -0.1069 -0.2315 -0.1572
    3TTP    C1726010   2.089   5.571   3.843 -0.0319 -0.2036 -0.1030
    3TTP    C1826011   2.075   5.443   3.903  0.0759 -0.1727 -0.0127
    3TTP    C3226012   2.206   5.094   3.840 -0.1809 -0.4589  0.3095
    3TTP    C3326013   2.350   5.065   3.860 -1.2447 -0.5785 -0.5291
    3TTP    C3426014   2.388   5.089   4.006 -0.3595  0.6981  0.6142
    3TTP    C3526015   2.535   5.138   4.021 -0.6561  0.2727 -0.8857
    3TTP    C3626016   2.601   5.150   4.164  0.3531  0.1653 -0.1800
    3TTP    C3726017   2.664   5.020   4.229  1.0141  0.9471 -0.8935
    3TTP    C3826018   2.784   5.018   4.316  0.2078  0.1650 -0.6812
    3TTP    C3926019   2.905   5.106   4.283 -0.5853  0.2495 -0.1788
    3TTP    C4026020   2.989   5.095   4.147 -0.3811  0.2215 -0.5131
    3TTP    C4126021   3.112   5.184   4.136 -1.0222  1.4461  0.3248
    3TTP    C4226022   3.223   5.168   4.251  0.4339  0.8898  0.2838
    4FIC     F126023   1.084   6.662   4.114  0.1504  0.1502  0.1982
    4FIC     F226024   1.141   6.922   4.057 -0.3052  0.0973 -0.5354
    4FIC     O126025   1.453   6.407   3.810  0.2367 -0.0718  0.4887
    4FIC     N526026   1.487   7.114   3.759 -0.8987 -0.1372 -1.3832
    4FIC     N626027   1.764   6.862   3.534 -0.7395 -0.3000 -1.0085
    4FIC    C1926028   1.639   6.565   3.648 -0.1679 -0.2013 -0.1092
    4FIC    C2026029   1.544   6.619   3.727 -0.1718 -0.1433 -0.1535
    4FIC    C2126030   1.452   6.531   3.807  0.0433 -0.0787  0.1672
    4FIC    C2226031   1.361   6.621   3.881 -0.0213 -0.0260  0.0238
    4FIC    C2326032   1.259   6.586   3.968  0.1204  0.0421  0.2183
    4FIC    C2426033   1.187   6.690   4.026  0.0202  0.0823  0.0230
    4FIC    C2526034   1.216   6.823   3.997 -0.2146  0.0551 -0.3549
    4FIC    C2626035   1.318   6.859   3.909 -0.3570 -0.0129 -0.5507
    4FIC    C2726036   1.393   6.756   3.850 -0.2587 -0.0545 -0.3578
    4FIC    C2826037   1.506   6.760   3.754 -0.3604 -0.1277 -0.4817
    4FIC    C2926038   1.565   6.872   3.701 -0.5864 -0.1723 -0.8335
    4FIC    C3026039   1.522   7.005   3.733 -0.7573 -0.1528 -1.1346
    4FIC    C3126040   1.674   6.866   3.609 -0.6693 -0.2422 -0.9277
    5FIC     F126041   1.597   5.068   4.696 -0.3053 -0.0882 -0.4644
    5FIC     F226042   1.709   4.820   4.709  0.1500  0.1459  0.2297
    5FIC     O126043   1.835   5.264   4.251 -0.1171 -0.6335 -0.6065
    5FIC     N526044   2.039   4.604   4.409  0.9387  0.0938  1.1262
    5FIC     N626045   2.201   4.807   4.059  0.9940 -0.3793  0.8754
    5FIC    C1926046   2.026   5.097   4.105  0.3848 -0.6034  0.0062
    5FIC    C2026047   1.961   5.058   4.216  0.3196 -0.4755  0.0147
    5FIC    C2126048   1.865   5.149   4.286  0.0578 -0.5007 -0.3113
    5FIC    C2226049   1.813   5.075   4.402  0.0511 -0.3374 -0.2100
    5FIC    C2326050   1.721   5.119   4.497 -0.1516 -0.2987 -0.4237
    5FIC    C2426051   1.688   5.031   4.599 -0.1129 -0.1352 -0.2686
    5FIC    C2526052   1.746   4.903   4.605  0.1218 -0.0145  0.0889
    5FIC    C2626053   1.838   4.859   4.511  0.3250 -0.0522  0.3036
    5FIC    C2726054   1.873   4.947   4.407  0.2894 -0.2173  0.1514
    5FIC    C2826055   1.966   4.931   4.293  0.4637 -0.2973  0.3037
    5FIC    C2926056   2.042   4.820   4.264  0.7113 -0.2210  0.6472
    5FIC    C3026057   2.040   4.701   4.344  0.8355 -0.0480  0.9093
    5FIC    C3126058   2.129   4.813   4.151  0.8654 -0.3085  0.7706
    1BTD     S226059   1.344   6.328   2.466  0.0602 -0.0770  0.0096
    1BTD     N126060   1.379   6.168   2.542 -0.1431 -0.3018 -0.3671
    1BTD     N226061   1.505   6.341   2.387  0.1857  0.0454  0.2831
    1BTD     N326062   1.895   6.082   2.361  0.0741 -0.1101  0.1598
    1BTD     N426063   1.740   5.868   2.552 -0.3310 -0.5381 -0.6413
    1BTD     C526064   1.569   6.014   2.545 -0.2363 -0.4200 -0.5006
    1BTD     C626065   1.502   6.135   2.506 -0.1088 -0.2753 -0.2745
    1BTD     C726066   1.573   6.232   2.419  0.0752 -0.0807  0.0894
    1BTD     C826067   1.707   6.203   2.376  0.1225 -0.0409  0.2090
    1BTD    C1526068   1.769   6.083   2.417 -0.0067 -0.1871 -0.0215
    1BTD    C1626069   1.701   5.990   2.500 -0.1840 -0.3746 -0.3721
    1BTD    C4326070   1.844   5.785   2.478 -0.1571 -0.8071  0.7339
    1BTD    C4426071   1.929   5.661   2.511 -0.7912  1.6703 -0.2893
    1BTD    C4526072   1.973   5.577   2.387 -1.9410  0.6402  0.4933
    1BTD    C4626073   1.881   5.482   2.314 -0.7144 -0.3340 -0.2900
    1BTD    C4726074   2.012   5.686   2.634  1.0553  0.9810  0.5064
    1BTD    C4826075   2.075   5.577   2.708 -0.7192  0.0146 -0.4021
    1BTD    C4926076   2.145   5.586   2.852  0.7798 -1.1433  0.0778
    1BTD    C5026077   2.206   5.718   2.893  0.5882  0.7081  1.0855
    1BTD    C7526078   2.023   6.037   2.426  0.4091 -0.6816  1.7596
    1BTD    C7626079   2.095   6.136   2.499 -0.5151  0.0855 -0.7319
    1BTD    C7726080   2.017   6.244   2.578  0.1659  0.3818 -0.0340
    1BTD    C7826081   2.093   6.360   2.621 -0.3967 -0.5243 -0.7616
    1BTD    C7926082   2.222   6.077   2.573  0.5265  0.2016 -1.0360
    1BTD    C8026083   2.344   6.093   2.479  0.0738  0.8149  0.3832
    1BTD    C8126084   2.478   6.130   2.529 -0.1477 -0.0500 -0.0861
    1BTD    C8226085   2.487   6.280   2.555 -0.1342  0.6040  0.8175
    2TTP     S126086   1.394   5.839   2.725  0.3119  0.1165  0.1840
    2TTP     S526087   1.699   5.536   2.711  0.0641 -0.0943 -0.8849
    2TTP     C126088   1.551   5.465   2.787  0.0023 -0.2474 -1.1461
    2TTP     C226089   1.447   5.554   2.796  0.0752 -0.1913 -0.8314
    2TTP     C326090   1.482   5.682   2.743  0.1825 -0.0254 -0.3726
    2TTP     C426091   1.543   5.910   2.648  0.3737  0.2694  0.4452
    2TTP    C1726092   1.646   5.821   2.640  0.3009  0.2135  0.1306
    2TTP    C1826093   1.611   5.693   2.693  0.1936  0.0476 -0.3282
    2TTP    C3226094   1.311   5.540   2.852 -0.5417 -0.2539 -0.1994
    2TTP    C3326095   1.195   5.527   2.752 -0.4620 -1.3464  0.5020
    2TTP    C3426096   1.070   5.577   2.822  1.0513 -0.0334  0.9770
    2TTP    C3526097   1.065   5.706   2.909  0.7775 -0.4514 -0.4028
    2TTP    C3626098   0.924   5.765   2.897  1.1475  0.5872  1.6795
    2TTP    C3726099   0.880   5.878   2.994  0.4058  0.1854  1.5106
    2TTP    C3826100   0.736   5.946   2.973  1.5586  0.8909  0.2985
    2TTP    C3926101   0.602   5.864   2.963 -0.0380 -0.0852  0.2419
    2TTP    C4026102   0.561   5.785   3.082 -0.2053 -0.1854 -0.4813
    2TTP    C4126103   0.620   5.648   3.104 -0.6769 -0.2182 -0.2507
    2TTP    C4226104   0.526   5.551   3.187 -0.3950  0.4678  1.0619
    3TTP     S126105   1.794   6.388   2.145  0.4134 -0.0725 -0.0599
    3TTP     S526106   2.146   6.146   2.091  0.3116 -0.0389 -0.9032
    3TTP     C126107   2.139   6.269   1.957 -0.0939 -0.1278 -0.9659
    3TTP     C226108   2.030   6.351   1.965 -0.0864 -0.1434 -0.7091
    3TTP     C326109   1.948   6.319   2.078  0.2399 -0.0856 -0.4537
    3TTP     C426110   1.801   6.265   2.279  0.8189  0.0165  0.0027
    3TTP    C1726111   1.910   6.183   2.270  0.8114  0.0321 -0.2541
    3TTP    C1826112   1.992   6.214   2.157  0.4851 -0.0256 -0.5094
    3TTP    C3226113   1.999   6.472   1.891 -1.4791  0.6905 -0.6973
    3TTP    C3326114   2.105   6.576   1.901  0.1885  0.6899  0.2125
    3TTP    C3426115   2.063   6.713   1.852  0.2572  2.2858 -0.0291
    3TTP    C3526116   2.180   6.820   1.828  1.2009  1.1900  0.1716
    3TTP    C3626117   2.196   6.972   1.810  1.0165 -1.4412 -1.1223
    3TTP    C3726118   2.173   7.085   1.918  1.4687  0.5908 -1.4829
    3TTP    C3826119   2.041   7.076   2.009 -0.2928 -0.5294  0.9795
    3TTP    C3926120   2.065   7.118   2.144  0.3111  0.1969 -0.7007
    3TTP    C4026121   1.924   7.140   2.204 -0.1973  0.1465 -0.0148
    3TTP    C4126122   1.918   7.178   2.357  1.0678 -1.1015  0.0065
    3TTP    C4226123   1.955   7.105   2.479  0.2273  0.7762  0.2007
    4FIC     F126124   2.042   4.893   3.122 -0.1850  0.0339  0.1301
    4FIC     F226125   1.821   4.750   3.191 -0.1723 -0.1274 -0.1650
    4FIC     O126126   1.816   5.319   2.876 -0.1777 -0.0228  0.0259
    4FIC     N526127   1.342   4.847   3.114 -0.1490 -0.3997 -0.6633
    4FIC     N626128   1.210   5.209   2.907 -0.1458 -0.4115 -0.6853
    4FIC    C1926129   1.524   5.333   2.854 -0.1629 -0.1970 -0.2929
    4FIC    C2026130   1.590   5.232   2.913 -0.1653 -0.1763 -0.2552
    4FIC    C2126131   1.740   5.231   2.921 -0.1729 -0.0852 -0.0886
    4FIC    C2226132   1.778   5.108   2.991 -0.1737 -0.0856 -0.0889
    4FIC    C2326133   1.906   5.063   3.022 -0.1798 -0.0160  0.0386
    4FIC    C2426134   1.918   4.943   3.089 -0.1792 -0.0318  0.0094
    4FIC    C2526135   1.804   4.869   3.124 -0.1727 -0.1152 -0.1426
    4FIC    C2626136   1.675   4.912   3.094 -0.1665 -0.1848 -0.2702
    4FIC    C2726137   1.662   5.034   3.026 -0.1671 -0.1699 -0.2431
    4FIC    C2826138   1.542   5.108   2.979 -0.1616 -0.2291 -0.3515
    4FIC    C2926139   1.411   5.068   2.995 -0.1546 -0.3160 -0.5105
    4FIC    C3026140   1.373   4.947   3.060 -0.1515 -0.3619 -0.5939
    4FIC    C3126141   1.301   5.146   2.947 -0.1498 -0.3680 -0.6056
    5FIC     F126142   2.864   5.958   1.721  0.0840  0.3647  0.3467
    5FIC     F226143   2.815   6.049   1.469 -0.1884 -0.3579  0.1308
    5FIC     O126144   2.422   6.133   1.981  0.2531  0.9068  0.2714
    5FIC     N526145   2.431   6.306   1.293 -0.4597 -1.0107 -0.2334
    5FIC     N626146   2.096   6.425   1.546 -0.2728 -0.4414 -0.2488
    5FIC    C1926147   2.219   6.283   1.832  0.0528  0.4088  0.0382
    5FIC    C2026148   2.332   6.235   1.777  0.0209  0.3008  0.0656
    5FIC    C2126149   2.431   6.159   1.860  0.1297  0.5732  0.1875
    5FIC    C2226150   2.542   6.122   1.769  0.0604  0.3654  0.1870
    5FIC    C2326151   2.657   6.051   1.800  0.1191  0.5000  0.2800
    5FIC    C2426152   2.747   6.028   1.697  0.0329  0.2504  0.2586
    5FIC    C2526153   2.722   6.075   1.568 -0.1075 -0.1219  0.1473
    5FIC    C2626154   2.607   6.146   1.536 -0.1667 -0.2580  0.0540
    5FIC    C2726155   2.515   6.171   1.639 -0.0809 -0.0095  0.0741
    5FIC    C2826156   2.385   6.242   1.638 -0.1109 -0.0639 -0.0049
    5FIC    C2926157   2.325   6.303   1.530 -0.2367 -0.3903 -0.1212
    5FIC    C3026158   2.384   6.304   1.400 -0.3589 -0.7302 -0.1825
    5FIC    C3126159   2.199   6.369   1.540 -0.2558 -0.4165 -0.1907
    1BTD     S226160   4.217   8.199   8.688 -0.0866  0.1591 -0.2164
    1BTD     N126161   4.281   8.134   8.843 -0.6257  0.8330  0.3026
    1BTD     N226162   4.357   8.309   8.659  0.3674 -0.5095 -0.5991
    1BTD     N326163   4.758   8.414   8.880  0.3188 -0.6535 -0.4411
    1BTD     N426164   4.664   8.199   9.106 -0.9049  1.0009  0.6697
    1BTD     C526165   4.482   8.171   8.978 -0.7567  0.9007  0.4809
    1BTD     C626166   4.397   8.194   8.864 -0.4487  0.5405  0.1707
    1BTD     C726167   4.440   8.292   8.761  0.1070 -0.2110 -0.3335
    1BTD     C826168   4.565   8.361   8.777  0.3271 -0.5648 -0.5028
    1BTD    C1526169   4.645   8.335   8.890  0.0108 -0.1909 -0.1867
    1BTD    C1626170   4.604   8.241   8.989 -0.5247  0.5330  0.2996
    1BTD    C4326171   4.705   8.292   9.207  0.2078  0.0497 -1.6308
    1BTD    C4426172   4.774   8.272   9.348 -0.5960  0.4780 -0.9018
    1BTD    C4526173   4.671   8.269   9.465  1.1420 -0.6521 -0.2787
    1BTD    C4626174   4.707   8.250   9.614 -0.3727 -0.1111 -0.9919
    1BTD    C4726175   4.918   8.201   9.343 -0.0424 -0.1852 -0.6532
    1BTD    C4826176   5.008   8.182   9.463  0.2949 -0.3512 -0.2409
    1BTD    C4926177   5.143   8.101   9.463  0.2925 -0.4071  0.2642
    1BTD    C5026178   5.179   8.012   9.589  0.7980  0.5926  1.0013
    1BTD    C7526179   4.883   8.375   8.942 -1.1301 -0.8810  0.1896
    1BTD    C7626180   4.987   8.285   8.887  0.0111 -0.5483 -0.6430
    1BTD    C7726181   4.920   8.155   8.894 -0.1301  0.7612  0.8538
    1BTD    C7826182   5.011   8.054   8.967  0.6854  0.0353  0.3945
    1BTD    C7926183   5.034   8.322   8.737 -0.2306 -0.7117  0.1345
    1BTD    C8026184   5.162   8.228   8.685  1.2536  0.3511  0.5118
    1BTD    C8126185   5.295   8.190   8.742  0.6179 -0.1141  0.2241
    1BTD    C8226186   5.368   8.312   8.783  0.1689 -0.1732 -0.4375
    2TTP     S126187   4.365   7.934   9.133 -0.2573 -0.1180  0.4630
    2TTP     S526188   4.732   7.921   9.358  0.0619  0.1775 -0.0355
    2TTP     C126189   4.635   7.772   9.397  0.1610  0.1784  0.2205
    2TTP     C226190   4.516   7.767   9.330  0.0684  0.0871  0.3896
    2TTP     C326191   4.497   7.881   9.245 -0.0843  0.0132  0.3226
    2TTP     C426192   4.463   8.082   9.094 -0.3566 -0.1187  0.2069
    2TTP    C1726193   4.582   8.087   9.161 -0.2639 -0.0279  0.0376
    2TTP    C1826194   4.600   7.973   9.246 -0.1110  0.0461  0.1042
    2TTP    C3226195   4.427   7.644   9.320 -0.2575 -1.1391 -0.9432
    2TTP    C3326196   4.291   7.649   9.382 -0.5127  1.6608 -0.5205
    2TTP    C3426197   4.244   7.512   9.447  0.9483  0.5892 -1.5731
    2TTP    C3526198   4.245   7.516   9.595  0.3286  0.4630 -0.3474
    2TTP    C3626199   4.383   7.542   9.665  0.0487  0.6018 -0.1964
    2TTP    C3726200   4.380   7.550   9.819  0.7132 -0.7243 -0.9034
    2TTP    C3826201   4.313   7.679   9.882 -0.0776  0.2741 -1.0148
    2TTP    C3926202   4.395   7.815   9.874  1.2663  0.3639 -0.0051
    2TTP    C4026203   4.416   7.877  10.020 -0.2340 -0.7714 -0.6070
    2TTP    C4126204   4.322   7.961  10.111 -0.4413 -1.4910  0.2246
    2TTP    C4226205   4.175   7.967  10.073  0.8743  0.0945  0.0781
    3TTP     S126206   4.586   8.582   8.573 -0.5548  0.1552  0.1305
    3TTP     S526207   4.945   8.720   8.766  0.1369 -0.1335 -0.9267
    3TTP     C126208   4.911   8.827   8.623 -0.3898  0.0987 -0.6379
    3TTP     C226209   4.799   8.790   8.555 -0.6343  0.2015 -0.2940
    3TTP     C326210   4.735   8.677   8.613 -0.4147  0.1006 -0.2468
    3TTP     C426211   4.619   8.475   8.716 -0.0281 -0.0770 -0.1585
    3TTP    C1726212   4.732   8.511   8.784  0.2165 -0.1795 -0.5023
    3TTP    C1826213   4.796   8.625   8.726 -0.0032 -0.0792 -0.5496
    3TTP    C3226214   4.736   8.863   8.438 -0.5905  1.6122  1.4267
    3TTP    C3326215   4.789   8.805   8.298  0.8873  0.2253 -0.2200
    3TTP    C3426216   4.702   8.813   8.174 -0.3033 -0.3037  0.1231
    3TTP    C3526217   4.719   8.930   8.097 -0.1872 -0.9416  1.2297
    3TTP    C3626218   4.855   8.949   8.025 -0.7070  0.5129  0.7974
    3TTP    C3726219   4.924   9.085   8.004 -0.4664 -0.9221 -0.5341
    3TTP    C3826220   4.892   9.155   7.869 -0.0553  0.4293 -1.1424
    3TTP    C3926221   4.962   9.285   7.830  1.9292 -0.5997  0.1656
    3TTP    C4026222   5.109   9.279   7.850 -0.0357 -0.7252  0.3509
    3TTP    C4126223   5.211   9.359   7.764 -0.0939  0.6352  0.2154
    3TTP    C4226224   5.193   9.282   7.631  0.4662  0.9447  1.8027
    4FIC     F126225   5.170   7.729  10.022 -0.0027 -0.0936 -0.0582
    4FIC     F226226   5.184   7.460   9.981  0.1190 -0.0631 -0.2170
    4FIC     O126227   4.798   7.868   9.653  0.1075 -0.0099 -0.1378
    4FIC     N526228   4.941   7.173   9.660  0.3726  0.0403 -0.5026
    4FIC     N626229   4.648   7.336   9.380  0.4342  0.0997 -0.5329
    4FIC    C1926230   4.680   7.661   9.484  0.2629  0.0490 -0.3181
    4FIC    C2026231   4.773   7.637   9.578  0.2306  0.0267 -0.2921
    4FIC    C2126232   4.829   7.748   9.661  0.1501 -0.0029 -0.1979
    4FIC    C2226233   4.927   7.687   9.753  0.1330 -0.0217 -0.1919
    4FIC    C2326234   5.004   7.751   9.850  0.0653 -0.0511 -0.1183
    4FIC    C2426235   5.090   7.672   9.925  0.0622 -0.0645 -0.1285
    4FIC    C2526236   5.098   7.534   9.904  0.1251 -0.0487 -0.2105
    4FIC    C2626237   5.021   7.470   9.808  0.1926 -0.0193 -0.2847
    4FIC    C2726238   4.933   7.548   9.730  0.1967 -0.0056 -0.2754
    4FIC    C2826239   4.839   7.511   9.622  0.2593  0.0249 -0.3402
    4FIC    C2926240   4.817   7.385   9.572  0.3304  0.0471 -0.4275
    4FIC    C3026241   4.885   7.269   9.620  0.3532  0.0433 -0.4685
    4FIC    C3126242   4.724   7.359   9.467  0.3871  0.0758 -0.4854
    5FIC     F126243   5.707   8.984   8.695 -0.1295  0.2737 -0.6928
    5FIC     F226244   5.663   9.226   8.579 -0.4992  0.2522 -0.5999
    5FIC     O126245   5.207   8.777   8.693  0.0967 -0.2813 -0.3061
    5FIC     N526246   5.243   9.427   8.410 -0.8694 -0.1733 -0.1903
    5FIC     N626247   4.861   9.216   8.432 -0.6182 -0.6025  0.0932
    5FIC    C1926248   4.987   8.935   8.581 -0.1763 -0.4988 -0.0798
    5FIC    C2026249   5.115   8.978   8.587 -0.2186 -0.3581 -0.1807
    5FIC    C2126250   5.222   8.891   8.646 -0.0707 -0.2527 -0.2935
    5FIC    C2226251   5.348   8.967   8.635 -0.1636 -0.1106 -0.3855
    5FIC    C2326252   5.475   8.928   8.677 -0.0833  0.0203 -0.5043
    5FIC    C2426253   5.579   9.017   8.657 -0.1998  0.1407 -0.5747
    5FIC    C2526254   5.556   9.142   8.597 -0.3899  0.1296 -0.5264
    5FIC    C2626255   5.430   9.182   8.555 -0.4711 -0.0010 -0.4077
    5FIC    C2726256   5.323   9.093   8.575 -0.3556 -0.1240 -0.3355
    5FIC    C2826257   5.179   9.104   8.542 -0.3970 -0.2763 -0.2077
    5FIC    C2926258   5.116   9.211   8.483 -0.5678 -0.3312 -0.1297
    5FIC    C3026259   5.186   9.330   8.443 -0.7330 -0.2441 -0.1633
    5FIC    C3126260   4.976   9.214   8.455 -0.5946 -0.4804 -0.0076
    1BTD     S226261   9.623   1.265  10.943 -0.2304 -0.4384 -0.3330
    1BTD     N126262   9.540   1.252  10.784  0.1502  0.2017 -0.5941
    1BTD     N226263   9.512   1.391  11.007 -0.5715 -0.9184  0.0353
    1BTD     N326264   9.136   1.624  10.851 -0.5789 -0.7408  0.3147
    1BTD     N426265   9.170   1.452  10.576  0.3107  0.6395 -0.4611
    1BTD     C526266   9.347   1.358  10.679  0.2234  0.4136 -0.5152
    1BTD     C626267   9.439   1.337  10.787  0.0110  0.0334 -0.4034
    1BTD     C726268   9.424   1.415  10.912 -0.3929 -0.5936 -0.0505
    1BTD     C826269   9.316   1.511  10.922 -0.5648 -0.8090  0.1717
    1BTD    C1526270   9.228   1.528  10.814 -0.3456 -0.4207  0.0511
    1BTD    C1626271   9.243   1.452  10.694  0.0435  0.1835 -0.2884
    1BTD    C4326272   9.144   1.575  10.506  1.0555 -0.1662 -0.4611
    1BTD    C4426273   9.254   1.672  10.478  0.3503  0.1937 -0.3691
    1BTD    C4526274   9.196   1.815  10.443  0.7900 -0.1842 -0.3125
    1BTD    C4626275   9.183   1.912  10.559 -0.1457  0.5725  0.5834
    1BTD    C4726276   9.373   1.657  10.388  0.6287  0.4775 -0.0009
    1BTD    C4826277   9.505   1.655  10.454 -1.6588  0.6773  0.2479
    1BTD    C4926278   9.534   1.785  10.536 -0.1169  0.7519 -0.4351
    1BTD    C5026279   9.556   1.912  10.460 -1.3203 -0.1401 -0.6748
    1BTD    C7526280   8.997   1.631  10.784 -0.9941  0.0579  0.4337
    1BTD    C7626281   8.878   1.701  10.830  0.7956 -1.0999  0.7114
    1BTD    C7726282   8.750   1.612  10.861 -0.2166  0.7407 -0.1694
    1BTD    C7826283   8.701   1.509  10.756  0.0535  0.5864  0.2597
    1BTD    C7926284   8.848   1.845  10.876  0.6211 -0.0400  1.7075
    1BTD    C8026285   8.821   1.954  10.754 -0.8368 -0.4911  0.1034
    1BTD    C8126286   8.831   2.077  10.841  0.7492  1.3439 -1.3397
    1BTD    C8226287   8.844   2.205  10.770  0.7230  0.2425  1.5194
    2TTP     S126288   9.365   1.139  10.475 -0.0563  0.5081 -0.1333
    2TTP     S526289   9.003   1.283  10.294 -0.7079 -0.1504  0.6311
    2TTP     C126290   9.042   1.120  10.223 -0.3039  0.1270  0.2091
    2TTP     C226291   9.156   1.066  10.275 -0.0789  0.3467 -0.0515
    2TTP     C326292   9.217   1.151  10.372 -0.2174  0.3039  0.0722
    2TTP     C426293   9.326   1.301  10.546 -0.4609  0.2307  0.2887
    2TTP    C1726294   9.211   1.356  10.495 -0.6855  0.0110  0.5492
    2TTP    C1826295   9.151   1.270  10.397 -0.5469  0.0539  0.4253
    2TTP    C3226296   9.224   0.934  10.247 -2.2098 -0.2274  0.1800
    2TTP    C3326297   9.349   0.959  10.153 -1.6281 -0.6930  0.5652
    2TTP    C3426298   9.453   0.863  10.175 -1.2605 -1.2444 -0.7240
    2TTP    C3526299   9.566   0.838  10.076  0.4440 -0.0486  0.9868
    2TTP    C3626300   9.639   0.701  10.056  0.6078  0.1113 -1.7870
    2TTP    C3726301   9.741   0.710   9.946  0.8125 -0.3576 -0.9975
    2TTP    C3826302   9.701   0.749   9.800  0.7542  1.4251 -0.0408
    2TTP    C3926303   9.748   0.866   9.743 -0.3574 -0.5041  0.5036
    2TTP    C4026304   9.888   0.920   9.782  0.6122 -1.0317  1.6009
    2TTP    C4126305   9.924   1.062   9.721 -1.1566  0.8405  0.9731
    2TTP    C4226306   9.978   1.033   9.582 -1.0122 -0.4762 -0.4180
    3TTP     S126307   9.385   1.682  11.145  0.1525 -0.5122 -0.4481
    3TTP     S526308   9.128   1.986  10.983 -0.0165 -0.1276  0.5302
    3TTP     C126309   9.239   2.063  11.105  0.4280 -0.3300  0.2584
    3TTP     C226310   9.325   1.973  11.162  0.5059 -0.4606 -0.0598
    3TTP     C326311   9.306   1.841  11.112  0.2179 -0.4057 -0.1001
    3TTP     C426312   9.274   1.605  11.023 -0.2921 -0.3098 -0.1762
    3TTP    C1726313   9.188   1.694  10.966 -0.3703 -0.1792  0.1422
    3TTP    C1826314   9.207   1.827  11.016 -0.0820 -0.2341  0.1824
    3TTP    C3226315   9.438   1.984  11.267  1.1137 -0.4491  0.1261
    3TTP    C3326316   9.486   2.123  11.313 -0.3664  0.6001  0.0272
    3TTP    C3426317   9.417   2.192  11.424  0.0464 -0.0875  0.3768
    3TTP    C3526318   9.513   2.264  11.511  0.5148  0.9269 -0.0085
    3TTP    C3626319   9.455   2.402  11.532  0.6876 -1.5996  0.4711
    3TTP    C3726320   9.545   2.506  11.447  0.8866 -0.0803  0.4281
    3TTP    C3826321   9.479   2.650  11.449  0.0467  0.2503 -0.1144
    3TTP    C3926322   9.571   2.744  11.374  0.4837  0.2621 -0.6858
    3TTP    C4026323   9.531   2.889  11.360 -1.2719  0.4908  0.4526
    3TTP    C4126324   9.388   2.931  11.325  0.3421 -1.0826 -0.6695
    3TTP    C4226325   9.338   3.018  11.447  0.3907  1.1485  0.9105
    4FIC     F126326   8.589   1.425   9.620 -0.2174  0.0453  0.3445
    4FIC     F226327   8.506   1.173   9.559  0.2275 -0.0257  0.0241
    4FIC     O126328   8.930   1.326  10.029 -0.2341  0.1506  0.3836
    4FIC     N526329   8.631   0.740   9.764  0.8554 -0.0529 -0.4091
    4FIC     N626330   8.914   0.713  10.095  0.7527  0.0436 -0.3140
    4FIC    C1926331   8.972   1.050  10.116  0.1850  0.1200  0.0911
    4FIC    C2026332   8.890   1.084  10.015  0.1719  0.0964  0.0944
    4FIC    C2126333   8.873   1.229   9.976 -0.0501  0.1143  0.2491
    4FIC    C2226334   8.777   1.231   9.865 -0.0043  0.0804  0.2093
    4FIC    C2326335   8.730   1.342   9.795 -0.1578  0.0821  0.3138
    4FIC    C2426336   8.639   1.320   9.693 -0.0750  0.0459  0.2485
    4FIC    C2526337   8.597   1.190   9.662  0.1544  0.0093  0.0830
    4FIC    C2626338   8.643   1.078   9.731  0.3083  0.0074 -0.0222
    4FIC    C2726339   8.735   1.099   9.835  0.2277  0.0437  0.0420
    4FIC    C2826340   8.803   1.004   9.926  0.3452  0.0521 -0.0353
    4FIC    C2926341   8.788   0.867   9.928  0.5710  0.0241 -0.1960
    4FIC    C3026342   8.701   0.797   9.838  0.7267 -0.0181 -0.3126
    4FIC    C3126343   8.857   0.783  10.020  0.6695  0.0350 -0.2596
    5FIC     F126344   8.670   2.653  11.043 -0.5527 -0.0392 -0.0823
    5FIC     F226345   8.873   2.829  11.000 -0.6251 -0.2459 -1.3440
    5FIC     O126346   8.947   2.198  11.134 -0.4029  0.3332  1.3700
    5FIC     N526347   9.362   2.758  11.003 -0.6218 -0.2773 -2.1231
    5FIC     N626348   9.538   2.366  11.083 -0.4902  0.0555 -0.7339
    5FIC    C1926349   9.239   2.204  11.126 -0.4188  0.2682  0.6803
    5FIC    C2026350   9.162   2.312  11.104 -0.4535  0.1826  0.3641
    5FIC    C2126351   9.012   2.301  11.111 -0.4425  0.2233  0.7529
    5FIC    C2226352   8.959   2.435  11.083 -0.4885  0.1075  0.2592
    5FIC    C2326353   8.825   2.474  11.078 -0.4959  0.0976  0.3819
    5FIC    C2426354   8.799   2.608  11.050 -0.5425 -0.0225 -0.1673
    5FIC    C2526355   8.904   2.698  11.027 -0.5793 -0.1288 -0.8168
    5FIC    C2626356   9.037   2.660  11.032 -0.5722 -0.1196 -0.9427
    5FIC    C2726357   9.066   2.525  11.061 -0.5255  0.0012 -0.3932
    5FIC    C2826358   9.195   2.453  11.073 -0.5054  0.0432 -0.3545
    5FIC    C2926359   9.320   2.507  11.058 -0.5305 -0.0328 -0.8838
    5FIC    C3026360   9.343   2.644  11.028 -0.5805 -0.1670 -1.5633
    5FIC    C3126361   9.439   2.429  11.072 -0.5081  0.0162 -0.7982
    1BTD     S226362   2.833  10.807   4.905  0.1458  0.1226 -0.3354
    1BTD     N126363   2.941  10.742   4.776 -0.2112 -0.0324 -0.5572
    1BTD     N226364   2.764  10.937   4.801  0.1739  0.2699 -0.1709
    1BTD     N326365   2.817  11.083   4.358 -0.4135  0.2897 -0.2364
    1BTD     N426366   3.035  10.842   4.327 -0.8879 -0.0827 -0.7124
    1BTD     C526367   2.987  10.797   4.542 -0.5588 -0.0546 -0.6325
    1BTD     C626368   2.921  10.816   4.668 -0.2871  0.0300 -0.5002
    1BTD     C726369   2.822  10.925   4.682 -0.0716  0.1993 -0.2841
    1BTD     C826370   2.795  11.010   4.569 -0.1385  0.2759 -0.2110
    1BTD    C1526371   2.862  10.988   4.448 -0.4073  0.1885 -0.3459
    1BTD    C1626372   2.957  10.882   4.434 -0.6149  0.0254 -0.5543
    1BTD    C4326373   3.014  10.872   4.178 -0.4714 -0.5151 -0.0430
    1BTD    C4426374   2.918  10.786   4.089  0.0761  1.5938  0.1159
    1BTD    C4526375   2.878  10.792   3.940  0.4027 -0.5889  0.3729
    1BTD    C4626376   2.976  10.812   3.821  0.2426  0.8018  0.7476
    1BTD    C4726377   2.799  10.730   4.178  0.5533 -1.7741  0.1749
    1BTD    C4826378   2.781  10.575   4.203  0.0827 -1.3892 -0.6961
    1BTD    C4926379   2.659  10.509   4.135 -0.4803  0.3584  0.1096
    1BTD    C5026380   2.639  10.494   3.981  0.2314  0.1456  1.4814
    1BTD    C7526381   2.890  11.133   4.252  0.5921  0.0678 -0.4861
    1BTD    C7626382   2.857  11.197   4.121  0.2657 -0.5436  0.8385
    1BTD    C7726383   2.740  11.140   4.043  0.8087 -0.1784  0.7425
    1BTD    C7826384   2.601  11.118   4.112  0.4416  0.6107 -0.4480
    1BTD    C7926385   2.964  11.254   4.021  1.8209 -0.5485 -0.1982
    1BTD    C8026386   3.088  11.313   4.075  0.0022 -0.0498 -0.6194
    1BTD    C8126387   3.203  11.335   3.963 -1.2595 -0.0909 -1.1191
    1BTD    C8226388   3.299  11.448   4.016  0.7197  1.1569  0.5014
    2TTP     S126389   3.181  10.557   4.561  0.0645 -0.2760  0.4317
    2TTP     S526390   3.276  10.619   4.146  0.3794  0.0591  0.5537
    2TTP     C126391   3.367  10.473   4.205  0.4294  0.0834  0.5369
    2TTP     C226392   3.343  10.445   4.337  0.3349 -0.0186  0.4982
    2TTP     C326393   3.252  10.538   4.396  0.2199 -0.1194  0.4804
    2TTP     C426394   3.090  10.703   4.502  0.0145 -0.3002  0.4486
    2TTP    C1726395   3.114  10.731   4.370  0.1089 -0.1976  0.4874
    2TTP    C1826396   3.205  10.638   4.311  0.2241 -0.0970  0.5051
    2TTP    C3226397   3.406  10.339   4.411  0.1367 -1.1254  0.3076
    2TTP    C3326398   3.388  10.198   4.365  1.2400  0.5431 -0.7011
    2TTP    C3426399   3.459  10.095   4.457 -0.1665  0.1065  0.0901
    2TTP    C3526400   3.598  10.121   4.468 -0.9911  1.0499 -0.0371
    2TTP    C3626401   3.704  10.021   4.413  0.6324 -0.4927  0.9030
    2TTP    C3726402   3.697  10.001   4.259 -0.0967  0.1442  0.1863
    2TTP    C3826403   3.596   9.908   4.174 -1.6339 -0.1185 -0.1865
    2TTP    C3926404   3.596   9.751   4.179 -0.4048  0.1499 -1.2588
    2TTP    C4026405   3.549   9.676   4.304 -1.7567  0.4001 -0.6569
    2TTP    C4126406   3.528   9.516   4.284 -0.3091 -0.4973 -0.1665
    2TTP    C4226407   3.649   9.426   4.308 -0.2148  0.8402  0.1148
    3TTP     S126408   2.584  11.214   4.648  0.3165  0.2446  0.0632
    3TTP     S526409   2.645  11.405   4.268 -0.7156 -0.1092 -0.2880
    3TTP     C126410   2.521  11.499   4.360 -0.3318  0.0818  0.0417
    3TTP     C226411   2.494  11.446   4.483  0.0095  0.2022  0.1695
    3TTP     C326412   2.572  11.329   4.509 -0.0198  0.1481  0.0118
    3TTP     C426413   2.709  11.120   4.556 -0.0674  0.0536 -0.2664
    3TTP    C1726414   2.735  11.173   4.433 -0.4087 -0.0669 -0.3943
    3TTP    C1826415   2.658  11.291   4.407 -0.3794 -0.0127 -0.2365
    3TTP    C3226416   2.391  11.508   4.583  0.8190 -1.2070 -0.2228
    3TTP    C3326417   2.251  11.445   4.635 -0.0902  1.4418 -2.3148
    3TTP    C3426418   2.148  11.394   4.550 -0.6908  1.1194 -0.1089
    3TTP    C3526419   2.083  11.258   4.601  0.1671 -0.1399 -0.1540
    3TTP    C3626420   2.013  11.253   4.751 -0.3041 -0.5109  2.2047
    3TTP    C3726421   1.864  11.290   4.703  1.1375  0.7428 -1.3109
    3TTP    C3826422   1.750  11.192   4.738 -0.4386  1.0776 -0.3138
    3TTP    C3926423   1.781  11.048   4.797 -0.6501  0.4207  0.2055
    3TTP    C4026424   1.875  10.954   4.732 -0.8532 -0.4646  1.3890
    3TTP    C4126425   1.817  10.824   4.704  0.9260 -0.5160 -0.5532
    3TTP    C4226426   1.810  10.712   4.814 -1.0855 -0.7645  0.5477
    4FIC     F126427   3.483  10.371   3.401 -0.5650 -0.3824  0.1221
    4FIC     F226428   3.738  10.293   3.454 -0.1950  0.7110 -0.0011
    4FIC     O126429   3.296  10.455   3.902 -0.7091 -1.2505  0.2159
    4FIC     N526430   3.972  10.240   3.887  0.2341  1.6644 -0.1112
    4FIC     N626431   3.774  10.321   4.268  0.0468  0.7658 -0.0131
    4FIC    C1926432   3.473  10.410   4.130 -0.4068 -0.5140  0.1316
    4FIC    C2026433   3.510  10.392   4.002 -0.3850 -0.3386  0.1128
    4FIC    C2126434   3.413  10.417   3.890 -0.5471 -0.7422  0.1590
    4FIC    C2226435   3.486  10.388   3.765 -0.4755 -0.4156  0.1232
    4FIC    C2326436   3.437  10.397   3.635 -0.5739 -0.6089  0.1458
    4FIC    C2426437   3.524  10.364   3.532 -0.4761 -0.2202  0.1030
    4FIC    C2526438   3.656  10.324   3.560 -0.2855  0.3433  0.0394
    4FIC    C2626439   3.705  10.315   3.689 -0.1861  0.5386  0.0167
    4FIC    C2726440   3.618  10.348   3.795 -0.2831  0.1516  0.0593
    4FIC    C2826441   3.638  10.348   3.942 -0.2199  0.2210  0.0504
    4FIC    C2926442   3.754  10.315   4.008 -0.0423  0.7112 -0.0050
    4FIC    C3026443   3.873  10.274   3.941  0.1090  1.2336 -0.0632
    4FIC    C3126444   3.764  10.319   4.151  0.0057  0.7384 -0.0093
    5FIC     F126445   2.398  11.843   3.622  0.1747 -0.4113 -0.2024
    5FIC     F226446   2.173  11.963   3.719  0.5659  0.2948 -0.1535
    5FIC     O126447   2.573  11.584   4.064 -0.3866 -0.7355 -0.1673
    5FIC     N526448   1.975  11.951   4.172  0.7286  1.0790 -0.0582
    5FIC     N626449   2.158  11.724   4.498  0.2111  0.6833 -0.0407
    5FIC    C1926450   2.421  11.607   4.313 -0.2120 -0.1760 -0.1081
    5FIC    C2026451   2.386  11.667   4.198 -0.0862 -0.1221 -0.1187
    5FIC    C2126452   2.469  11.651   4.075 -0.1879 -0.4231 -0.1494
    5FIC    C2226453   2.403  11.729   3.969 -0.0060 -0.2735 -0.1540
    5FIC    C2326454   2.443  11.745   3.836 -0.0193 -0.4507 -0.1791
    5FIC    C2426455   2.364  11.824   3.755  0.1759 -0.2528 -0.1782
    5FIC    C2526456   2.248  11.885   3.804  0.3773  0.1109 -0.1531
    5FIC    C2626457   2.207  11.871   3.936  0.3917  0.2895 -0.1280
    5FIC    C2726458   2.286  11.791   4.021  0.1959  0.0936 -0.1285
    5FIC    C2826459   2.271  11.755   4.164  0.1547  0.2011 -0.1059
    5FIC    C2926460   2.170  11.796   4.248  0.3101  0.5362 -0.0780
    5FIC    C3026461   2.063  11.881   4.206  0.5397  0.8335 -0.0672
    5FIC    C3126462   2.164  11.756   4.385  0.2547  0.6152 -0.0576
    1BTD     S226463   3.494   0.753  10.660  0.2993  0.1599  0.1022
    1BTD     N126464   3.384   0.614  10.691 -0.0419  0.3392 -0.2787
    1BTD     N226465   3.406   0.866  10.769  0.5316  0.1008  0.3529
    1BTD     N326466   3.028   0.844  11.047  0.3886  0.3039  0.1755
    1BTD     N426467   3.002   0.534  10.951 -0.3181  0.5977 -0.6032
    1BTD     C526468   3.185   0.576  10.828 -0.1776  0.4706 -0.4389
    1BTD     C626469   3.292   0.656  10.776  0.0310  0.3453 -0.2038
    1BTD     C726470   3.304   0.797  10.820  0.3520  0.2119  0.1497
    1BTD     C826471   3.208   0.850  10.913  0.4483  0.2104  0.2506
    1BTD    C1526472   3.105   0.768  10.961  0.2363  0.3355  0.0123
    1BTD    C1626473   3.093   0.632  10.918 -0.0731  0.4641 -0.3289
    1BTD    C4326474   2.863   0.556  10.933  2.5473  0.1211 -0.5876
    1BTD    C4426475   2.750   0.455  10.986 -1.4426  0.8593 -0.5305
    1BTD    C4526476   2.625   0.461  10.905  0.6196 -0.0913 -0.6658
    1BTD    C4626477   2.532   0.570  10.957 -0.0614 -0.9015  0.5616
    1BTD    C4726478   2.745   0.410  11.142 -0.3132 -1.1737 -0.1756
    1BTD    C4826479   2.618   0.343  11.199 -0.1116  0.6507  0.9518
    1BTD    C4926480   2.651   0.226  11.302  0.1925 -0.5814  0.5142
    1BTD    C5026481   2.539   0.123  11.301 -2.2453  1.3536 -0.4827
    1BTD    C7526482   2.906   0.814  11.113  0.4061 -0.1880 -0.1445
    1BTD    C7626483   2.776   0.872  11.050  0.6686  0.2636  0.2074
    1BTD    C7726484   2.655   0.880  11.134 -0.3355  0.5264 -0.4697
    1BTD    C7826485   2.617   0.781  11.255 -0.3115 -1.1008  0.4624
    1BTD    C7926486   2.782   0.942  10.914  1.3542 -0.4429  0.7305
    1BTD    C8026487   2.659   0.917  10.821 -1.0080  0.5778  0.2445
    1BTD    C8126488   2.559   1.025  10.784 -0.8070  0.8829  1.0470
    1BTD    C8226489   2.459   0.952  10.690 -0.2969  0.5460  1.5097
    2TTP     S126490   3.240   0.293  10.745  0.1287 -0.5236  0.2206
    2TTP     S526491   2.919   0.154  10.996 -0.2071  0.4353  0.3324
    2TTP     C126492   3.002   0.010  10.922 -0.5068  0.1761  0.4983
    2TTP     C226493   3.106   0.044  10.840 -0.4208 -0.1355  0.4740
    2TTP     C326494   3.124   0.186  10.833 -0.1150 -0.1805  0.3228
    2TTP     C426495   3.157   0.438  10.819  0.4286 -0.2642  0.0544
    2TTP    C1726496   3.053   0.403  10.900  0.3425  0.0472  0.0790
    2TTP    C1826497   3.035   0.262  10.908  0.0368  0.0922  0.2301
    2TTP    C3226498   3.185  -0.079  10.783 -0.6804 -1.8379  0.1650
    2TTP    C3326499   3.337  -0.065  10.757 -1.1624 -1.3136 -0.9691
    2TTP    C3426500   3.377  -0.200  10.718 -0.8694 -0.1504  0.0882
    2TTP    C3526501   3.531  -0.188  10.694 -0.2114  1.3430  1.3953
    2TTP    C3626502   3.575  -0.112  10.561 -0.5004  0.7951  0.1253
    2TTP    C3726503   3.683  -0.201  10.514 -0.1508  0.3809  1.7396
    2TTP    C3826504   3.822  -0.141  10.507 -0.2220 -0.0354 -1.0062
    2TTP    C3926505   3.887  -0.261  10.444 -0.6905  0.9840 -0.3002
    2TTP    C4026506   4.034  -0.248  10.452 -1.0821 -0.5868 -0.4605
    2TTP    C4126507   4.117  -0.343  10.364 -0.1058  0.1028  0.6624
    2TTP    C4226508   4.063  -0.427  10.245  0.8985  0.3130 -0.1007
    3TTP     S126509   3.248   1.155  10.959 -0.1861  0.5716 -0.1034
    3TTP     S526510   2.932   1.141  11.251  0.3009 -0.1122  0.3977
    3TTP     C126511   2.994   1.312  11.241 -0.0436  0.0121  0.3397
    3TTP     C226512   3.095   1.326  11.150 -0.2142  0.2305  0.1814
    3TTP     C326513   3.127   1.203  11.085 -0.0791  0.3077  0.1004
    3TTP     C426514   3.185   0.984  10.969  0.1584  0.4474 -0.0455
    3TTP    C1726515   3.084   0.970  11.060  0.3291  0.2289  0.1130
    3TTP    C1826516   3.052   1.093  11.125  0.1940  0.1518  0.1938
    3TTP    C3226517   3.168   1.446  11.109  0.3626 -1.6397 -0.0124
    3TTP    C3326518   3.318   1.466  11.104  0.1800 -0.1529  0.3202
    3TTP    C3426519   3.364   1.610  11.143  0.0176  0.7237  1.1384
    3TTP    C3526520   3.359   1.619  11.292  1.0831  0.7830 -0.1037
    3TTP    C3626521   3.379   1.760  11.341  0.6326  0.2672  1.2558
    3TTP    C3726522   3.267   1.850  11.297 -0.3284 -1.6409 -0.1670
    3TTP    C3826523   3.272   1.997  11.301  0.0557 -0.7328  0.8356
    3TTP    C3926524   3.357   2.068  11.401 -1.1576 -1.0369 -0.6331
    3TTP    C4026525   3.346   2.044  11.560 -0.3792  0.6571 -0.4676
    3TTP    C4126526   3.208   2.076  11.606  0.4463  0.3869  1.2339
    3TTP    C4226527   3.224   2.087  11.753  1.2718 -0.2836 -0.7661
    4FIC     F126528   2.256  -0.294  11.034  0.0748  0.1242  0.0916
    4FIC     F226529   2.369  -0.527  11.118  0.0072 -0.1566 -0.5889
    4FIC     O126530   2.697  -0.006  10.908  0.1324  0.0925  0.2198
    4FIC     N526531   2.846  -0.657  11.148 -0.0492 -0.5829 -1.4763
    4FIC     N626532   3.167  -0.385  11.032  0.0095 -0.5510 -1.2386
    4FIC    C1926533   2.961  -0.126  10.943  0.0881 -0.1871 -0.3850
    4FIC    C2026534   2.846  -0.189  10.971  0.0764 -0.1683 -0.3905
    4FIC    C2126535   2.714  -0.121  10.951  0.1007 -0.0212 -0.0687
    4FIC    C2226536   2.610  -0.217  10.991  0.0795 -0.0386 -0.1650
    4FIC    C2326537   2.472  -0.199  10.990  0.0905  0.0672  0.0465
    4FIC    C2426538   2.393  -0.305  11.033  0.0657  0.0248 -0.1030
    4FIC    C2526539   2.452  -0.425  11.076  0.0308 -0.1204 -0.4538
    4FIC    C2626540   2.589  -0.444  11.077  0.0196 -0.2267 -0.6666
    4FIC    C2726541   2.671  -0.338  11.034  0.0443 -0.1857 -0.5200
    4FIC    C2826542   2.818  -0.325  11.024  0.0411 -0.2706 -0.6723
    4FIC    C2926543   2.911  -0.422  11.056  0.0110 -0.4165 -1.0097
    4FIC    C3026544   2.875  -0.550  11.106 -0.0221 -0.5076 -1.2648
    4FIC    C3126545   3.051  -0.401  11.043  0.0103 -0.4900 -1.1337
    5FIC     F126546   2.455   1.429  11.844  0.2226  0.5151  0.0514
    5FIC     F226547   2.413   1.681  11.748 -0.2421  0.2105 -0.5638
    5FIC     O126548   2.832   1.250  11.499  0.5220  0.3541  0.4621
    5FIC     N526549   2.623   1.915  11.366 -0.6970 -0.3422 -1.1556
    5FIC     N626550   2.926   1.724  11.116 -0.3694 -0.4067 -0.7106
    5FIC    C1926551   2.927   1.427  11.286  0.1843  0.0059  0.0202
    5FIC    C2026552   2.833   1.462  11.376  0.1272  0.0583 -0.0591
    5FIC    C2126553   2.790   1.366  11.483  0.3107  0.2394  0.1813
    5FIC    C2226554   2.688   1.435  11.564  0.1898  0.2530  0.0177
    5FIC    C2326555   2.619   1.386  11.674  0.2874  0.3964  0.1436
    5FIC    C2426556   2.527   1.471  11.734  0.1378  0.3784 -0.0576
    5FIC    C2526557   2.505   1.601  11.685 -0.1016  0.2213 -0.3744
    5FIC    C2626558   2.574   1.650  11.575 -0.2001  0.0777 -0.5016
    5FIC    C2726559   2.668   1.566  11.512 -0.0515  0.0935 -0.3016
    5FIC    C2826560   2.756   1.587  11.395 -0.0995 -0.0324 -0.3614
    5FIC    C2926561   2.765   1.702  11.319 -0.3132 -0.2009 -0.6431
    5FIC    C3026562   2.687   1.818  11.345 -0.5235 -0.2780 -0.9239
    5FIC    C3126563   2.854   1.713  11.208 -0.3428 -0.3131 -0.6786
    1BTD     S226564   2.115   6.569   9.419 -0.3806 -0.1728 -0.0236
    1BTD     N126565   2.093   6.449   9.287 -0.8603 -0.1462  0.0284
    1BTD     N226566   2.096   6.712   9.312  0.4548 -0.1322 -0.1326
    1BTD     N326567   2.017   6.788   8.856  1.2909 -0.0013 -0.2589
    1BTD     N426568   2.013   6.464   8.824 -0.3295 -0.0187 -0.0606
    1BTD     C526569   2.051   6.461   9.046 -0.5636 -0.0793 -0.0203
    1BTD     C626570   2.073   6.519   9.176 -0.3971 -0.1104 -0.0343
    1BTD     C726571   2.075   6.666   9.190  0.3390 -0.1024 -0.1245
    1BTD     C826572   2.054   6.748   9.074  0.8718 -0.0640 -0.1962
    1BTD    C1526573   2.033   6.687   8.948  0.6843 -0.0346 -0.1792
    1BTD    C1626574   2.031   6.545   8.935 -0.0249 -0.0424 -0.0925
    1BTD    C4326575   1.891   6.494   8.737 -0.0745 -1.1002 -0.5190
    1BTD    C4426576   1.860   6.431   8.599 -0.6146  0.0853 -0.6682
    1BTD    C4526577   1.940   6.497   8.494  0.3695 -0.5891  0.2990
    1BTD    C4626578   2.002   6.431   8.366 -0.7789 -0.1992  0.2483
    1BTD    C4726579   1.716   6.440   8.550 -1.1754  1.4826 -0.0190
    1BTD    C4826580   1.620   6.363   8.635  0.0896  0.1682 -0.1582
    1BTD    C4926581   1.511   6.343   8.543 -0.5956  0.0693 -0.3346
    1BTD    C5026582   1.407   6.247   8.608  0.5192 -0.4587 -0.4387
    1BTD    C7526583   2.036   6.798   8.705  0.1392  0.6142 -2.3465
    1BTD    C7626584   2.183   6.822   8.650  1.3513  0.0298 -0.3507
    1BTD    C7726585   2.204   6.789   8.503  0.4080 -0.0949  0.7573
    1BTD    C7826586   2.097   6.841   8.412  0.5515  0.5225  0.2467
    1BTD    C7926587   2.285   6.744   8.737 -0.1871  0.3174 -0.1384
    1BTD    C8026588   2.338   6.780   8.871  1.9389 -0.4822 -1.1524
    1BTD    C8126589   2.442   6.689   8.926  0.1303 -0.7964  0.1602
    1BTD    C8226590   2.461   6.762   9.047 -0.9336  0.9971  0.3443
    2TTP     S126591   2.037   6.157   9.057 -0.2885  0.0970  0.0400
    2TTP     S526592   2.110   6.140   8.633 -0.2282  0.4488  0.0355
    2TTP     C126593   2.121   5.971   8.701 -0.7482  0.3236 -0.1876
    2TTP     C226594   2.099   5.967   8.835 -0.7975  0.2078 -0.1996
    2TTP     C326595   2.073   6.096   8.890 -0.4262  0.2134 -0.0324
    2TTP     C426596   2.027   6.326   8.989  0.2316  0.2220  0.2630
    2TTP    C1726597   2.049   6.330   8.854  0.2809  0.3379  0.2749
    2TTP    C1826598   2.075   6.201   8.800 -0.0903  0.3322  0.1082
    2TTP    C3226599   2.116   5.835   8.932 -1.2709 -0.2819  0.0581
    2TTP    C3326600   2.247   5.855   9.020 -0.0971  0.1666 -0.9644
    2TTP    C3426601   2.384   5.839   8.959 -0.4088  0.0414  0.0232
    2TTP    C3526602   2.472   5.730   9.048  1.0914  0.5090 -0.8765
    2TTP    C3626603   2.626   5.760   9.041  0.8252  1.4065 -0.1966
    2TTP    C3726604   2.715   5.639   9.077  0.0404 -0.1735 -1.0826
    2TTP    C3826605   2.863   5.642   9.122  0.8682  1.9216 -1.1072
    2TTP    C3926606   2.885   5.731   9.245 -1.7293 -0.8046  0.4621
    2TTP    C4026607   2.908   5.670   9.370 -0.0494  0.3585 -0.2222
    2TTP    C4126608   2.790   5.705   9.472 -0.1981 -0.7147  0.8564
    2TTP    C4226609   2.855   5.810   9.567  0.0487  1.0630 -0.2175
    3TTP     S126610   2.128   7.025   9.142  0.1888 -0.1968 -0.0670
    3TTP     S526611   1.971   7.147   8.761  0.3219 -0.2886 -0.1509
    3TTP     C126612   2.028   7.295   8.850 -0.1697 -0.2116  0.0405
    3TTP     C226613   2.080   7.266   8.973 -0.2398 -0.1785  0.0780
    3TTP     C326614   2.076   7.126   9.001  0.0922 -0.2131 -0.0436
    3TTP     C426615   2.071   6.877   9.053  0.6804 -0.2739 -0.2587
    3TTP    C1726616   2.019   6.906   8.930  0.7504 -0.3069 -0.2960
    3TTP    C1826617   2.023   7.046   8.902  0.4184 -0.2724 -0.1740
    3TTP    C3226618   2.126   7.353   9.085 -0.3589  0.6647 -0.4470
    3TTP    C3326619   2.259   7.345   9.156 -0.7594 -0.1680  0.1822
    3TTP    C3426620   2.245   7.422   9.284  0.9205 -0.5596 -0.6931
    3TTP    C3526621   2.196   7.334   9.410 -0.5507 -0.3816 -0.3039
    3TTP    C3626622   2.292   7.222   9.440 -0.4022  0.1287 -0.8500
    3TTP    C3726623   2.263   7.141   9.565  0.1182 -0.0145 -0.4187
    3TTP    C3826624   2.392   7.047   9.554 -0.0269  0.1666 -0.7021
    3TTP    C3926625   2.388   6.954   9.671 -0.9828  0.4731 -1.0702
    3TTP    C4026626   2.513   6.880   9.652 -1.0955  0.9723  0.3811
    3TTP    C4126627   2.548   6.746   9.737  1.4788 -0.9448 -0.3083
    3TTP    C4226628   2.696   6.724   9.748  0.3174 -0.4592  0.9259
    4FIC     F126629   2.112   5.695   7.920  0.0106 -0.1898  0.0181
    4FIC     F226630   2.247   5.474   8.005  0.1282 -0.0867  0.0982
    4FIC     O126631   2.049   5.962   8.387 -0.0383 -0.0007 -0.0961
    4FIC     N526632   2.397   5.348   8.459  0.2627  0.1967  0.1321
    4FIC     N626633   2.321   5.601   8.807  0.2007  0.3237  0.0269
    4FIC    C1926634   2.156   5.846   8.634  0.0568  0.1650 -0.0599
    4FIC    C2026635   2.166   5.787   8.513  0.0644  0.1135 -0.0343
    4FIC    C2126636   2.109   5.853   8.391  0.0134  0.0292 -0.0551
    4FIC    C2226637   2.138   5.763   8.277  0.0370 -0.0104 -0.0184
    4FIC    C2326638   2.104   5.782   8.144  0.0063 -0.0890 -0.0212
    4FIC    C2426639   2.142   5.683   8.054  0.0381 -0.1128  0.0185
    4FIC    C2526640   2.212   5.569   8.098  0.0987 -0.0596  0.0600
    4FIC    C2626641   2.246   5.550   8.231  0.1296  0.0187  0.0629
    4FIC    C2726642   2.208   5.649   8.323  0.0982  0.0441  0.0231
    4FIC    C2826643   2.229   5.660   8.470  0.1175  0.1224  0.0148
    4FIC    C2926644   2.293   5.568   8.550  0.1737  0.1901  0.0467
    4FIC    C3026645   2.350   5.447   8.500  0.2224  0.1935  0.0935
    4FIC    C3126646   2.308   5.587   8.691  0.1882  0.2633  0.0358
    5FIC     F126647   1.520   7.677   8.333 -0.4008  0.3223  0.5496
    5FIC     F226648   1.619   7.914   8.423  0.9372  0.2069 -0.5536
    5FIC     O126649   1.809   7.327   8.627 -0.8800  0.0339  0.6773
    5FIC     N526650   1.968   8.005   8.762  2.5193 -0.1645 -2.0485
    5FIC     N626651   2.173   7.683   8.974  1.8751 -0.3664 -1.7262
    5FIC    C1926652   2.006   7.428   8.818  0.2281 -0.1786 -0.3308
    5FIC    C2026653   1.929   7.507   8.740  0.2964 -0.1016 -0.3200
    5FIC    C2126654   1.830   7.448   8.645 -0.2971  0.0057  0.2146
    5FIC    C2226655   1.764   7.561   8.576 -0.0486  0.0699  0.0792
    5FIC    C2326656   1.665   7.555   8.479 -0.4146  0.1749  0.4404
    5FIC    C2426657   1.618   7.676   8.429 -0.0697  0.2187  0.2157
    5FIC    C2526658   1.669   7.797   8.476  0.6196  0.1593 -0.3529
    5FIC    C2626659   1.769   7.804   8.573  0.9878  0.0546 -0.7155
    5FIC    C2726660   1.817   7.683   8.625  0.6475  0.0086 -0.4959
    5FIC    C2826661   1.921   7.655   8.727  0.8869 -0.0992 -0.7639
    5FIC    C2926662   1.994   7.748   8.797  1.5325 -0.1811 -1.3173
    5FIC    C3026663   1.979   7.889   8.778  2.0728 -0.1717 -1.7171
    5FIC    C3126664   2.092   7.712   8.894  1.7172 -0.2828 -1.5390
    1BTD     S226665   7.643   9.365   0.549 -0.2312  0.6202 -0.5596
    1BTD     N126666   7.669   9.327   0.723  0.0430  0.6325 -0.5963
    1BTD     N226667   7.528   9.499   0.580 -0.2309  0.5822 -0.3894
    1BTD     N326668   7.339   9.705   0.957  0.2645  0.5267 -0.1089
    1BTD     N426669   7.513   9.493   1.133  0.6020  0.5891 -0.3639
    1BTD     C526670   7.585   9.416   0.935  0.3308  0.6092 -0.4719
    1BTD     C626671   7.594   9.412   0.791  0.1166  0.6092 -0.4856
    1BTD     C726672   7.515   9.508   0.711 -0.0365  0.5805 -0.3697
    1BTD     C826673   7.431   9.604   0.779  0.0318  0.5536 -0.2460
    1BTD    C1526674   7.426   9.604   0.920  0.2428  0.5550 -0.2373
    1BTD    C1626675   7.502   9.511   0.997  0.3906  0.5824 -0.3489
    1BTD    C4326676   7.417   9.483   1.256  1.2598 -0.4842 -0.3313
    1BTD    C4426677   7.257   9.493   1.255 -0.2256  0.6147 -1.9493
    1BTD    C4526678   7.198   9.485   1.393  0.4030 -0.0465 -0.4508
    1BTD    C4626679   7.214   9.602   1.502 -1.4280 -0.4417 -0.5578
    1BTD    C4726680   7.179   9.405   1.157  0.5198  0.0291  0.2141
    1BTD    C4826681   7.034   9.425   1.120  0.3960 -0.2116 -0.0177
    1BTD    C4926682   6.985   9.529   1.009 -0.9543  0.3623 -0.0457
    1BTD    C5026683   6.991   9.477   0.870 -0.5897  0.8765 -0.1059
    1BTD    C7526684   7.321   9.764   1.093  0.0433 -0.0780  0.1143
    1BTD    C7626685   7.397   9.896   1.130 -0.6576  1.9275 -0.5706
    1BTD    C7726686   7.361  10.034   1.082  1.0893  0.3331 -0.5773
    1BTD    C7826687   7.258  10.117   1.166 -0.5322  1.3090 -1.2211
    1BTD    C7926688   7.448   9.883   1.279  0.0046  0.4769  0.9347
    1BTD    C8026689   7.567   9.790   1.308  0.4998 -0.7718 -0.2954
    1BTD    C8126690   7.597   9.779   1.453 -0.1288  0.2037 -0.7846
    1BTD    C8226691   7.731   9.720   1.506  0.3462 -1.1238 -0.0191
    2TTP     S126692   7.806   9.240   1.058 -0.1158 -0.0099  0.4030
    2TTP     S526693   7.678   9.378   1.445 -0.7737  0.1519  0.1312
    2TTP     C126694   7.828   9.277   1.466 -0.9127  0.0086  0.4481
    2TTP     C226695   7.877   9.229   1.348 -0.7176 -0.0496  0.5507
    2TTP     C326696   7.797   9.269   1.237 -0.4514  0.0165  0.3828
    2TTP     C426697   7.656   9.341   1.037  0.0234  0.1335  0.0860
    2TTP    C1726698   7.608   9.390   1.155 -0.1718  0.1917 -0.0166
    2TTP    C1826699   7.688   9.349   1.267 -0.4381  0.1254  0.1514
    2TTP    C3226700   8.015   9.154   1.332 -1.2469 -0.6976  0.5984
    2TTP    C3326701   8.044   9.048   1.236  0.4182  0.7234  1.4510
    2TTP    C3426702   8.187   8.992   1.230 -0.0874  0.3184 -1.5100
    2TTP    C3526703   8.224   8.890   1.334 -0.4386  1.2439  0.0129
    2TTP    C3626704   8.380   8.881   1.355  0.1760 -0.2265  0.0799
    2TTP    C3726705   8.501   8.898   1.255  0.8962 -1.9950 -0.2827
    2TTP    C3826706   8.534   8.796   1.146  0.4986  0.1430 -0.4626
    2TTP    C3926707   8.638   8.816   1.050  0.8314  0.0218 -0.4445
    2TTP    C4026708   8.628   8.950   0.967 -0.4469  0.8573  0.1071
    2TTP    C4126709   8.528   8.983   0.853 -1.2001 -0.2050  0.1065
    2TTP    C4226710   8.550   8.902   0.724  0.8560 -1.2596  1.1313
    3TTP     S126711   7.275   9.764   0.579  0.1472 -0.5206  0.6062
    3TTP     S526712   7.080   9.980   0.896 -0.0855  0.2875 -0.0795
    3TTP     C126713   7.015  10.040   0.737  0.3950  0.2400 -0.2961
    3TTP     C226714   7.072   9.977   0.629  0.4950 -0.0124 -0.0971
    3TTP     C326715   7.168   9.879   0.669  0.1959 -0.1771  0.2336
    3TTP     C426716   7.340   9.704   0.738 -0.3332 -0.4728  0.8227
    3TTP    C1726717   7.283   9.767   0.845 -0.4334 -0.2207  0.6237
    3TTP    C1826718   7.187   9.865   0.806 -0.1342 -0.0556  0.2931
    3TTP    C3226719   7.051   9.985   0.473  1.3852  0.1126 -0.4749
    3TTP    C3326720   6.982   9.871   0.399  0.8451  0.0187 -0.8055
    3TTP    C3426721   6.917   9.920   0.276 -0.6444  0.0608  1.9266
    3TTP    C3526722   6.879   9.811   0.175  0.2006  0.3067  1.1143
    3TTP    C3626723   6.796   9.880   0.056  0.0800 -0.7424 -0.8531
    3TTP    C3726724   6.658   9.825   0.044  0.3569  0.3288  0.0407
    3TTP    C3826725   6.615   9.681  -0.009 -0.0616 -0.6401 -0.7810
    3TTP    C3926726   6.474   9.713  -0.051  1.0603  0.6166  2.6140
    3TTP    C4026727   6.405   9.584  -0.126  0.0946  0.0381 -1.0295
    3TTP    C4126728   6.290   9.646  -0.192 -0.5837 -0.6909  0.5134
    3TTP    C4226729   6.233   9.540  -0.271  0.2080  1.1630  0.0841
    4FIC     F126730   7.706   9.508   2.237  0.2333  0.4976 -0.1245
    4FIC     F226731   7.843   9.287   2.318 -0.6174 -0.0660 -0.1915
    4FIC     O126732   7.736   9.454   1.699  0.4086  0.7904 -0.1444
    4FIC     N526733   8.061   8.931   2.052 -1.7157 -0.6671 -0.3021
    4FIC     N626734   8.057   8.934   1.615 -1.4071 -0.3247 -0.3042
    4FIC    C1926735   7.877   9.224   1.585 -0.3418  0.3560 -0.2155
    4FIC    C2026736   7.865   9.246   1.718 -0.3527  0.3045 -0.2079
    4FIC    C2126737   7.790   9.367   1.768  0.0467  0.5386 -0.1706
    4FIC    C2226738   7.795   9.360   1.915 -0.0777  0.4103 -0.1717
    4FIC    C2326739   7.740   9.450   2.006  0.1838  0.5443 -0.1435
    4FIC    C2426740   7.758   9.423   2.141 -0.0066  0.3785 -0.1509
    4FIC    C2526741   7.829   9.309   2.183 -0.4450  0.0888 -0.1855
    4FIC    C2626742   7.884   9.219   2.093 -0.7077 -0.0465 -0.2137
    4FIC    C2726743   7.867   9.245   1.956 -0.5208  0.1178 -0.2067
    4FIC    C2826744   7.912   9.170   1.836 -0.7071  0.0410 -0.2303
    4FIC    C2926745   7.985   9.053   1.835 -1.1280 -0.2234 -0.2662
    4FIC    C3026746   8.027   8.987   1.954 -1.4493 -0.4666 -0.2858
    4FIC    C3126747   8.024   8.988   1.714 -1.2791 -0.2778 -0.2869
    5FIC     F126748   6.749  10.636   1.221  0.2717  0.2704  0.4869
    5FIC     F226749   6.559  10.696   1.037 -0.3440 -0.2010  0.9602
    5FIC     O126750   7.012  10.234   0.970  0.5306  0.7949 -0.0873
    5FIC     N526751   6.471  10.496   0.592 -1.0446 -0.5052  1.2315
    5FIC     N626752   6.715  10.170   0.433 -0.7186 -0.0002  0.6875
    5FIC    C1926753   6.923  10.149   0.705  0.0343  0.5307  0.1610
    5FIC    C2026754   6.864  10.248   0.775 -0.0069  0.4172  0.2870
    5FIC    C2126755   6.915  10.286   0.911  0.2598  0.5658  0.1460
    5FIC    C2226756   6.830  10.396   0.959  0.1355  0.3858  0.3389
    5FIC    C2326757   6.839  10.464   1.080  0.2954  0.4358  0.2995
    5FIC    C2426758   6.746  10.564   1.104  0.1283  0.2346  0.5121
    5FIC    C2526759   6.648  10.595   1.008 -0.1892 -0.0082  0.7558
    5FIC    C2626760   6.638  10.528   0.887 -0.3501 -0.0594  0.7965
    5FIC    C2726761   6.731  10.426   0.862 -0.1848  0.1421  0.5836
    5FIC    C2826762   6.748  10.336   0.745 -0.2848  0.1516  0.5613
    5FIC    C2926763   6.672  10.335   0.631 -0.5790 -0.0479  0.7576
    5FIC    C3026764   6.562  10.424   0.610 -0.8340 -0.2985  1.0175
    5FIC    C3126765   6.696  10.244   0.523 -0.6540 -0.0203  0.7179
    1BTD     S226766   4.351   2.712   0.639  0.2059 -0.1393 -0.6845
    1BTD     N126767   4.232   2.728   0.505  0.2965  0.7784 -0.6695
    1BTD     N226768   4.228   2.732   0.770  0.1360 -0.9081 -0.6205
    1BTD     N326769   3.765   2.803   0.792  0.1574 -0.8175 -0.4630
    1BTD     N426770   3.769   2.797   0.467  0.3551  1.2606 -0.5234
    1BTD     C526771   3.990   2.764   0.489  0.3247  1.0052 -0.5925
    1BTD     C626772   4.113   2.747   0.561  0.2713  0.4800 -0.6202
    1BTD     C726773   4.111   2.749   0.709  0.1814 -0.4641 -0.5927
    1BTD     C826774   3.986   2.769   0.778  0.1496 -0.8357 -0.5390
    1BTD    C1526775   3.868   2.786   0.703  0.2041 -0.2965 -0.5135
    1BTD    C1626776   3.870   2.783   0.560  0.2906  0.6131 -0.5400
    1BTD    C4326777   3.637   2.722   0.462  0.5933  0.5151  0.7419
    1BTD    C4426778   3.511   2.746   0.370 -0.4104 -0.2821  1.2651
    1BTD    C4526779   3.441   2.628   0.313 -0.3958  0.7211 -0.6783
    1BTD    C4626780   3.513   2.501   0.294 -0.5343  1.0463  0.7072
    1BTD    C4726781   3.437   2.879   0.373  1.1215  2.2494  0.1469
    1BTD    C4826782   3.300   2.923   0.441 -0.0799  0.6320 -0.5596
    1BTD    C4926783   3.241   3.043   0.382 -0.2654 -0.6944 -0.1766
    1BTD    C5026784   3.131   3.003   0.290 -0.8278  0.4936  1.1844
    1BTD    C7526785   3.619   2.829   0.766 -0.1714 -0.2493 -1.3623
    1BTD    C7626786   3.505   2.876   0.866 -1.1982 -0.1653 -0.2922
    1BTD    C7726787   3.390   2.965   0.827  1.0565  0.0532  0.8684
    1BTD    C7826788   3.431   3.115   0.789 -0.3872  1.0121  0.0953
    1BTD    C7926789   3.473   2.770   0.967 -0.4522 -0.0478 -1.2819
    1BTD    C8026790   3.394   2.652   0.899 -0.0306 -0.4346  0.9396
    1BTD    C8126791   3.316   2.552   0.977 -1.9307 -0.0654 -0.6264
    1BTD    C8226792   3.247   2.454   0.882  0.6817 -1.0697  0.3778
    2TTP     S126793   4.066   2.844   0.215 -0.1283  0.7846  0.1918
    2TTP     S526794   3.655   2.952   0.150 -0.3576 -0.2043 -0.0298
    2TTP     C126795   3.754   3.014   0.010 -0.2889  0.7944  0.4432
    2TTP     C226796   3.887   2.984   0.022 -0.2140  1.1585  0.5396
    2TTP     C326797   3.915   2.912   0.142 -0.2083  0.6620  0.2432
    2TTP     C426798   3.967   2.783   0.355 -0.1968 -0.2140 -0.2812
    2TTP    C1726799   3.834   2.812   0.343 -0.2718 -0.5783 -0.3775
    2TTP    C1826800   3.806   2.885   0.223 -0.2776 -0.0818 -0.0812
    2TTP    C3226801   3.977   3.031  -0.084 -0.7663 -1.0499 -1.4297
    2TTP    C3326802   4.102   3.114  -0.030 -0.8417 -1.2634  0.2827
    2TTP    C3426803   4.120   3.245  -0.103  0.5648  0.5263 -0.5813
    2TTP    C3526804   4.178   3.259  -0.246  0.9057 -0.0046  0.9820
    2TTP    C3626805   4.299   3.149  -0.263  0.4930  0.9510 -0.4867
    2TTP    C3726806   4.415   3.207  -0.350 -0.2117 -0.7837 -0.1789
    2TTP    C3826807   4.388   3.261  -0.490  0.6235 -0.0047  0.6890
    2TTP    C3926808   4.324   3.170  -0.599  0.5129 -0.1151  0.8703
    2TTP    C4026809   4.434   3.078  -0.681  1.3008 -1.3727  0.2536
    2TTP    C4126810   4.456   3.138  -0.814  0.5104  1.4237  0.8392
    2TTP    C4226811   4.593   3.205  -0.795 -0.2339  0.9099  1.2604
    3TTP     S126812   4.051   2.747   1.056  0.4095  0.3643  0.1220
    3TTP     S526813   3.675   2.936   1.149  0.4184  0.3412  0.2045
    3TTP     C126814   3.775   2.928   1.301  0.6817  0.8632  0.0632
    3TTP     C226815   3.897   2.869   1.281  0.6946  0.9010  0.0294
    3TTP     C326816   3.916   2.828   1.145  0.4968  0.5192  0.1139
    3TTP     C426817   3.951   2.755   0.904  0.1462 -0.1577  0.2633
    3TTP    C1726818   3.829   2.814   0.924  0.1335 -0.1956  0.2971
    3TTP    C1826819   3.810   2.855   1.060  0.3312  0.1863  0.2126
    3TTP    C3226820   4.015   2.829   1.364 -1.8032 -0.5604  0.5207
    3TTP    C3326821   4.018   2.731   1.479  0.2731  1.4081  0.3940
    3TTP    C3426822   3.955   2.590   1.459  0.3981  0.3967  1.2284
    3TTP    C3526823   3.951   2.511   1.586  0.6716 -0.1324 -0.0349
    3TTP    C3626824   3.835   2.561   1.691 -0.4430 -0.1617  0.0451
    3TTP    C3726825   3.689   2.520   1.674 -0.5803  1.4754 -0.9634
    3TTP    C3826826   3.631   2.499   1.537 -0.0678 -0.5398  1.5503
    3TTP    C3926827   3.530   2.387   1.558 -0.5574 -0.8178 -0.5674
    3TTP    C4026828   3.427   2.349   1.448  0.3456 -0.2166 -0.2939
    3TTP    C4126829   3.288   2.303   1.507  0.5165 -0.5758  0.5337
    3TTP    C4226830   3.285   2.160   1.507  0.0660 -1.2793  1.0099
    4FIC     F126831   3.186   3.598  -0.005  0.8180  0.6073 -0.2332
    4FIC     F226832   3.211   3.607  -0.276  0.1461 -0.2783 -0.3321
    4FIC     O126833   3.555   3.222   0.121  0.7678  0.6462  0.0324
    4FIC     N526834   3.510   3.351  -0.576 -0.8556 -1.5239 -0.2856
    4FIC     N626835   3.794   3.055  -0.423 -0.7592 -1.3149 -0.0582
    4FIC    C1926836   3.710   3.097  -0.094  0.1082 -0.1861  0.0318
    4FIC    C2026837   3.616   3.191  -0.115  0.1469 -0.1613 -0.0310
    4FIC    C2126838   3.541   3.251   0.001  0.4945  0.2789 -0.0260
    4FIC    C2226839   3.447   3.349  -0.057  0.4454  0.1867 -0.1042
    4FIC    C2326840   3.356   3.430   0.011  0.6938  0.4908 -0.1283
    4FIC    C2426841   3.278   3.515  -0.065  0.5858  0.3249 -0.2052
    4FIC    C2526842   3.291   3.520  -0.205  0.2394 -0.1314 -0.2561
    4FIC    C2626843   3.382   3.439  -0.273 -0.0099 -0.4368 -0.2327
    4FIC    C2726844   3.462   3.352  -0.198  0.0946 -0.2750 -0.1550
    4FIC    C2826845   3.566   3.255  -0.239 -0.1024 -0.5071 -0.1118
    4FIC    C2926846   3.608   3.229  -0.367 -0.4497 -0.9565 -0.1416
    4FIC    C3026847   3.554   3.296  -0.481 -0.6717 -1.2669 -0.2210
    4FIC    C3126848   3.710   3.134  -0.397 -0.6180 -1.1510 -0.0956
    5FIC     F126849   3.041   2.908   1.672 -0.0939  0.1268  0.3618
    5FIC     F226850   3.161   2.965   1.909  0.0878 -0.3634  0.3915
    5FIC     O126851   3.469   2.900   1.340 -0.3040  0.4565  0.0814
    5FIC     N526852   3.638   3.043   2.014  0.1992 -0.8329  0.2343
    5FIC     N626853   3.949   3.025   1.707 -0.0015 -0.4765  0.0093
    5FIC    C1926854   3.735   2.952   1.449 -0.2051  0.1054  0.0102
    5FIC    C2026855   3.623   2.952   1.523 -0.1593  0.0416  0.0796
    5FIC    C2126856   3.490   2.924   1.460 -0.2152  0.2327  0.1124
    5FIC    C2226857   3.390   2.931   1.568 -0.1438  0.1016  0.1880
    5FIC    C2326858   3.252   2.913   1.558 -0.1613  0.2014  0.2398
    5FIC    C2426859   3.178   2.925   1.674 -0.0819  0.0405  0.3079
    5FIC    C2526860   3.240   2.955   1.797  0.0116 -0.2119  0.3230
    5FIC    C2626861   3.377   2.973   1.807  0.0295 -0.3127  0.2715
    5FIC    C2726862   3.454   2.961   1.691 -0.0499 -0.1528  0.2024
    5FIC    C2826863   3.600   2.975   1.668 -0.0556 -0.1997  0.1364
    5FIC    C2926864   3.695   3.004   1.763  0.0206 -0.4239  0.1293
    5FIC    C3026865   3.664   3.025   1.900  0.1185 -0.6481  0.1871
    5FIC    C3126866   3.834   3.015   1.731  0.0079 -0.4515  0.0633
    1BTD     S226867   1.282   3.110   4.084 -0.0765 -0.2053  0.0502
    1BTD     N126868   1.260   3.284   4.044  0.1565 -0.1736  0.0538
    1BTD     N226869   1.124   3.059   4.016 -0.2320  0.0369  0.2255
    1BTD     N326870   0.761   3.269   3.804 -0.1284  0.5876  0.5895
    1BTD     N426871   0.928   3.546   3.839  0.3503  0.3281  0.3780
    1BTD     C526872   1.085   3.418   3.937  0.2519  0.0915  0.2256
    1BTD     C626873   1.141   3.295   3.985  0.1088  0.0064  0.1791
    1BTD     C726874   1.065   3.169   3.969 -0.1087  0.1243  0.2752
    1BTD     C826875   0.936   3.172   3.906 -0.1722  0.3213  0.4131
    1BTD    C1526876   0.885   3.295   3.860 -0.0267  0.3983  0.4540
    1BTD    C1626877   0.958   3.416   3.875  0.1829  0.2848  0.3615
    1BTD    C4326878   0.834   3.604   3.742  0.7181 -0.3684  0.8059
    1BTD    C4426879   0.915   3.628   3.614  0.4745 -1.0099  1.2363
    1BTD    C4526880   0.885   3.787   3.587 -1.1609  0.3333 -0.3236
    1BTD    C4626881   0.768   3.812   3.513  1.7454  0.2632 -0.3240
    1BTD    C4726882   0.923   3.505   3.519 -0.0775 -0.4921  0.1456
    1BTD    C4826883   0.935   3.544   3.381  0.6236 -0.6339  0.7936
    1BTD    C4926884   0.799   3.558   3.303 -1.1342  0.3938 -0.3013
    1BTD    C5026885   0.819   3.534   3.158  1.3794 -0.2972  1.5890
    1BTD    C7526886   0.647   3.359   3.849 -0.1986  0.2921  0.0665
    1BTD    C7626887   0.509   3.363   3.784  0.5506  0.4074  1.1071
    1BTD    C7726888   0.521   3.386   3.633  0.7323  0.5307  0.8781
    1BTD    C7826889   0.402   3.413   3.558 -0.4360 -0.4529 -0.2484
    1BTD    C7926890   0.392   3.427   3.858 -0.1048 -0.4567  0.4308
    1BTD    C8026891   0.329   3.350   3.986 -1.0963 -0.7072 -0.9859
    1BTD    C8126892   0.193   3.369   4.034 -1.1735 -0.9243 -0.9569
    1BTD    C8226893   0.158   3.256   4.139  0.2836 -0.7698 -0.5359
    2TTP     S126894   1.221   3.660   4.056 -0.2342  0.1208 -0.4384
    2TTP     S526895   0.868   3.891   3.973 -0.7900 -0.2622  0.8106
    2TTP     C126896   0.981   3.992   4.075 -0.5990 -0.1888  0.5263
    2TTP     C226897   1.097   3.926   4.106 -0.4161 -0.0662  0.1239
    2TTP     C326898   1.100   3.794   4.051 -0.4203 -0.0259  0.0256
    2TTP     C426899   1.108   3.559   3.955 -0.4253  0.0473 -0.1540
    2TTP    C1726900   0.992   3.625   3.924 -0.6082 -0.0753  0.2484
    2TTP    C1826901   0.989   3.757   3.978 -0.6040 -0.1157  0.3468
    2TTP    C3226902   1.198   3.984   4.211 -0.0084  0.4132 -0.6206
    2TTP    C3326903   1.201   3.915   4.357  0.0723 -0.2139  0.2909
    2TTP    C3426904   1.075   3.833   4.397  1.4959 -0.9238 -0.0111
    2TTP    C3526905   1.077   3.686   4.390  0.2224  0.0773 -0.7597
    2TTP    C3626906   0.945   3.614   4.409 -0.9372  0.0222 -0.0523
    2TTP    C3726907   0.971   3.485   4.498  0.3283 -0.8877 -0.2098
    2TTP    C3826908   0.821   3.462   4.550 -0.6575 -0.5599  0.1784
    2TTP    C3926909   0.734   3.361   4.462 -0.5569  0.4206  0.1089
    2TTP    C4026910   0.791   3.315   4.322  0.2523  0.7564 -0.0321
    2TTP    C4126911   0.706   3.252   4.211  0.3792  0.7072  0.5673
    2TTP    C4226912   0.573   3.188   4.256 -0.2045 -0.0580 -0.1080
    3TTP     S126913   0.852   2.887   3.808  0.2833 -0.0900 -0.1188
    3TTP     S526914   0.518   3.065   3.603 -0.3214 -0.5115  0.4910
    3TTP     C126915   0.514   2.885   3.575  0.1481 -0.4627  0.0785
    3TTP     C226916   0.617   2.819   3.637  0.3625 -0.3296 -0.1342
    3TTP     C326917   0.702   2.909   3.708  0.1637 -0.2615  0.0212
    3TTP     C426918   0.856   3.066   3.836 -0.1862 -0.1389  0.2937
    3TTP    C1726919   0.753   3.132   3.774 -0.4006 -0.2719  0.5064
    3TTP    C1826920   0.667   3.043   3.703 -0.2018 -0.3400  0.3513
    3TTP    C3226921   0.646   2.679   3.647  0.5729  0.1889 -0.1197
    3TTP    C3326922   0.609   2.606   3.783  0.1707 -0.7437  0.9164
    3TTP    C3426923   0.487   2.637   3.846 -0.1474  0.6609 -0.3311
    3TTP    C3526924   0.456   2.766   3.927 -0.4300  0.9790 -0.9660
    3TTP    C3626925   0.323   2.791   4.009  0.9905 -0.1822 -0.0530
    3TTP    C3726926   0.234   2.861   3.911  1.5583 -1.1521 -1.2354
    3TTP    C3826927   0.078   2.833   3.938  0.0269 -0.3024 -0.5164
    3TTP    C3926928  -0.019   2.947   3.870 -0.8684  1.1993  0.3630
    3TTP    C4026929  -0.134   3.027   3.929 -0.2053 -0.0474 -0.1924
    3TTP    C4126930  -0.203   2.964   4.056  0.4781  0.7053  0.8274
    3TTP    C4226931  -0.339   2.884   4.021 -2.1515 -0.0468 -0.2075
    4FIC     F126932   0.338   4.493   4.187 -0.0417  0.2670 -0.7595
    4FIC     F226933   0.507   4.681   4.288 -0.2464  0.0237  0.0530
    4FIC     O126934   0.687   4.099   4.062  0.1658  0.3895 -0.5682
    4FIC     N526935   0.998   4.671   4.344 -0.3927 -0.2391  1.3578
    4FIC     N626936   1.237   4.325   4.226 -0.1893 -0.0944  1.3435
    4FIC    C1926937   0.972   4.138   4.114  0.0440  0.2004  0.2762
    4FIC    C2026938   0.878   4.230   4.142 -0.0002  0.1791  0.1963
    4FIC    C2126939   0.733   4.203   4.112  0.0677  0.2811 -0.2463
    4FIC    C2226940   0.658   4.322   4.154 -0.0052  0.2266 -0.2207
    4FIC    C2326941   0.521   4.344   4.146  0.0209  0.2855 -0.5504
    4FIC    C2426942   0.473   4.465   4.192 -0.0619  0.2149 -0.4489
    4FIC    C2526943   0.560   4.562   4.244 -0.1673  0.0893 -0.0301
    4FIC    C2626944   0.697   4.542   4.252 -0.1938  0.0303  0.3004
    4FIC    C2726945   0.748   4.419   4.206 -0.1111  0.1003  0.2040
    4FIC    C2826946   0.886   4.366   4.201 -0.1123  0.0660  0.4768
    4FIC    C2926947   1.000   4.431   4.242 -0.2004 -0.0488  0.9073
    4FIC    C3026948   0.999   4.563   4.298 -0.3058 -0.1531  1.1535
    4FIC    C3126949   1.130   4.372   4.233 -0.1938 -0.0732  1.1448
    5FIC     F126950  -0.119   3.101   3.088 -0.3040 -0.4026  0.0393
    5FIC     F226951  -0.194   2.839   3.080  0.3862 -0.5926 -0.4547
    5FIC     O126952   0.329   3.070   3.390 -0.4104  0.2612  0.2686
    5FIC     N526953   0.017   2.441   3.285  1.3030 -0.3927 -1.0017
    5FIC     N626954   0.383   2.470   3.522  1.0807  0.1643 -0.7229
    5FIC    C1926955   0.417   2.809   3.490  0.2113  0.3154 -0.1221
    5FIC    C2026956   0.307   2.827   3.414  0.2111  0.1558 -0.1603
    5FIC    C2126957   0.268   2.964   3.367 -0.1191  0.1385  0.0498
    5FIC    C2226958   0.145   2.948   3.288 -0.0275 -0.0514 -0.0555
    5FIC    C2326959   0.072   3.047   3.223 -0.2475 -0.1320  0.0679
    5FIC    C2426960  -0.042   3.008   3.154 -0.1013 -0.3143 -0.0710
    5FIC    C2526961  -0.080   2.873   3.150  0.2543 -0.4119 -0.3255
    5FIC    C2626962  -0.008   2.773   3.214  0.4754 -0.3325 -0.4500
    5FIC    C2726963   0.108   2.811   3.285  0.3322 -0.1480 -0.3123
    5FIC    C2826964   0.206   2.732   3.362  0.4930 -0.0244 -0.3869
    5FIC    C2926965   0.203   2.596   3.383  0.8373 -0.0688 -0.6210
    5FIC    C3026966   0.101   2.511   3.329  1.0921 -0.2468 -0.8295
    5FIC    C3126967   0.302   2.527   3.459  0.9692  0.0597 -0.6757
    1BTD     S226968   4.798   2.682   9.599  0.1445  0.1789  0.2703
    1BTD     N126969   4.826   2.720   9.773  0.5200  0.0773  0.2329
    1BTD     N226970   4.758   2.509   9.628 -0.5841  0.3517  0.3357
    1BTD     N326971   4.727   2.224   9.999 -1.3908  0.5201  0.4022
    1BTD     N426972   4.811   2.483  10.178 -0.0300  0.1820  0.2754
    1BTD     C526973   4.817   2.593   9.983  0.2164  0.1361  0.2565
    1BTD     C626974   4.805   2.607   9.840  0.1047  0.1725  0.2694
    1BTD     C726975   4.767   2.489   9.759 -0.5134  0.3260  0.3269
    1BTD     C826976   4.743   2.363   9.824 -0.9888  0.4355  0.3688
    1BTD    C1526977   4.756   2.354   9.964 -0.8584  0.3948  0.3545
    1BTD    C1626978   4.792   2.468  10.042 -0.2627  0.2470  0.2990
    1BTD    C4326979   4.795   2.374  10.277  1.0882 -0.3208  0.6117
    1BTD    C4426980   4.724   2.396  10.418 -0.6197  1.3099  0.9017
    1BTD    C4526981   4.571   2.380  10.422  0.0123 -0.6577  0.2590
    1BTD    C4626982   4.465   2.463  10.341  0.1115  0.5258 -0.3770
    1BTD    C4726983   4.820   2.347  10.518 -1.1380  0.3730 -0.6944
    1BTD    C4826984   4.797   2.204  10.588 -0.3999  0.5325  0.6825
    1BTD    C4926985   4.905   2.102  10.526 -0.2384  0.7483 -0.8221
    1BTD    C5026986   5.031   2.027  10.595 -1.1683 -0.7578 -0.5724
    1BTD    C7526987   4.638   2.161  10.104 -0.1344 -0.1858 -0.0778
    1BTD    C7626988   4.681   2.033  10.189 -0.7832 -0.0860 -0.3560
    1BTD    C7726989   4.840   2.016  10.188  0.7848  0.5626  1.3521
    1BTD    C7826990   4.878   1.864  10.160 -0.2027 -0.0775 -0.5306
    1BTD    C7926991   4.624   1.982  10.324  0.7432  0.5494  0.6781
    1BTD    C8026992   4.464   1.996  10.329 -0.1284  0.3199 -0.3503
    1BTD    C8126993   4.406   2.060  10.448 -0.1327 -0.3060  0.1674
    1BTD    C8226994   4.458   2.029  10.580 -0.5515 -1.1030 -0.0416
    2TTP     S126995   4.960   2.827  10.073 -0.7201  0.5154 -0.6036
    2TTP     S526996   5.041   2.629  10.445 -0.1502  0.8233 -0.5615
    2TTP     C126997   5.156   2.769  10.428 -0.0278  0.6787 -0.9545
    2TTP     C226998   5.137   2.839  10.312 -0.1966  0.5751 -0.9904
    2TTP     C326999   5.032   2.784  10.233 -0.4287  0.6062 -0.7091
    2TTP     C427000   4.846   2.687  10.090 -0.8426  0.6599 -0.2108
    2TTP    C1727001   4.864   2.617  10.206 -0.6737  0.7636 -0.1749
    2TTP    C1827002   4.969   2.672  10.285 -0.4417  0.7325 -0.4561
    2TTP    C3227003   5.209   2.952  10.261 -0.2370 -0.4374  0.5935
    2TTP    C3327004   5.346   2.902  10.219 -0.5889 -0.3239  0.7313
    2TTP    C3427005   5.459   3.008  10.201 -0.7609 -0.1129  1.7802
    2TTP    C3527006   5.565   3.017  10.318  1.4480 -1.3624  0.6472
    2TTP    C3627007   5.634   2.884  10.339  0.5425 -0.4095 -0.7561
    2TTP    C3727008   5.734   2.879  10.458  0.8562  0.6669 -0.1518
    2TTP    C3827009   5.850   2.984  10.491  0.3236 -0.2202 -1.2112
    2TTP    C3927010   5.929   2.960  10.618 -1.0284  0.4712 -0.0931
    2TTP    C4027011   5.985   3.100  10.671  0.4764 -0.7631  0.2145
    2TTP    C4127012   6.104   3.171  10.629 -1.1842 -0.1565 -0.1705
    2TTP    C4227013   6.239   3.090  10.688  0.1810 -0.6460  1.8383
    3TTP     S127014   4.678   2.154   9.620  0.3880  0.2666  0.2372
    3TTP     S527015   4.635   1.855   9.926 -1.0167 -0.2215 -0.4225
    3TTP     C127016   4.602   1.777   9.764 -0.9345  0.1865 -0.6368
    3TTP     C227017   4.613   1.865   9.660 -0.4958  0.3613 -0.4456
    3TTP     C327018   4.648   1.997   9.705 -0.2089  0.1793 -0.1230
    3TTP     C427019   4.711   2.231   9.781  0.3059 -0.1413  0.4518
    3TTP    C1727020   4.700   2.143   9.885 -0.1328 -0.3162  0.2608
    3TTP    C1827021   4.664   2.012   9.841 -0.4199 -0.1341 -0.0620
    3TTP    C3227022   4.629   1.836   9.514 -0.4010  0.7009 -0.4456
    3TTP    C3327023   4.507   1.766   9.446  0.2923  0.0734 -0.2308
    3TTP    C3427024   4.552   1.746   9.301 -0.1708  1.0692  0.2547
    3TTP    C3527025   4.440   1.788   9.198 -0.1962 -0.8829 -0.1842
    3TTP    C3627026   4.386   1.670   9.100  0.8476  0.5613  0.8109
    3TTP    C3727027   4.326   1.540   9.171 -0.5303 -1.0642  0.1247
    3TTP    C3827028   4.174   1.561   9.195 -1.1204  0.5315  0.0591
    3TTP    C3927029   4.088   1.425   9.192 -0.6427 -0.4200  0.5413
    3TTP    C4027030   4.111   1.314   9.091  0.3049  0.6903  0.0981
    3TTP    C4127031   4.133   1.351   8.945 -1.1648  0.0849  0.3853
    3TTP    C4227032   4.038   1.439   8.870 -0.1006  1.0386  0.4895
    4FIC     F127033   5.606   2.408  11.002  0.3445 -0.1185 -0.1373
    4FIC     F227034   5.643   2.651  11.118  0.1765 -0.2096  0.1104
    4FIC     O127035   5.307   2.544  10.572  0.4040  0.1369 -0.0980
    4FIC     N527036   5.484   3.098  10.977 -0.0226 -0.1584  0.4938
    4FIC     N627037   5.243   3.155  10.617  0.0579  0.0596  0.4747
    4FIC    C1927038   5.237   2.824  10.529  0.2648  0.1407  0.1526
    4FIC    C2027039   5.310   2.781  10.633  0.2563  0.0799  0.1328
    4FIC    C2127040   5.342   2.635  10.648  0.3309  0.0824  0.0014
    4FIC    C2227041   5.423   2.622  10.771  0.2999  0.0076  0.0138
    4FIC    C2327042   5.477   2.506  10.826  0.3459 -0.0171 -0.0820
    4FIC    C2427043   5.550   2.519  10.943  0.3028 -0.0905 -0.0470
    4FIC    C2527044   5.569   2.644  11.002  0.2162 -0.1373  0.0806
    4FIC    C2627045   5.516   2.761  10.948  0.1700 -0.1130  0.1769
    4FIC    C2727046   5.442   2.750  10.829  0.2124 -0.0389  0.1433
    4FIC    C2827047   5.373   2.852  10.747  0.1822  0.0037  0.2210
    4FIC    C2927048   5.368   2.987  10.772  0.1012 -0.0225  0.3510
    4FIC    C3027049   5.432   3.048  10.885  0.0335 -0.0970  0.4292
    4FIC    C3127050   5.300   3.079  10.687  0.0778  0.0229  0.4182
    5FIC     F127051   4.460   1.169  10.306 -0.3419  0.1793 -0.0126
    5FIC     F227052   4.587   1.000  10.135 -0.0875  0.2319  0.1237
    5FIC     O127053   4.457   1.626  10.015 -0.2446  0.1705 -0.0274
    5FIC     N527054   4.768   1.082   9.682  0.3476  0.3013  0.3095
    5FIC     N627055   4.740   1.473   9.489  0.3722  0.2839  0.2706
    5FIC    C1927056   4.577   1.627   9.748  0.0328  0.2177  0.0977
    5FIC    C2027057   4.573   1.518   9.828 -0.0017  0.2179  0.0961
    5FIC    C2127058   4.509   1.526   9.964 -0.1465  0.1928  0.0296
    5FIC    C2227059   4.522   1.392  10.024 -0.1482  0.1999  0.0460
    5FIC    C2327060   4.478   1.350  10.149 -0.2596  0.1833  0.0012
    5FIC    C2427061   4.501   1.218  10.184 -0.2362  0.1946  0.0288
    5FIC    C2527062   4.566   1.131  10.095 -0.1049  0.2217  0.0992
    5FIC    C2627063   4.611   1.172   9.970  0.0067  0.2384  0.1445
    5FIC    C2727064   4.588   1.305   9.933 -0.0151  0.2273  0.1175
    5FIC    C2827065   4.622   1.380   9.810  0.0802  0.2394  0.1509
    5FIC    C2927066   4.687   1.329   9.699  0.2179  0.2656  0.2193
    5FIC    C3027067   4.731   1.194   9.690  0.2887  0.2851  0.2689
    5FIC    C3127068   4.716   1.409   9.584  0.3020  0.2756  0.2470
    1BTD     S227069   7.028   1.292   7.500 -0.1461  0.0724  0.2939
    1BTD     N127070   6.964   1.459   7.478 -0.2120 -0.0334 -0.3808
    1BTD     N227071   7.201   1.342   7.495 -0.1684  0.1965  0.7449
    1BTD     N327072   7.436   1.746   7.448 -0.3331  0.2581  0.4457
    1BTD     N427073   7.144   1.889   7.427 -0.3870 -0.0251 -0.9414
    1BTD     C527074   7.062   1.682   7.452 -0.3027 -0.0257 -0.6568
    1BTD     C627075   7.069   1.539   7.470 -0.2456  0.0261 -0.2424
    1BTD     C727076   7.202   1.474   7.479 -0.2213  0.1547  0.3879
    1BTD     C827077   7.320   1.555   7.470 -0.2551  0.2252  0.5721
    1BTD    C1527078   7.308   1.694   7.453 -0.3108  0.1708  0.1507
    1BTD    C1627079   7.181   1.757   7.444 -0.3343  0.0468 -0.4563
    1BTD    C4327080   7.223   1.995   7.496 -0.2675 -0.0848 -0.6184
    1BTD    C4427081   7.218   2.148   7.470 -0.7565 -0.1827 -0.3739
    1BTD    C4527082   7.243   2.187   7.321 -0.9280  0.3418 -0.8062
    1BTD    C4627083   7.240   2.345   7.286 -0.4265 -0.4632 -0.3533
    1BTD    C4727084   7.264   2.250   7.571  0.1596  0.0754  0.8239
    1BTD    C4827085   7.166   2.242   7.680 -0.3970 -1.2567 -1.2994
    1BTD    C4927086   7.197   2.162   7.794  0.7001 -0.2447 -0.6311
    1BTD    C5027087   7.321   2.193   7.871  0.1458 -0.6817  0.3114
    1BTD    C7527088   7.478   1.862   7.367  0.2647  0.6914 -0.7717
    1BTD    C7627089   7.609   1.923   7.336 -0.0110 -0.7686  1.0296
    1BTD    C7727090   7.654   2.025   7.444 -0.3277 -1.0476  0.1463
    1BTD    C7827091   7.683   2.165   7.399 -0.0899 -0.4443  0.7490
    1BTD    C7927092   7.720   1.864   7.237  0.6159 -0.0692 -0.9807
    1BTD    C8027093   7.836   1.773   7.292 -0.8130  0.6329  0.4157
    1BTD    C8127094   7.928   1.737   7.175 -0.1306 -0.9056 -0.8700
    1BTD    C8227095   8.078   1.795   7.216 -0.7889  1.3702  0.0506
    2TTP     S127096   6.771   1.768   7.468  0.1214 -0.0159  0.2657
    2TTP     S527097   6.893   2.180   7.450  0.4283 -0.1507 -0.8941
    2TTP     C127098   6.712   2.173   7.466  0.4540  0.0311 -0.4986
    2TTP     C227099   6.663   2.046   7.472  0.3605  0.0835 -0.1172
    2TTP     C327100   6.768   1.948   7.465  0.2656 -0.0181 -0.1235
    2TTP     C427101   6.952   1.774   7.453  0.0960 -0.1977 -0.1297
    2TTP    C1727102   7.000   1.901   7.446  0.1893 -0.2500 -0.5113
    2TTP    C1827103   6.896   1.999   7.453  0.2842 -0.1484 -0.5047
    2TTP    C3227104   6.539   1.989   7.521  1.2564 -0.3132  0.5356
    2TTP    C3327105   6.429   1.974   7.404  0.7494  0.3599 -0.6054
    2TTP    C3427106   6.447   2.001   7.244  0.1220  0.3966 -1.6024
    2TTP    C3527107   6.469   2.135   7.192 -1.3177 -1.5026 -0.7273
    2TTP    C3627108   6.355   2.230   7.151  0.0027 -0.0649 -1.7262
    2TTP    C3727109   6.425   2.358   7.093 -0.9863  1.1308 -0.5526
    2TTP    C3827110   6.578   2.385   7.108  0.3846 -1.0223 -0.2614
    2TTP    C3927111   6.633   2.499   7.012  1.4550  2.2858 -0.3611
    2TTP    C4027112   6.764   2.522   6.950 -0.7421  0.0931 -0.0215
    2TTP    C4127113   6.884   2.470   7.010 -1.1740  0.6301  0.2799
    2TTP    C4227114   7.016   2.474   6.910 -1.1698  0.2586 -0.5500
    3TTP     S127115   7.504   1.413   7.633 -0.2734  0.4988  0.1869
    3TTP     S527116   7.705   1.790   7.685  0.9398 -0.0824 -0.2164
    3TTP     C127117   7.754   1.679   7.821  0.4218 -0.0261  0.0170
    3TTP     C227118   7.694   1.556   7.813  0.0167  0.1567  0.1554
    3TTP     C327119   7.609   1.545   7.699  0.1006  0.2589  0.0819
    3TTP     C427120   7.456   1.524   7.497  0.2447  0.4425 -0.0466
    3TTP    C1727121   7.516   1.647   7.505  0.6500  0.2597 -0.1850
    3TTP    C1827122   7.601   1.658   7.619  0.5658  0.1575 -0.1116
    3TTP    C3227123   7.692   1.431   7.911  0.6956  0.4751  0.4349
    3TTP    C3327124   7.585   1.418   8.017 -0.6379 -1.0202 -0.7189
    3TTP    C3427125   7.569   1.294   8.093 -1.7373  0.3953  1.7336
    3TTP    C3527126   7.463   1.315   8.199 -0.0375  0.0147  0.2858
    3TTP    C3627127   7.391   1.181   8.227 -1.8837 -0.4510 -0.7240
    3TTP    C3727128   7.293   1.123   8.126  0.1885 -0.1507  1.0962
    3TTP    C3827129   7.223   1.000   8.164  0.9946 -0.8909  0.1143
    3TTP    C3927130   7.153   0.923   8.049 -0.2772 -0.7465  0.4371
    3TTP    C4027131   7.245   0.882   7.932  0.4426 -0.3029  1.1819
    3TTP    C4127132   7.207   0.929   7.773 -0.0159 -0.0805 -0.5572
    3TTP    C4227133   7.325   0.956   7.697 -0.0121  0.0447  0.7677
    4FIC     F127134   6.730   2.982   7.302 -0.5038 -0.0817  0.0091
    4FIC     F227135   6.478   3.002   7.404 -0.3760 -0.3309  0.3749
    4FIC     O127136   6.824   2.453   7.367  0.1297  0.0173 -0.0951
    4FIC     N527137   6.185   2.655   7.599  0.2592 -0.6190  0.8266
    4FIC     N627138   6.309   2.237   7.629  0.7284 -0.4914  0.6713
    4FIC    C1927139   6.618   2.284   7.488  0.4768 -0.1859  0.2173
    4FIC    C2027140   6.604   2.417   7.468  0.3123 -0.2009  0.2294
    4FIC    C2127141   6.714   2.497   7.405  0.1400 -0.0920  0.0625
    4FIC    C2227142   6.667   2.636   7.397 -0.0128 -0.1408  0.1235
    4FIC    C2327143   6.734   2.746   7.347 -0.1988 -0.0747  0.0175
    4FIC    C2427144   6.668   2.868   7.350 -0.3180 -0.1412  0.1057
    4FIC    C2527145   6.539   2.879   7.403 -0.2517 -0.2696  0.2942
    4FIC    C2627146   6.471   2.769   7.454 -0.0664 -0.3361  0.4008
    4FIC    C2727147   6.536   2.644   7.451  0.0565 -0.2704  0.3139
    4FIC    C2827148   6.492   2.510   7.497  0.2588 -0.3126  0.3865
    4FIC    C2927149   6.371   2.479   7.554  0.3743 -0.4321  0.5651
    4FIC    C3027150   6.269   2.575   7.578  0.3107 -0.5344  0.7082
    4FIC    C3127151   6.338   2.346   7.595  0.5683 -0.4640  0.6225
    5FIC     F127152   7.885   2.361   8.244  0.3628  0.0440  0.2306
    5FIC     F227153   8.093   2.238   8.368  0.6218  0.0027 -0.2384
    5FIC     O127154   7.705   1.961   7.927 -0.1785  0.2030  0.3359
    5FIC     N527155   8.264   1.776   8.322  0.6084  0.0565 -0.8383
    5FIC     N627156   8.081   1.488   8.050  0.1338  0.1891 -0.6616
    5FIC    C1927157   7.840   1.701   7.934 -0.1229  0.2200 -0.0751
    5FIC    C2027158   7.877   1.807   8.009  0.0030  0.1815 -0.0834
    5FIC    C2127159   7.803   1.937   8.000 -0.0355  0.1753  0.1357
    5FIC    C2227160   7.869   2.030   8.093  0.1290  0.1302  0.0648
    5FIC    C2327161   7.835   2.162   8.120  0.1578  0.1094  0.2072
    5FIC    C2427162   7.913   2.230   8.213  0.3250  0.0666  0.1005
    5FIC    C2527163   8.020   2.166   8.277  0.4584  0.0452 -0.1414
    5FIC    C2627164   8.054   2.034   8.251  0.4303  0.0658 -0.2844
    5FIC    C2727165   7.977   1.964   8.157  0.2620  0.1093 -0.1795
    5FIC    C2827166   7.986   1.824   8.108  0.1899  0.1400 -0.2801
    5FIC    C2927167   8.078   1.730   8.146  0.2792  0.1315 -0.5114
    5FIC    C3027168   8.180   1.756   8.243  0.4601  0.0903 -0.6902
    5FIC    C3127169   8.079   1.597   8.093  0.1986  0.1632 -0.5925
    1BTD     S227170   4.310   4.593   8.178 -0.2016 -0.0932 -0.6080
    1BTD     N127171   4.416   4.717   8.254 -0.0786 -0.3940 -0.2789
    1BTD     N227172   4.361   4.631   8.010 -0.2174  0.3477 -0.5171
    1BTD     N327173   4.656   4.932   7.803 -0.0273  0.7035  0.2627
    1BTD     N427174   4.724   5.038   8.103  0.1440 -0.2105  0.5560
    1BTD     C527175   4.576   4.884   8.171  0.0354 -0.2873  0.1533
    1BTD     C627176   4.480   4.777   8.155 -0.0567 -0.1621 -0.1264
    1BTD     C727177   4.450   4.729   8.018 -0.1345  0.2532 -0.2596
    1BTD     C827178   4.516   4.789   7.905 -0.1161  0.5226 -0.1066
    1BTD    C1527179   4.608   4.893   7.927 -0.0248  0.3871  0.1668
    1BTD    C1627180   4.638   4.940   8.058  0.0501 -0.0132  0.2952
    1BTD    C4327181   4.806   5.144   8.025 -0.8608 -1.1294  0.0992
    1BTD    C4427182   4.953   5.137   7.985 -1.0921 -0.8723 -0.4213
    1BTD    C4527183   5.034   5.058   8.078 -1.1876 -0.6077 -0.5541
    1BTD    C4627184   5.162   5.001   8.020 -0.1346  0.1236  0.3804
    1BTD    C4727185   5.036   5.272   7.947  0.4381  0.7382 -0.4371
    1BTD    C4827186   4.982   5.420   7.978 -0.9745 -0.5165  0.3806
    1BTD    C4927187   4.921   5.463   8.113  0.4761 -0.7801  0.6558
    1BTD    C5027188   4.968   5.604   8.150  0.7913 -0.5717 -0.3933
    1BTD    C7527189   4.667   5.076   7.754 -0.0323 -0.2932  0.0368
    1BTD    C7627190   4.714   5.118   7.617  0.3606 -0.3964 -0.5422
    1BTD    C7727191   4.837   5.189   7.606 -0.5325  1.3349 -2.2263
    1BTD    C7827192   4.904   5.198   7.480 -0.3937  0.5875  1.5343
    1BTD    C7927193   4.598   5.190   7.532  0.5272  0.9100 -0.8118
    1BTD    C8027194   4.551   5.315   7.612  0.4845 -0.0697 -2.0276
    1BTD    C8127195   4.406   5.353   7.593  1.0521 -0.0654  0.9733
    1BTD    C8227196   4.356   5.473   7.680 -1.0589 -0.0676 -0.1085
    2TTP     S127197   4.610   4.948   8.466  0.3266  0.2273  0.7022
    2TTP     S527198   4.851   5.289   8.360  0.6464 -0.4233 -0.7081
    2TTP     C127199   4.817   5.295   8.538  1.0157  0.1140 -0.6524
    2TTP     C227200   4.740   5.190   8.582  0.9389  0.3465 -0.2134
    2TTP     C327201   4.706   5.101   8.475  0.5854  0.1090  0.0942
    2TTP     C427202   4.644   4.942   8.287 -0.0427 -0.3099  0.6464
    2TTP    C1727203   4.721   5.046   8.244  0.0344 -0.5424  0.2075
    2TTP    C1827204   4.755   5.136   8.350  0.3879 -0.3046 -0.1006
    2TTP    C3227205   4.666   5.170   8.725 -1.0126  1.0518  0.4489
    2TTP    C3327206   4.774   5.112   8.811  0.5196 -0.1818 -0.9009
    2TTP    C3427207   4.753   5.140   8.967  1.5214  0.3688 -1.0243
    2TTP    C3527208   4.869   5.064   9.029  1.2815 -0.2307  0.6209
    2TTP    C3627209   4.958   5.152   9.121  0.3575  0.0890 -0.5304
    2TTP    C3727210   5.062   5.072   9.179  0.4770 -0.4779 -0.8536
    2TTP    C3827211   5.096   5.157   9.290  0.8490  0.1586 -0.4112
    2TTP    C3927212   5.211   5.106   9.361 -0.1745 -1.0840 -1.0707
    2TTP    C4027213   5.345   5.089   9.316 -0.7732 -0.5690 -0.9001
    2TTP    C4127214   5.432   5.212   9.334  0.8917 -0.8970  0.4134
    2TTP    C4227215   5.562   5.211   9.418 -0.4973  1.0223  0.5616
    3TTP     S127216   4.451   4.635   7.643  0.2311 -0.3693  0.2034
    3TTP     S527217   4.767   4.847   7.444 -0.4548 -0.1709 -0.6884
    3TTP     C127218   4.706   4.717   7.332  0.0600 -0.9445 -0.0937
    3TTP     C227219   4.605   4.644   7.387  0.3022 -1.0514  0.2168
    3TTP     C327220   4.572   4.688   7.519  0.0899 -0.5260 -0.0038
    3TTP     C427221   4.513   4.764   7.754 -0.2841  0.4042 -0.3915
    3TTP    C1727222   4.614   4.838   7.699 -0.5263  0.5112 -0.7018
    3TTP    C1827223   4.647   4.794   7.567 -0.3138 -0.0142 -0.4811
    3TTP    C3227224   4.541   4.522   7.331 -1.0253 -1.0660 -0.3565
    3TTP    C3327225   4.623   4.388   7.358  0.2908  0.0249  0.0855
    3TTP    C3427226   4.517   4.286   7.397  0.1254  0.1879  0.0800
    3TTP    C3527227   4.517   4.296   7.555 -0.5059 -0.0198  0.2270
    3TTP    C3627228   4.601   4.204   7.646  0.1082  0.2211 -0.3344
    3TTP    C3727229   4.743   4.256   7.701  0.6700  0.5222  2.0425
    3TTP    C3827230   4.708   4.353   7.811  0.1275  0.7566 -1.5149
    3TTP    C3927231   4.828   4.428   7.880  0.7867 -1.1343  1.3796
    3TTP    C4027232   4.778   4.488   8.009 -0.4743 -1.5821 -1.4157
    3TTP    C4127233   4.910   4.523   8.070 -1.6656 -0.8224  0.0952
    3TTP    C4227234   4.975   4.393   8.130 -0.1144 -0.4601 -1.1745
    4FIC     F127235   5.566   5.600   8.590 -0.4258 -0.0916 -0.2356
    4FIC     F227236   5.482   5.759   8.795 -0.3314 -0.1029 -0.1876
    4FIC     O127237   5.112   5.323   8.484 -0.5769  0.1745 -0.2854
    4FIC     N527238   5.039   5.791   9.013 -0.3030  0.0703 -0.1547
    4FIC     N627239   4.702   5.542   8.889 -0.4401  0.2805 -0.2036
    4FIC    C1927240   4.872   5.377   8.642 -0.5401  0.2581 -0.2576
    4FIC    C2027241   4.989   5.440   8.661 -0.5058  0.1917 -0.2470
    4FIC    C2127242   5.108   5.407   8.576 -0.5277  0.1519 -0.2623
    4FIC    C2227243   5.218   5.494   8.622 -0.4798  0.0820 -0.2449
    4FIC    C2327244   5.348   5.499   8.573 -0.4796  0.0267 -0.2508
    4FIC    C2427245   5.435   5.589   8.633 -0.4290 -0.0348 -0.2311
    4FIC    C2527246   5.392   5.671   8.739 -0.3804 -0.0406 -0.2066
    4FIC    C2627247   5.262   5.666   8.788 -0.3803  0.0143 -0.2005
    4FIC    C2727248   5.173   5.576   8.728 -0.4312  0.0770 -0.2203
    4FIC    C2827249   5.030   5.546   8.756 -0.4451  0.1444 -0.2203
    4FIC    C2927250   4.952   5.606   8.852 -0.4089  0.1595 -0.2000
    4FIC    C3027251   5.000   5.707   8.940 -0.3508  0.1104 -0.1752
    4FIC    C3127252   4.815   5.571   8.872 -0.4263  0.2258 -0.2019
    5FIC     F127253   5.337   5.013   6.886 -0.6106 -0.1543 -0.4601
    5FIC     F227254   5.269   4.840   6.688 -0.5770 -0.3492 -0.3028
    5FIC     O127255   4.957   4.900   7.255 -0.3046 -0.2269 -0.1659
    5FIC     N527256   4.900   4.511   6.665 -0.3104 -0.6813  0.1327
    5FIC     N627257   4.616   4.458   6.993 -0.0781 -0.6987  0.3309
    5FIC    C1927258   4.757   4.695   7.196 -0.1637 -0.4389  0.0888
    5FIC    C2027259   4.855   4.730   7.111 -0.2420 -0.4129  0.0085
    5FIC    C2127260   4.954   4.836   7.149 -0.3113 -0.3022 -0.1210
    5FIC    C2227261   5.047   4.850   7.034 -0.3874 -0.3015 -0.1827
    5FIC    C2327262   5.155   4.936   7.023 -0.4675 -0.2165 -0.3036
    5FIC    C2427263   5.228   4.930   6.905 -0.5301 -0.2349 -0.3417
    5FIC    C2527264   5.193   4.841   6.802 -0.5123 -0.3352 -0.2605
    5FIC    C2627265   5.085   4.755   6.814 -0.4327 -0.4206 -0.1396
    5FIC    C2727266   5.010   4.759   6.932 -0.3687 -0.4034 -0.0995
    5FIC    C2827267   4.890   4.682   6.975 -0.2786 -0.4759  0.0213
    5FIC    C2927268   4.825   4.585   6.903 -0.2370 -0.5814  0.1248
    5FIC    C3027269   4.866   4.545   6.772 -0.2775 -0.6360  0.1290
    5FIC    C3127270   4.711   4.516   6.953 -0.1498 -0.6454  0.2375
    1BTD     S227271   5.505   3.439   3.988 -0.0517  0.2658  0.4922
    1BTD     N127272   5.370   3.330   3.941 -0.6571  0.8286  0.9027
    1BTD     N227273   5.543   3.351   4.140  0.7243 -0.4881 -0.1132
    1BTD     N327274   5.374   2.975   4.366  1.2131 -1.0084 -0.6058
    1BTD     N427275   5.161   2.950   4.121 -0.4891  0.6142  0.6458
    1BTD     C527276   5.263   3.132   4.038 -0.5488  0.6970  0.7534
    1BTD     C627277   5.360   3.239   4.037 -0.2694  0.4454  0.5839
    1BTD     C727278   5.457   3.250   4.148  0.5037 -0.2917  0.0151
    1BTD     C827279   5.452   3.154   4.255  0.9589 -0.7401 -0.3554
    1BTD    C1527280   5.356   3.052   4.253  0.6619 -0.4710 -0.1711
    1BTD    C1627281   5.263   3.041   4.145 -0.0830  0.2391  0.3767
    1BTD    C4327282   5.154   2.811   4.181 -0.1543 -1.8349  1.2634
    1BTD    C4427283   5.185   2.705   4.067 -0.8746  0.0988 -0.8470
    1BTD    C4527284   5.304   2.718   3.985 -0.2816  0.0405 -0.2478
    1BTD    C4627285   5.304   2.652   3.840  0.0435  0.7724  1.5901
    1BTD    C4727286   5.179   2.561   4.144 -0.1162 -0.5993 -0.0760
    1BTD    C4827287   5.043   2.496   4.176  2.4243  0.2569  0.2416
    1BTD    C4927288   5.032   2.380   4.262 -0.6127  0.9455  0.0864
    1BTD    C5027289   4.987   2.248   4.204 -0.1775 -0.1516  0.3386
    1BTD    C7527290   5.273   2.934   4.464  0.7709 -0.5790 -0.2733
    1BTD    C7627291   5.215   3.017   4.572 -0.2060  0.0424  0.1416
    1BTD    C7727292   5.131   3.130   4.509  0.5912 -1.5698  0.4442
    1BTD    C7827293   5.107   3.253   4.589  1.5129 -0.6281  0.3097
    1BTD    C7927294   5.209   2.998   4.726 -1.6744  1.0156 -0.0942
    1BTD    C8027295   5.328   2.908   4.757  0.1835 -0.4005 -0.9511
    1BTD    C8127296   5.419   2.997   4.852 -0.7897 -1.4973 -0.6023
    1BTD    C8227297   5.518   2.942   4.952 -0.8317  0.0280  0.3653
    2TTP     S127298   5.075   3.179   3.807 -0.0165  0.1256  0.3700
    2TTP     S527299   4.827   2.871   3.976  0.1177 -0.1681  0.0324
    2TTP     C127300   4.735   2.952   3.842  0.1510 -0.1841 -0.0005
    2TTP     C227301   4.806   3.052   3.782  0.1116 -0.0943  0.1020
    2TTP     C327302   4.936   3.068   3.840  0.0535 -0.0097  0.2100
    2TTP     C427303   5.167   3.097   3.941 -0.0497  0.1416  0.4029
    2TTP    C1727304   5.096   2.997   4.001 -0.0103  0.0518  0.3005
    2TTP    C1827305   4.966   2.982   3.944  0.0476 -0.0328  0.1925
    2TTP    C3227306   4.756   3.141   3.655 -0.3318  1.0909  0.3948
    2TTP    C3327307   4.673   3.258   3.696 -0.9028 -1.0128  0.7046
    2TTP    C3427308   4.752   3.368   3.771  1.3051  0.4548  0.0631
    2TTP    C3527309   4.673   3.482   3.809 -0.3338  0.1643 -1.3126
    2TTP    C3627310   4.751   3.614   3.814 -0.6889 -0.3062 -0.0723
    2TTP    C3727311   4.844   3.617   3.938  0.0974 -0.8449 -0.6243
    2TTP    C3827312   4.800   3.700   4.064  0.4590 -0.7174  0.4196
    2TTP    C3927313   4.901   3.797   4.111  1.7639  0.8844 -1.1100
    2TTP    C4027314   4.889   3.949   4.108 -0.1746  0.9497  0.2046
    2TTP    C4127315   4.811   3.983   4.239 -0.4160 -0.4131 -0.4970
    2TTP    C4227316   4.660   4.001   4.211 -0.9165 -1.5574 -0.0150
    3TTP     S127317   5.703   3.153   4.436  0.1856 -0.0078 -0.5364
    3TTP     S527318   5.576   2.773   4.592  0.3189 -0.1243 -0.7099
    3TTP     C127319   5.741   2.812   4.659  0.3499 -0.1457 -0.7737
    3TTP     C227320   5.790   2.931   4.615  0.3105 -0.1109 -0.7237
    3TTP     C327321   5.699   2.997   4.526  0.2544 -0.0663 -0.6334
    3TTP     C427322   5.538   3.115   4.369  0.1546  0.0136 -0.4725
    3TTP    C1727323   5.489   2.996   4.413  0.1940 -0.0212 -0.5226
    3TTP    C1827324   5.580   2.930   4.502  0.2501 -0.0659 -0.6129
    3TTP    C3227325   5.920   2.991   4.679 -0.6401 -0.0062 -0.3638
    3TTP    C3327326   5.962   3.139   4.677  0.2103 -0.2519  1.2567
    3TTP    C3427327   5.890   3.250   4.754  0.3472 -0.8729  0.6978
    3TTP    C3527328   5.823   3.245   4.894 -0.6582 -0.0399 -0.3660
    3TTP    C3627329   5.909   3.150   4.994 -0.5595  0.6085  0.1087
    3TTP    C3727330   5.851   3.133   5.124  2.3310  0.4146  0.1091
    3TTP    C3827331   5.881   3.246   5.220 -0.0892 -0.3023 -0.7247
    3TTP    C3927332   5.806   3.367   5.247  0.7821 -0.4830 -0.1072
    3TTP    C4027333   5.839   3.421   5.384  1.1936 -0.4250 -0.4619
    3TTP    C4127334   5.932   3.364   5.493  0.1404 -0.7234 -0.6182
    3TTP    C4227335   6.086   3.315   5.472  0.7038  0.7385  1.0381
    4FIC     F127336   4.250   2.299   3.878  0.0838  0.0606  0.3067
    4FIC     F227337   4.036   2.463   3.840  0.1101 -0.1760 -0.9736
    4FIC     O127338   4.658   2.654   3.846 -0.0132  0.2044  0.6607
    4FIC     N527339   4.019   2.952   3.764  0.0788 -0.4138 -2.5623
    4FIC     N627340   4.381   3.196   3.747 -0.0025 -0.2538 -2.0277
    4FIC    C1927341   4.598   2.937   3.799 -0.0226  0.0293 -0.4370
    4FIC    C2027342   4.504   2.841   3.809  0.0008  0.0024 -0.4760
    4FIC    C2127343   4.542   2.698   3.833  0.0042  0.0973  0.1097
    4FIC    C2227344   4.417   2.621   3.838  0.0316  0.0381 -0.1008
    4FIC    C2327345   4.401   2.484   3.858  0.0441  0.0897  0.2728
    4FIC    C2427346   4.272   2.434   3.858  0.0705  0.0155 -0.0340
    4FIC    C2527347   4.162   2.519   3.839  0.0840 -0.1063 -0.6935
    4FIC    C2627348   4.176   2.655   3.819  0.0718 -0.1585 -1.0692
    4FIC    C2727349   4.307   2.708   3.818  0.0451 -0.0848 -0.7674
    4FIC    C2827350   4.356   2.847   3.800  0.0265 -0.1116 -1.0242
    4FIC    C2927351   4.279   2.959   3.778  0.0322 -0.2211 -1.6503
    4FIC    C3027352   4.136   2.955   3.770  0.0577 -0.3266 -2.1496
    4FIC    C3127353   4.335   3.089   3.761  0.0130 -0.2383 -1.8544
    5FIC     F127354   5.506   2.190   5.136 -0.5620  0.3262  0.0484
    5FIC     F227355   5.748   2.201   5.260 -0.1304 -0.7592 -0.6727
    5FIC     O127356   5.562   2.583   4.768 -0.2633  0.7243  0.5168
    5FIC     N527357   6.136   2.496   5.175  0.7032 -2.0359 -1.3759
    5FIC     N627358   6.131   2.801   4.863  0.8494 -1.5060 -0.8646
    5FIC    C1927359   5.813   2.733   4.755  0.2553 -0.1713 -0.0060
    5FIC    C2027360   5.790   2.634   4.843  0.1632 -0.2290 -0.0955
    5FIC    C2127361   5.658   2.562   4.843 -0.1055  0.2508  0.1885
    5FIC    C2227362   5.666   2.460   4.950 -0.1429  0.0468  0.0001
    5FIC    C2327363   5.568   2.369   4.988 -0.3619  0.3417  0.1506
    5FIC    C2427364   5.598   2.283   5.093 -0.3522  0.0597 -0.0822
    5FIC    C2527365   5.723   2.289   5.157 -0.1298 -0.4994 -0.4538
    5FIC    C2627366   5.821   2.379   5.119  0.0893 -0.7960 -0.6058
    5FIC    C2727367   5.792   2.467   5.013  0.0832 -0.5178 -0.3744
    5FIC    C2827368   5.874   2.574   4.950  0.2803 -0.7095 -0.4478
    5FIC    C2927369   6.002   2.611   4.984  0.5244 -1.2324 -0.7792
    5FIC    C3027370   6.075   2.548   5.089  0.6219 -1.6724 -1.1061
    5FIC    C3127371   6.072   2.715   4.917  0.7019 -1.3798 -0.8243
    1BTD     S227372   8.494   1.863   6.602 -0.3294 -0.0851 -0.0890
    1BTD     N127373   8.496   1.897   6.426  0.2193 -0.1255 -0.0932
    1BTD     N227374   8.525   1.686   6.583 -0.4883 -0.1270  0.0390
    1BTD     N327375   8.591   1.389   6.226  0.1798 -0.2854  0.2924
    1BTD     N427376   8.556   1.649   6.032  1.0517 -0.2835  0.1293
    1BTD     C527377   8.528   1.764   6.222  0.6433 -0.2081  0.0248
    1BTD     C627378   8.519   1.781   6.365  0.2544 -0.1661 -0.0038
    1BTD     C727379   8.534   1.663   6.453 -0.1419 -0.1669  0.0705
    1BTD     C827380   8.559   1.534   6.394 -0.1290 -0.2097  0.1694
    1BTD    C1527381   8.567   1.522   6.254  0.2590 -0.2500  0.1939
    1BTD    C1627382   8.552   1.636   6.169  0.6409 -0.2491  0.1226
    1BTD    C4327383   8.506   1.545   5.937 -1.2369 -0.3916  0.6654
    1BTD    C4427384   8.518   1.528   5.790 -0.2394  0.7572  1.9248
    1BTD    C4527385   8.649   1.496   5.723 -1.3904  0.4058 -0.9590
    1BTD    C4627386   8.680   1.540   5.579 -0.1097 -0.3411 -0.2276
    1BTD    C4727387   8.385   1.524   5.706  1.0146 -0.3621 -0.7603
    1BTD    C4827388   8.246   1.521   5.773 -0.1349 -1.3162  0.6859
    1BTD    C4927389   8.147   1.630   5.708 -0.2138 -1.1887  0.5644
    1BTD    C5027390   8.171   1.784   5.709 -0.4283  0.2631  0.6498
    1BTD    C7527391   8.664   1.351   6.110 -0.0953  0.8927  0.7356
    1BTD    C7627392   8.670   1.205   6.059  0.5055  0.2060  0.6172
    1BTD    C7727393   8.536   1.136   6.059 -0.2365  0.7796 -0.0771
    1BTD    C7827394   8.425   1.166   5.948 -1.0029 -0.5612 -0.2841
    1BTD    C7927395   8.781   1.175   5.953 -0.0824 -0.4503 -0.0793
    1BTD    C8027396   8.813   1.030   5.926 -0.5062  1.2930 -1.2290
    1BTD    C8127397   8.898   1.016   5.806  0.8495  0.5336  1.2190
    1BTD    C8227398   8.852   1.072   5.658  0.5127  0.4135  0.1688
    2TTP     S127399   8.476   2.031   6.097  0.3271 -0.0221  0.2950
    2TTP     S527400   8.547   1.854   5.712 -0.1421  0.9801 -0.2604
    2TTP     C127401   8.511   2.030   5.688 -0.0828  1.0631  0.2523
    2TTP     C227402   8.487   2.095   5.806  0.0656  0.7584  0.4542
    2TTP     C327403   8.496   2.008   5.919  0.1378  0.4486  0.2109
    2TTP     C427404   8.512   1.854   6.120  0.2677 -0.1050 -0.2178
    2TTP    C1727405   8.537   1.789   6.003  0.1195  0.1997 -0.4197
    2TTP    C1827406   8.527   1.876   5.890  0.0472  0.5095 -0.1764
    2TTP    C3227407   8.450   2.243   5.816  0.5326 -0.6225 -1.5984
    2TTP    C3327408   8.359   2.316   5.929 -0.0947  0.0854  0.4058
    2TTP    C3427409   8.215   2.294   5.925  0.7825  0.4220  0.6195
    2TTP    C3527410   8.143   2.329   5.788  0.6418 -0.7801  0.8916
    2TTP    C3627411   7.990   2.338   5.798  0.9130  0.9000  1.0678
    2TTP    C3727412   7.914   2.414   5.699 -0.1205  0.1813  0.9487
    2TTP    C3827413   7.949   2.561   5.650  1.3144 -0.4187 -1.4244
    2TTP    C3927414   7.967   2.670   5.755  0.2246 -0.2658  0.6569
    2TTP    C4027415   8.086   2.763   5.703  1.1822  0.5285  1.9539
    2TTP    C4127416   8.036   2.901   5.755 -0.2294  0.6996 -0.5138
    2TTP    C4227417   8.138   3.010   5.721 -0.1016 -0.5783 -0.2830
    3TTP     S127418   8.646   1.342   6.611  0.1093  0.1815 -0.1822
    3TTP     S527419   8.661   1.025   6.321 -0.3026 -0.0201  0.0150
    3TTP     C127420   8.714   0.959   6.482 -0.1348  0.0760 -0.0006
    3TTP     C227421   8.713   1.053   6.581  0.0021  0.1439 -0.0623
    3TTP     C327422   8.669   1.180   6.533 -0.0203  0.1225 -0.0998
    3TTP     C427423   8.592   1.408   6.450 -0.0584  0.0853 -0.1664
    3TTP    C1727424   8.594   1.314   6.351 -0.1953  0.0174 -0.1049
    3TTP    C1827425   8.637   1.186   6.399 -0.1729  0.0389 -0.0676
    3TTP    C3227426   8.771   1.062   6.720  0.7856  2.3743  1.0469
    3TTP    C3327427   8.720   0.998   6.847  1.0898  0.1054  1.5095
    3TTP    C3427428   8.805   1.030   6.959 -0.6649  0.0391 -0.2929
    3TTP    C3527429   8.779   0.984   7.101  0.1131 -0.3529  0.7817
    3TTP    C3627430   8.912   0.999   7.177 -0.0587 -0.1103 -0.4520
    3TTP    C3727431   8.986   0.877   7.237  1.0589 -0.1691 -0.2469
    3TTP    C3827432   8.905   0.809   7.343 -0.0477 -0.2637  0.1933
    3TTP    C3927433   8.993   0.703   7.413  0.0594  0.7022  0.3213
    3TTP    C4027434   9.067   0.606   7.328  0.3971  0.8687 -1.2973
    3TTP    C4127435   9.009   0.521   7.219 -0.7036 -0.7463  0.0739
    3TTP    C4227436   9.075   0.393   7.173 -2.1069  1.1936 -0.0676
    4FIC     F127437   8.995   1.856   5.050  0.4804  0.5139  0.0684
    4FIC     F227438   8.872   2.055   4.910 -0.0999 -0.0602 -0.2502
    4FIC     O127439   8.744   1.897   5.528  0.2942  0.4872 -0.0266
    4FIC     N527440   8.517   2.370   5.050 -1.0679 -0.9046 -0.7761
    4FIC     N627441   8.346   2.362   5.452 -1.0965 -0.8096 -0.7862
    4FIC    C1927442   8.538   2.102   5.564 -0.3265 -0.0708 -0.3647
    4FIC    C2027443   8.606   2.084   5.449 -0.2573 -0.0416 -0.3284
    4FIC    C2127444   8.710   1.976   5.438  0.0677  0.2526 -0.1514
    4FIC    C2227445   8.764   1.984   5.301  0.0625  0.2063 -0.1562
    4FIC    C2327446   8.863   1.905   5.244  0.3090  0.4150 -0.0226
    4FIC    C2427447   8.897   1.931   5.112  0.2474  0.3191 -0.0580
    4FIC    C2527448   8.834   2.033   5.041 -0.0518  0.0232 -0.2222
    4FIC    C2627449   8.735   2.113   5.097 -0.2992 -0.1862 -0.3562
    4FIC    C2727450   8.699   2.088   5.230 -0.2415 -0.0932 -0.3229
    4FIC    C2827451   8.599   2.153   5.318 -0.4494 -0.2574 -0.4352
    4FIC    C2927452   8.517   2.258   5.285 -0.7613 -0.5528 -0.6057
    4FIC    C3027453   8.517   2.319   5.156 -0.9289 -0.7452 -0.6988
    4FIC    C3127454   8.423   2.315   5.377 -0.9437 -0.6925 -0.7039
    5FIC     F127455   8.771   0.288   6.024  0.0520  0.0127 -0.2563
    5FIC     F227456   8.909   0.168   6.225 -0.0286 -0.1578 -0.3031
    5FIC     O127457   8.675   0.774   6.243  0.2577 -0.0552 -0.0144
    5FIC     N527458   9.039   0.340   6.670  0.0021 -0.4513 -0.1982
    5FIC     N627459   8.936   0.744   6.801  0.1793 -0.4699  0.0002
    5FIC    C1927460   8.772   0.831   6.513  0.2539 -0.2422  0.0267
    5FIC    C2027461   8.791   0.714   6.450  0.2053 -0.2185 -0.0323
    5FIC    C2127462   8.738   0.692   6.311  0.2108 -0.1208 -0.0498
    5FIC    C2227463   8.776   0.555   6.273  0.1497 -0.1190 -0.1169
    5FIC    C2327464   8.748   0.489   6.153  0.1326 -0.0437 -0.1543
    5FIC    C2427465   8.794   0.359   6.140  0.0722 -0.0588 -0.2166
    5FIC    C2527466   8.865   0.297   6.243  0.0311 -0.1467 -0.2409
    5FIC    C2627467   8.893   0.362   6.363  0.0477 -0.2221 -0.2040
    5FIC    C2727468   8.847   0.493   6.379  0.1087 -0.2082 -0.1405
    5FIC    C2827469   8.860   0.589   6.492  0.1411 -0.2728 -0.0894
    5FIC    C2927470   8.923   0.566   6.612  0.1161 -0.3653 -0.0942
    5FIC    C3027471   8.986   0.442   6.643  0.0536 -0.4122 -0.1515
    5FIC    C3127472   8.930   0.664   6.715  0.1512 -0.4223 -0.0423
    1BTD     S227473   1.296   8.088   7.566 -0.0424 -0.0591 -0.5928
    1BTD     N127474   1.272   8.255   7.504  0.1553  0.2413  0.1212
    1BTD     N227475   1.138   8.081   7.651 -0.2433 -0.4072 -0.9873
    1BTD     N327476   0.772   8.369   7.712 -0.2954 -0.5748 -0.5016
    1BTD     N427477   0.938   8.583   7.531  0.1957  0.2244  0.8641
    1BTD     C527478   1.096   8.424   7.520  0.1705  0.2227  0.4926
    1BTD     C627479   1.154   8.295   7.547  0.0661  0.0749  0.0333
    1BTD     C727480   1.078   8.198   7.629 -0.1570 -0.2880 -0.5871
    1BTD     C827481   0.949   8.234   7.680 -0.2646 -0.4852 -0.7173
    1BTD    C1527482   0.896   8.361   7.651 -0.1560 -0.3299 -0.2535
    1BTD    C1627483   0.968   8.455   7.572  0.0590  0.0202  0.3445
    1BTD    C4327484   0.808   8.647   7.493 -0.7447  0.2436  1.2782
    1BTD    C4427485   0.776   8.791   7.501 -0.3790  0.3762 -0.7409
    1BTD    C4527486   0.811   8.859   7.640 -0.7231 -0.3349 -0.3806
    1BTD    C4627487   0.681   8.883   7.718 -2.1432 -2.0367 -0.6064
    1BTD    C4727488   0.648   8.840   7.431 -1.4987  1.2239 -0.3674
    1BTD    C4827489   0.612   8.983   7.415  0.0517 -0.9116 -0.6143
    1BTD    C4927490   0.720   9.067   7.371  0.6280 -1.4428 -0.6824
    1BTD    C5027491   0.691   9.205   7.299 -0.7879 -0.7789  1.3167
    1BTD    C7527492   0.738   8.492   7.804 -0.4433 -0.6398  1.3292
    1BTD    C7627493   0.757   8.504   7.958  0.4145 -1.0944 -0.7105
    1BTD    C7727494   0.896   8.470   8.022  1.3118 -0.5557 -1.1845
    1BTD    C7827495   1.019   8.544   7.994 -1.4144 -0.7027 -0.3233
    1BTD    C7927496   0.701   8.631   8.023 -0.8904 -0.2420 -0.3899
    1BTD    C8027497   0.571   8.689   7.982  0.0830  0.3558 -0.3117
    1BTD    C8127498   0.450   8.619   8.040  0.2808 -1.3844  0.7190
    1BTD    C8227499   0.324   8.639   7.950  0.6017 -0.9816 -0.1254
    2TTP     S127500   1.301   8.601   7.386 -0.2113  0.0138  0.1558
    2TTP     S527501   1.028   8.934   7.388 -0.2591 -0.0267  0.5151
    2TTP     C127502   1.187   8.990   7.319 -0.4026 -0.0396  0.1693
    2TTP     C227503   1.281   8.890   7.314 -0.3964 -0.0281  0.0379
    2TTP     C327504   1.230   8.767   7.365 -0.2780 -0.0086  0.2056
    2TTP     C427505   1.142   8.546   7.455 -0.0678  0.0267  0.5015
    2TTP    C1727506   1.048   8.645   7.459 -0.0741  0.0148  0.6329
    2TTP    C1827507   1.099   8.769   7.409 -0.1925 -0.0045  0.4653
    2TTP    C3227508   1.433   8.907   7.268 -0.4364 -0.9931 -0.3651
    2TTP    C3327509   1.551   8.813   7.285 -0.5059  0.2406  0.5993
    2TTP    C3427510   1.669   8.825   7.177  0.0764  0.3539 -0.8141
    2TTP    C3527511   1.812   8.753   7.189 -0.3714  0.5379 -0.5281
    2TTP    C3627512   1.827   8.603   7.222  0.0988 -0.0659  0.2663
    2TTP    C3727513   1.964   8.570   7.266 -0.1840  0.7196 -0.3995
    2TTP    C3827514   1.991   8.431   7.308 -1.0495 -0.8869 -0.6735
    2TTP    C3927515   2.154   8.436   7.337  0.0228 -1.1340 -0.7692
    2TTP    C4027516   2.216   8.304   7.367 -0.9277 -0.3836  0.6659
    2TTP    C4127517   2.137   8.205   7.446 -0.4028  0.6868 -0.4909
    2TTP    C4227518   2.232   8.089   7.506 -1.2349  0.3269 -0.2231
    3TTP     S127519   0.809   7.987   7.787  0.0648 -0.6785  0.4498
    3TTP     S527520   0.448   8.213   7.846  0.1136 -0.4921  0.0447
    3TTP     C127521   0.414   8.038   7.886 -0.0034 -0.4640  0.0707
    3TTP     C227522   0.524   7.958   7.870 -0.0254 -0.5198  0.1974
    3TTP     C327523   0.638   8.032   7.826  0.0494 -0.5870  0.2784
    3TTP     C427524   0.843   8.161   7.747  0.1818 -0.7067  0.4238
    3TTP    C1727525   0.733   8.241   7.763  0.2038 -0.6508  0.2970
    3TTP    C1827526   0.619   8.168   7.807  0.1290 -0.5839  0.2160
    3TTP    C3227527   0.521   7.810   7.897 -0.8177  0.8940  1.1496
    3TTP    C3327528   0.609   7.709   7.804  1.2788 -0.1673 -0.1026
    3TTP    C3427529   0.569   7.695   7.658 -0.2383  0.7421  0.9986
    3TTP    C3527530   0.676   7.613   7.587 -0.0005 -0.1244 -0.2853
    3TTP    C3627531   0.685   7.465   7.608  0.4848  0.1305 -1.0522
    3TTP    C3727532   0.787   7.395   7.518 -0.8828  0.0167  0.1934
    3TTP    C3827533   0.846   7.268   7.596  0.4282  0.4747  0.8557
    3TTP    C3927534   0.948   7.174   7.527 -0.0012 -0.1640 -0.0406
    3TTP    C4027535   1.076   7.257   7.507  0.3488 -0.4182  0.5721
    3TTP    C4127536   1.204   7.182   7.508  0.3260 -1.0548 -0.5915
    3TTP    C4227537   1.241   7.123   7.374  0.8380 -0.0710 -0.2661
    4FIC     F127538   0.935   9.745   7.507 -0.2320 -0.4010  0.1787
    4FIC     F227539   1.070   9.836   7.289 -0.6715 -0.3846 -0.0876
    4FIC     O127540   1.059   9.218   7.492  0.4152 -0.2568  0.3722
    4FIC     N527541   1.352   9.591   6.964 -0.8422 -0.2580 -0.3320
    4FIC     N627542   1.421   9.161   6.996 -0.2477 -0.1485 -0.1271
    4FIC    C1927543   1.232   9.118   7.278  0.2253 -0.1895  0.1867
    4FIC    C2027544   1.195   9.247   7.291  0.0796 -0.2267  0.1483
    4FIC    C2127545   1.106   9.291   7.403  0.1910 -0.2596  0.2496
    4FIC    C2227546   1.087   9.436   7.387 -0.0178 -0.2954  0.1748
    4FIC    C2327547   1.011   9.521   7.468 -0.0065 -0.3335  0.2257
    4FIC    C2427548   1.008   9.655   7.432 -0.2295 -0.3631  0.1351
    4FIC    C2527549   1.077   9.702   7.320 -0.4557 -0.3544 -0.0022
    4FIC    C2627550   1.152   9.617   7.239 -0.4683 -0.3166 -0.0534
    4FIC    C2727551   1.157   9.481   7.273 -0.2445 -0.2863  0.0366
    4FIC    C2827552   1.227   9.367   7.209 -0.1937 -0.2437  0.0150
    4FIC    C2927553   1.305   9.372   7.096 -0.3669 -0.2236 -0.1054
    4FIC    C3027554   1.330   9.492   7.024 -0.6276 -0.2425 -0.2296
    4FIC    C3127555   1.369   9.256   7.042 -0.3003 -0.1824 -0.1168
    5FIC     F127556  -0.228   8.418   8.226  0.0973  0.0668  0.0844
    5FIC     F227557  -0.266   8.202   8.387  0.3021  0.0689  0.1369
    5FIC     O127558   0.191   8.251   7.927  0.0227  0.2503 -0.1230
    5FIC     N527559  -0.023   7.771   8.403  0.5441  0.2028  0.0644
    5FIC     N627560   0.312   7.684   8.137  0.4443  0.3458 -0.1080
    5FIC    C1927561   0.303   7.984   7.973  0.1921  0.3175 -0.1464
    5FIC    C2027562   0.199   8.035   8.042  0.2029  0.2713 -0.0963
    5FIC    C2127563   0.147   8.173   8.013  0.1121  0.2391 -0.0875
    5FIC    C2227564   0.035   8.196   8.105  0.1505  0.1917 -0.0286
    5FIC    C2327565  -0.045   8.310   8.115  0.0947  0.1500 -0.0010
    5FIC    C2427566  -0.145   8.309   8.211  0.1477  0.1093  0.0547
    5FIC    C2527567  -0.165   8.197   8.293  0.2536  0.1104  0.0814
    5FIC    C2627568  -0.086   8.084   8.284  0.3095  0.1516  0.0541
    5FIC    C2727569   0.016   8.083   8.188  0.2573  0.1934 -0.0021
    5FIC    C2827570   0.117   7.979   8.152  0.2935  0.2424 -0.0424
    5FIC    C2927571   0.130   7.855   8.211  0.3923  0.2582 -0.0324
    5FIC    C3027572   0.046   7.809   8.316  0.4754  0.2277  0.0210
    5FIC    C3127573   0.230   7.762   8.170  0.4204  0.3062 -0.0739
    1BTD     S227574   5.594   2.109  10.808 -0.0837 -0.5176  0.2483
    1BTD     N127575   5.514   2.085  10.967  0.1527  0.2879  0.4966
    1BTD     N227576   5.761   2.090  10.872 -0.0205 -0.9825 -0.0489
    1BTD     N327577   5.957   2.007  11.290  0.5354 -0.4754 -0.2067
    1BTD     N427578   5.653   2.002  11.408  0.7490  1.0900  0.4654
    1BTD     C527579   5.591   2.042  11.196  0.4615  0.6878  0.4718
    1BTD     C627580   5.611   2.065  11.055  0.2611  0.1746  0.3521
    1BTD     C727581   5.749   2.068  11.002  0.1639 -0.5364  0.0470
    1BTD     C827582   5.860   2.046  11.091  0.2723 -0.6989 -0.1233
    1BTD    C1527583   5.835   2.024  11.228  0.4682 -0.1799  0.0027
    1BTD    C1627584   5.702   2.021  11.280  0.5616  0.5053  0.2969
    1BTD    C4327585   5.698   2.081  11.528  0.2704  0.2273  0.9764
    1BTD    C4427586   5.617   2.176  11.615 -1.0127 -1.1929 -0.4335
    1BTD    C4527587   5.625   2.330  11.580  1.5369 -0.1850 -0.1049
    1BTD    C4627588   5.581   2.391  11.443  0.0602  1.2465 -0.3264
    1BTD    C4727589   5.667   2.171  11.764 -0.2237 -0.0220 -0.8768
    1BTD    C4827590   5.657   2.279  11.867  0.5284 -1.2505  0.0156
    1BTD    C4927591   5.779   2.317  11.936 -0.8844  0.6334 -0.7872
    1BTD    C5027592   5.770   2.472  11.969 -0.2801  0.2931  0.5205
    1BTD    C7527593   5.973   1.954  11.431 -0.2226 -0.4643  1.2608
    1BTD    C7627594   6.055   2.051  11.512 -1.8315 -0.7579 -1.4888
    1BTD    C7727595   6.090   2.004  11.659 -0.3604 -0.5510 -0.8919
    1BTD    C7827596   6.115   1.869  11.705  1.1213 -0.3125 -0.0686
    1BTD    C7927597   6.087   2.212  11.505 -0.1596  0.2016 -0.4740
    1BTD    C8027598   6.001   2.318  11.448 -0.0392 -0.5526  0.3905
    1BTD    C8127599   6.065   2.458  11.502  2.1750 -0.4991  1.7324
    1BTD    C8227600   6.056   2.502  11.641  0.4094  1.8344 -0.4007
    2TTP     S127601   5.293   2.005  11.264  0.0744 -0.2734 -0.2550
    2TTP     S527602   5.403   1.859  11.653  0.2688 -0.3651 -0.3441
    2TTP     C127603   5.222   1.850  11.637  0.2217  0.0499 -0.0912
    2TTP     C227604   5.177   1.894  11.516  0.1588  0.1026 -0.0488
    2TTP     C327605   5.284   1.938  11.431  0.1458 -0.1828 -0.2145
    2TTP     C427606   5.474   2.015  11.280  0.1216 -0.6885 -0.5079
    2TTP    C1727607   5.518   1.970  11.401  0.1843 -0.7412 -0.5503
    2TTP    C1827608   5.411   1.927  11.486  0.1974 -0.4558 -0.3846
    2TTP    C3227609   5.025   1.927  11.482  0.0988  0.9333 -0.4242
    2TTP    C3327610   4.929   1.809  11.423 -0.4302  0.3713  0.7137
    2TTP    C3427611   4.794   1.858  11.356  0.6113 -0.2793 -0.6704
    2TTP    C3527612   4.693   1.760  11.335  0.1114  1.1709 -0.8891
    2TTP    C3627613   4.581   1.802  11.230  0.4495  0.5864 -0.4327
    2TTP    C3727614   4.554   1.960  11.212  0.5696  0.7239  0.7497
    2TTP    C3827615   4.449   1.997  11.106 -0.5483 -1.0869  1.2391
    2TTP    C3927616   4.304   1.974  11.137  0.0368 -0.8522  0.9961
    2TTP    C4027617   4.241   1.955  10.994  0.4128  1.2479  1.1126
    2TTP    C4127618   4.097   1.919  11.020 -1.5564 -2.0299  0.1415
    2TTP    C4227619   4.025   1.821  10.922 -0.7604  0.5238  0.3836
    3TTP     S127620   6.119   2.035  10.936  0.1402  0.0664 -0.2839
    3TTP     S527621   6.326   1.964  11.306 -0.4224  1.2196  0.2618
    3TTP     C127622   6.447   1.960  11.170 -0.1831  0.9997  0.4795
    3TTP     C227623   6.390   1.982  11.048  0.0046  0.6307  0.3238
    3TTP     C327624   6.249   2.003  11.057 -0.0335  0.5083  0.0272
    3TTP     C427625   5.998   2.039  11.072 -0.0993  0.2863 -0.5014
    3TTP    C1727626   6.055   2.018  11.194 -0.2869  0.6554 -0.3458
    3TTP    C1827627   6.196   1.997  11.185 -0.2487  0.7778 -0.0489
    3TTP    C3227628   6.464   1.968  10.916 -0.3255  0.4769 -0.6969
    3TTP    C3327629   6.481   2.101  10.840  0.5403  0.4537  0.0424
    3TTP    C3427630   6.519   2.094  10.687  0.3792  0.4077  0.3409
    3TTP    C3527631   6.661   2.114  10.670  0.5224  0.2658 -0.5754
    3TTP    C3627632   6.705   2.250  10.653  0.0117 -0.8392  0.3577
    3TTP    C3727633   6.832   2.257  10.571 -1.4280  1.0860 -0.5343
    3TTP    C3827634   6.824   2.330  10.435 -1.0616  0.2757  0.5267
    3TTP    C3927635   6.928   2.286  10.331  0.3967  0.4465 -0.7365
    3TTP    C4027636   6.888   2.324  10.192 -0.3382  0.8163 -2.5417
    3TTP    C4127637   7.015   2.395  10.134  1.9797  0.7435  0.7525
    3TTP    C4227638   6.987   2.383   9.985 -0.2019  0.1105  0.9365
    4FIC     F127639   5.373   1.481  12.358 -0.1627  0.3855  0.1138
    4FIC     F227640   5.109   1.502  12.421 -0.1630  0.8771 -0.0458
    4FIC     O127641   5.379   1.705  11.865  0.4448 -0.2086 -0.1512
    4FIC     N527642   4.734   1.693  12.159  0.2700  1.1602 -0.4641
    4FIC     N627643   4.792   1.863  11.762  0.7449  0.5969 -0.6389
    4FIC    C1927644   5.129   1.805  11.750  0.6606  0.0499 -0.3978
    4FIC    C2027645   5.138   1.748  11.871  0.5078  0.1802 -0.3249
    4FIC    C2127646   5.270   1.699  11.924  0.4042  0.0334 -0.1992
    4FIC    C2227647   5.244   1.643  12.058  0.2465  0.2333 -0.1452
    4FIC    C2327648   5.336   1.585  12.145  0.1113  0.1919 -0.0299
    4FIC    C2427649   5.287   1.539  12.267 -0.0247  0.4121  0.0011
    4FIC    C2527650   5.151   1.550  12.299 -0.0245  0.6652 -0.0812
    4FIC    C2627651   5.059   1.607  12.212  0.1099  0.7079 -0.1965
    4FIC    C2727652   5.106   1.655  12.088  0.2488  0.4874 -0.2295
    4FIC    C2827653   5.036   1.720  11.975  0.4092  0.4647 -0.3432
    4FIC    C2927654   4.901   1.748  11.968  0.4576  0.6688 -0.4457
    4FIC    C3027655   4.810   1.718  12.073  0.3543  0.9383 -0.4554
    4FIC    C3127656   4.842   1.811  11.855  0.6154  0.6280 -0.5514
    5FIC     F127657   6.906   1.623  11.762 -0.0858  0.1050 -0.0168
    5FIC     F227658   7.122   1.745  11.649 -0.0418  0.3044  0.2794
    5FIC     O127659   6.514   1.771  11.419  0.1066  0.4254 -0.0994
    5FIC     N527660   7.153   2.024  11.242  0.1585  0.8197  0.6463
    5FIC     N627661   6.803   2.115  10.997  0.3000  1.0299  0.5219
    5FIC    C1927662   6.581   1.939  11.189  0.2169  0.7299  0.1542
    5FIC    C2027663   6.672   1.897  11.280  0.1669  0.6415  0.1634
    5FIC    C2127664   6.630   1.811  11.396  0.1118  0.4862  0.0281
    5FIC    C2227665   6.751   1.784  11.474  0.0659  0.4214  0.0770
    5FIC    C2327666   6.762   1.708  11.590  0.0076  0.2797 -0.0092
    5FIC    C2427667   6.888   1.697  11.647 -0.0276  0.2433  0.0618
    5FIC    C2527668   6.999   1.759  11.589 -0.0049  0.3463  0.2144
    5FIC    C2627669   6.989   1.835  11.473  0.0533  0.4880  0.3011
    5FIC    C2727670   6.862   1.848  11.414  0.0898  0.5268  0.2311
    5FIC    C2827671   6.818   1.920  11.292  0.1526  0.6661  0.2903
    5FIC    C2927672   6.897   1.994  11.207  0.1903  0.7934  0.4351
    5FIC    C3027673   7.038   2.010  11.227  0.1726  0.8073  0.5507
    5FIC    C3127674   6.845   2.060  11.092  0.2505  0.9229  0.4821
    1BTD     S227675   2.598   1.448   8.796  0.3792 -0.2972  0.0641
    1BTD     N127676   2.439   1.464   8.714  0.2522 -0.3420  0.3030
    1BTD     N227677   2.662   1.327   8.680  0.4181  0.0772 -0.3102
    1BTD     N327678   2.504   1.107   8.296  0.2683  0.7592 -0.6418
    1BTD     N427679   2.229   1.276   8.339  0.0638  0.2426  0.1135
    1BTD     C527680   2.333   1.364   8.518  0.1563 -0.0306  0.1950
    1BTD     C627681   2.441   1.382   8.610  0.2458 -0.0888  0.1018
    1BTD     C727682   2.566   1.305   8.591  0.3387  0.1459 -0.2415
    1BTD     C827683   2.577   1.214   8.480  0.3374  0.4270 -0.4742
    1BTD    C1527684   2.468   1.200   8.392  0.2482  0.4741 -0.3717
    1BTD    C1627685   2.347   1.274   8.411  0.1587  0.2480 -0.0411
    1BTD    C4327686   2.204   1.285   8.185  0.2102 -0.0865 -1.3469
    1BTD    C4427687   2.192   1.420   8.133  0.3158 -1.5818  0.2495
    1BTD    C4527688   2.295   1.527   8.193 -0.2028  0.0177  1.0840
    1BTD    C4627689   2.444   1.514   8.178 -0.9861 -0.4145  1.3872
    1BTD    C4727690   2.149   1.423   7.983  1.2294  0.0534  0.0683
    1BTD    C4827691   2.217   1.348   7.875 -0.8436  1.0711  0.5681
    1BTD    C4927692   2.366   1.325   7.842 -0.4313 -0.8805 -0.3778
    1BTD    C5027693   2.378   1.259   7.706  1.0996 -0.6261 -0.8786
    1BTD    C7527694   2.428   1.052   8.185  0.1991 -0.0986 -0.0299
    1BTD    C7627695   2.341   0.920   8.177  1.0158 -1.7578  0.6492
    1BTD    C7727696   2.284   0.953   8.038  0.5257  0.1393 -0.1588
    1BTD    C7827697   2.227   0.819   7.980 -0.6640 -0.5900  0.3044
    1BTD    C7927698   2.239   0.904   8.294  0.5856 -0.9115  1.0304
    1BTD    C8027699   2.279   0.853   8.432 -0.2574 -1.4168  0.0997
    1BTD    C8127700   2.311   0.712   8.454  0.2640 -0.9344 -0.3128
    1BTD    C8227701   2.361   0.645   8.579 -1.5290  0.6286  0.6517
    2TTP     S127702   2.094   1.476   8.639  0.6257  0.4577 -0.3097
    2TTP     S527703   1.849   1.305   8.330 -0.0075 -0.4399  0.6776
    2TTP     C127704   1.740   1.384   8.454  0.2510  0.0553  0.5941
    2TTP     C227705   1.810   1.441   8.556  0.4618  0.3617  0.2842
    2TTP     C327706   1.951   1.425   8.541  0.4268  0.2164  0.1018
    2TTP     C427707   2.203   1.398   8.516  0.3672 -0.0375 -0.2263
    2TTP    C1727708   2.133   1.340   8.413  0.1564 -0.3439  0.0836
    2TTP    C1827709   1.992   1.356   8.428  0.1915 -0.1985  0.2663
    2TTP    C3227710   1.761   1.517   8.674 -0.9048 -0.0279 -0.7161
    2TTP    C3327711   1.833   1.649   8.732  0.3861 -0.2174  0.8969
    2TTP    C3427712   1.875   1.772   8.645  0.0035 -0.8940 -0.1953
    2TTP    C3527713   1.888   1.877   8.769  0.3719  0.0467  1.9810
    2TTP    C3627714   1.952   2.011   8.750 -0.8193  1.5130  1.9334
    2TTP    C3727715   2.083   2.054   8.661  1.0154  0.1261  0.9868
    2TTP    C3827716   2.221   2.041   8.691 -0.7570  0.5335  1.1893
    2TTP    C3927717   2.251   1.891   8.714 -0.5890  0.6685  0.4927
    2TTP    C4027718   2.208   1.818   8.856 -0.1343  0.4100  0.9924
    2TTP    C4127719   2.233   1.664   8.861 -0.1738  0.4167  0.0408
    2TTP    C4227720   2.152   1.608   8.985  0.9068 -1.5059 -0.5261
    3TTP     S127721   2.854   1.083   8.465 -0.1989  0.2975  0.2045
    3TTP     S527722   2.715   0.837   8.141  0.3144  0.4233 -0.1125
    3TTP     C127723   2.886   0.789   8.181  0.3066  0.5163  0.0330
    3TTP     C227724   2.939   0.862   8.284  0.1475  0.4829  0.1397
    3TTP     C327725   2.846   0.959   8.334  0.0262  0.3828  0.1099
    3TTP     C427726   2.683   1.131   8.425 -0.1910  0.2045  0.0589
    3TTP    C1727727   2.630   1.058   8.322 -0.0320  0.2379 -0.0473
    3TTP    C1827728   2.723   0.961   8.272  0.0893  0.3381 -0.0181
    3TTP    C3227729   3.089   0.875   8.308 -1.1980 -0.5586  0.2510
    3TTP    C3327730   3.184   0.983   8.252 -0.5107 -0.7236  0.3719
    3TTP    C3427731   3.188   1.115   8.322 -0.3076  0.3091 -0.3673
    3TTP    C3527732   3.088   1.228   8.302  0.4564  0.7362  0.7134
    3TTP    C3627733   3.128   1.342   8.385  0.3323  0.0930  0.3197
    3TTP    C3727734   2.996   1.418   8.398  0.5841  0.7343  0.6318
    3TTP    C3827735   3.005   1.544   8.481  0.3841  0.2604  1.2968
    3TTP    C3927736   3.015   1.532   8.635 -1.6154  0.2818  0.3626
    3TTP    C4027737   3.010   1.684   8.679  0.0232  0.6922  0.0308
    3TTP    C4127738   3.043   1.713   8.829 -0.3210  0.4840 -0.6505
    3TTP    C4227739   2.914   1.691   8.915  0.4977  0.1950 -0.5337
    4FIC     F127740   1.213   1.372   7.813  0.0249  0.0888 -0.0082
    4FIC     F227741   1.010   1.429   7.984  0.1534  0.8766 -0.1097
    4FIC     O127742   1.634   1.367   8.153  0.0114 -0.2945  0.0036
    4FIC     N527743   1.017   1.507   8.473  0.3287  1.7360 -0.2468
    4FIC     N627744   1.387   1.492   8.704  0.2922  1.2776 -0.2170
    4FIC    C1927745   1.589   1.420   8.438  0.1294  0.3220 -0.0889
    4FIC    C2027746   1.491   1.419   8.345  0.1278  0.3876 -0.0877
    4FIC    C2127747   1.522   1.391   8.201  0.0652  0.0555 -0.0391
    4FIC    C2227748   1.394   1.397   8.128  0.0806  0.2281 -0.0515
    4FIC    C2327749   1.372   1.378   7.992  0.0382  0.0351 -0.0184
    4FIC    C2427750   1.242   1.390   7.947  0.0641  0.2608 -0.0389
    4FIC    C2527751   1.137   1.419   8.035  0.1303  0.6666 -0.0912
    4FIC    C2627752   1.158   1.438   8.171  0.1729  0.8610 -0.1242
    4FIC    C2727753   1.289   1.427   8.219  0.1476  0.6374 -0.1040
    4FIC    C2827754   1.345   1.441   8.356  0.1793  0.7516 -0.1287
    4FIC    C2927755   1.274   1.470   8.470  0.2439  1.1238 -0.1795
    4FIC    C3027756   1.133   1.491   8.471  0.2902  1.4591 -0.2162
    4FIC    C3127757   1.336   1.482   8.598  0.2701  1.2062 -0.1998
    5FIC     F127758   2.814   0.521   7.404  0.0887 -0.1733 -0.6934
    5FIC     F227759   2.997   0.327   7.458  0.3718  0.1101 -0.6251
    5FIC     O127760   2.798   0.782   7.878 -0.6519 -0.3242 -0.6332
    5FIC     N527761   3.248   0.234   7.874  0.2512  0.4101 -0.4842
    5FIC     N627762   3.198   0.477   8.234 -0.3846  0.2350 -0.4511
    5FIC    C1927763   2.967   0.689   8.098 -0.6444 -0.1071 -0.5468
    5FIC    C2027764   2.963   0.631   7.977 -0.4691 -0.0802 -0.5646
    5FIC    C2127765   2.874   0.685   7.869 -0.4858 -0.1975 -0.6092
    5FIC    C2227766   2.895   0.599   7.751 -0.2673 -0.1320 -0.6185
    5FIC    C2327767   2.834   0.610   7.626 -0.2025 -0.1985 -0.6559
    5FIC    C2427768   2.870   0.517   7.530  0.0136 -0.1144 -0.6573
    5FIC    C2527769   2.964   0.417   7.558  0.1591  0.0316 -0.6222
    5FIC    C2627770   3.026   0.406   7.682  0.0957  0.0987 -0.5846
    5FIC    C2727771   2.990   0.499   7.781 -0.1224  0.0153 -0.5827
    5FIC    C2827772   3.036   0.515   7.921 -0.2407  0.0529 -0.5481
    5FIC    C2927773   3.128   0.436   7.987 -0.1549  0.1858 -0.5087
    5FIC    C3027774   3.193   0.325   7.925  0.0681  0.3087 -0.4952
    5FIC    C3127775   3.166   0.459   8.122 -0.2818  0.2121 -0.4773
    1BTD     S227776   2.088  10.921   9.805  0.1677  0.3519  0.5024
    1BTD     N127777   1.925  10.941   9.878 -0.2330 -0.2081 -0.2136
    1BTD     N227778   2.064  11.049   9.681  0.5230  0.7164  0.8070
    1BTD     N327779   1.722  11.346   9.561  0.5236  0.4485  0.1352
    1BTD     N427780   1.550  11.213   9.803 -0.4080 -0.6909 -1.1227
    1BTD     C527781   1.731  11.085   9.836 -0.3131 -0.4466 -0.6731
    1BTD     C627782   1.864  11.037   9.810 -0.0888 -0.1001 -0.1900
    1BTD     C727783   1.943  11.097   9.700  0.3344  0.4175  0.3815
    1BTD     C827784   1.884  11.203   9.621  0.5121  0.5629  0.4411
    1BTD    C1527785   1.753  11.246   9.650  0.2809  0.2109 -0.0438
    1BTD    C1627786   1.677  11.188   9.756 -0.1268 -0.2878 -0.5943
    1BTD    C4327787   1.454  11.316   9.781  0.2901  0.9452  0.4339
    1BTD    C4427788   1.343  11.275   9.681  0.4408 -1.9430 -0.4786
    1BTD    C4527789   1.265  11.143   9.687 -0.8133  0.7890 -0.6305
    1BTD    C4627790   1.135  11.132   9.764  0.0379  0.9285 -0.2631
    1BTD    C4727791   1.279  11.422   9.650 -0.3782 -0.3004  0.5125
    1BTD    C4827792   1.193  11.437   9.526  0.0231  0.5061  1.0602
    1BTD    C4927793   1.217  11.409   9.381  0.3991  0.2958  0.4649
    1BTD    C5027794   1.195  11.272   9.322  1.6976  0.4399 -0.4295
    1BTD    C7527795   1.636  11.478   9.582 -0.0292 -0.7723  0.3615
    1BTD    C7627796   1.679  11.601   9.651 -0.9562  0.5812 -1.0592
    1BTD    C7727797   1.772  11.585   9.780  1.4519 -0.7042 -0.3586
    1BTD    C7827798   1.703  11.559   9.912 -1.0451 -0.9750  0.4357
    1BTD    C7927799   1.574  11.713   9.644 -1.7721  0.0296  1.7492
    1BTD    C8027800   1.638  11.841   9.594  0.0719 -0.4521  0.5794
    1BTD    C8127801   1.741  11.842   9.470 -0.3479  0.2999  0.0484
    1BTD    C8227802   1.703  11.922   9.343 -0.3007  0.9178  0.1615
    2TTP     S127803   1.622  10.945  10.088 -0.1224 -0.2355  0.4308
    2TTP     S527804   1.301  11.231  10.081  0.0734 -0.0279 -0.2713
    2TTP     C127805   1.286  11.131  10.232 -0.3962 -0.1044 -0.3660
    2TTP     C227806   1.384  11.037  10.243 -0.4843 -0.1726 -0.1543
    2TTP     C327807   1.475  11.040  10.132 -0.1841 -0.1676  0.0894
    2TTP     C427808   1.637  11.046   9.937  0.3472 -0.1590  0.5250
    2TTP    C1727809   1.539  11.140   9.926  0.4353 -0.0905  0.3135
    2TTP    C1827810   1.448  11.136  10.036  0.1352 -0.0956  0.0694
    2TTP    C3227811   1.424  10.949  10.356  0.1117  0.1257 -0.3769
    2TTP    C3327812   1.500  11.016  10.486  0.6821 -0.0950 -1.0505
    2TTP    C3427813   1.527  10.917  10.607 -0.6297  0.5308 -1.8380
    2TTP    C3527814   1.643  10.963  10.696 -1.6065 -0.0585 -0.4407
    2TTP    C3627815   1.653  10.896  10.825  0.1633 -1.6083 -1.6544
    2TTP    C3727816   1.763  10.904  10.930 -0.6047  0.7468 -0.0410
    2TTP    C3827817   1.797  10.999  11.036  1.5391 -1.2074 -0.4352
    2TTP    C3927818   1.691  11.093  11.095 -1.0099  1.8401 -0.6139
    2TTP    C4027819   1.579  11.028  11.174 -0.4464 -0.5615 -0.4637
    2TTP    C4127820   1.463  11.112  11.228 -1.2991 -0.2944  0.6920
    2TTP    C4227821   1.402  11.200  11.108 -1.0805 -0.6027 -0.9464
    3TTP     S127822   2.089  11.317   9.444 -0.0221 -0.2327 -0.1129
    3TTP     S527823   1.796  11.577   9.266  0.0160  0.1844  0.4280
    3TTP     C127824   1.959  11.614   9.194  0.0122  0.2722  0.4657
    3TTP     C227825   2.059  11.536   9.245  0.0002  0.1485  0.3002
    3TTP     C327826   2.010  11.444   9.343 -0.0064 -0.0200  0.1388
    3TTP     C427827   1.926  11.279   9.516 -0.0184 -0.3205 -0.1507
    3TTP    C1727828   1.826  11.357   9.466 -0.0064 -0.1968  0.0144
    3TTP    C1827829   1.874  11.449   9.368  0.0003 -0.0283  0.1764
    3TTP    C3227830   2.199  11.502   9.214  0.2100  0.9268 -1.0570
    3TTP    C3327831   2.284  11.561   9.111 -0.7854  0.6518  0.0220
    3TTP    C3427832   2.425  11.507   9.115 -0.5666  0.0240 -0.0654
    3TTP    C3527833   2.480  11.505   8.969 -0.5610 -1.2844  0.3768
    3TTP    C3627834   2.626  11.451   8.968 -1.3277 -0.8427 -0.6769
    3TTP    C3727835   2.636  11.303   8.983  0.1686 -1.0221  0.9210
    3TTP    C3827836   2.767  11.232   9.014  0.0283 -1.1213 -0.1450
    3TTP    C3927837   2.877  11.231   8.917 -0.3517  0.5750 -0.1213
    3TTP    C4027838   2.864  11.089   8.853  0.8241  0.4991 -0.9641
    3TTP    C4127839   2.959  11.074   8.732  1.2493 -1.3271 -0.2134
    3TTP    C4227840   3.079  10.993   8.758  0.3508  1.0957  1.3375
    4FIC     F127841   0.719  11.697  10.417  0.4818 -0.1927  0.3715
    4FIC     F227842   0.626  11.531  10.612  0.0218 -0.8421 -0.3865
    4FIC     O127843   1.129  11.403  10.220  1.0046  0.5006  0.4153
    4FIC     N527844   0.784  11.084  10.752 -0.2669 -1.2815 -1.4453
    4FIC     N627845   1.123  10.887  10.559  0.2343 -0.6089 -1.2584
    4FIC    C1927846   1.185  11.140  10.336  0.7508  0.1265 -0.2934
    4FIC    C2027847   1.086  11.220  10.378  0.6372 -0.0225 -0.2749
    4FIC    C2127848   1.063  11.354  10.314  0.7803  0.1869  0.1004
    4FIC    C2227849   0.948  11.415  10.383  0.6019 -0.0533  0.0188
    4FIC    C2327850   0.890  11.539  10.358  0.6480  0.0218  0.2766
    4FIC    C2427851   0.782  11.576  10.436  0.4493 -0.2487  0.1323
    4FIC    C2527852   0.734  11.490  10.537  0.2125 -0.5830 -0.2584
    4FIC    C2627853   0.791  11.366  10.562  0.1651 -0.6598 -0.5176
    4FIC    C2727854   0.901  11.328  10.484  0.3639 -0.3893 -0.3767
    4FIC    C2827855   0.984  11.205  10.485  0.3763 -0.3837 -0.5724
    4FIC    C2927856   0.969  11.097  10.569  0.1828 -0.6605 -0.9565
    4FIC    C3027857   0.867  11.090  10.669 -0.0638 -1.0010 -1.2240
    4FIC    C3127858   1.054  10.982  10.563  0.2123 -0.6304 -1.1203
    5FIC     F127859   1.466  11.939   8.632 -0.3260  0.0440  0.3805
    5FIC     F227860   1.661  12.117   8.569 -0.0694 -0.5098 -0.4294
    5FIC     O127861   1.713  11.649   9.017 -0.2105  0.4929  0.6464
    5FIC     N527862   2.118  12.168   8.753  0.3817 -0.9859 -1.4040
    5FIC     N627863   2.272  11.905   9.066  0.4203 -0.5234 -1.0333
    5FIC    C1927864   1.987  11.717   9.093  0.0757  0.1234 -0.0332
    5FIC    C2027865   1.918  11.782   8.999  0.0366  0.0321 -0.0682
    5FIC    C2127866   1.777  11.742   8.965 -0.1125  0.2350  0.2949
    5FIC    C2227867   1.731  11.833   8.859 -0.1188  0.0671  0.1509
    5FIC    C2327868   1.607  11.835   8.796 -0.2351  0.1627  0.3777
    5FIC    C2427869   1.586  11.931   8.699 -0.2154 -0.0361  0.1749
    5FIC    C2527870   1.687  12.024   8.666 -0.0831 -0.3212 -0.2425
    5FIC    C2627871   1.811  12.023   8.729  0.0333 -0.4182 -0.4709
    5FIC    C2727872   1.834  11.926   8.828  0.0156 -0.2200 -0.2704
    5FIC    C2827873   1.952  11.898   8.912  0.1163 -0.2529 -0.4220
    5FIC    C2927874   2.072  11.966   8.911  0.2565 -0.5002 -0.8144
    5FIC    C3027875   2.097  12.077   8.824  0.3248 -0.7664 -1.1373
    5FIC    C3127876   2.181  11.932   8.996  0.3458 -0.5115 -0.9327
    1BTD     S227877   2.643   6.034   6.755 -0.7572 -0.0262 -0.0931
    1BTD     N127878   2.640   6.151   6.891 -0.2344  0.4179 -0.4530
    1BTD     N227879   2.492   6.096   6.679 -1.0846 -0.3172  0.3130
    1BTD     N327880   2.179   6.433   6.771 -0.8083 -0.1080  0.4913
    1BTD     N427881   2.361   6.501   7.033  0.2394  0.7979 -0.4528
    1BTD     C527882   2.492   6.333   6.962  0.0003  0.6055 -0.4416
    1BTD     C627883   2.532   6.226   6.874 -0.3263  0.3310 -0.2618
    1BTD     C727884   2.450   6.195   6.755 -0.8021 -0.0805  0.1671
    1BTD     C827885   2.331   6.273   6.730 -0.9277 -0.1971  0.3947
    1BTD    C1527886   2.296   6.376   6.819 -0.5967  0.0817  0.2062
    1BTD    C1627887   2.375   6.406   6.933 -0.1380  0.4782 -0.2071
    1BTD    C4327888   2.237   6.516   7.108  0.7524  0.7876 -0.7796
    1BTD    C4427889   2.181   6.614   7.210  0.0977 -0.7070  0.5678
    1BTD    C4527890   2.046   6.594   7.265 -0.3921  0.3725 -0.0918
    1BTD    C4627891   1.994   6.457   7.305 -1.4020  0.5293  0.1379
    1BTD    C4727892   2.232   6.753   7.190  0.4993 -0.0543  0.6482
    1BTD    C4827893   2.169   6.856   7.100 -0.9611  0.4577  1.8121
    1BTD    C4927894   2.065   6.956   7.151  0.1179 -0.4811  0.3920
    1BTD    C5027895   1.923   6.903   7.164 -0.6238  0.1784  0.1039
    1BTD    C7527896   2.150   6.573   6.779  0.3014  0.3356 -0.5107
    1BTD    C7627897   2.029   6.657   6.743  0.1446  0.6935  0.9492
    1BTD    C7727898   1.929   6.664   6.857  0.5186 -0.2131 -1.0313
    1BTD    C7827899   1.814   6.757   6.841 -0.8093 -0.1643  1.6714
    1BTD    C7927900   2.074   6.782   6.682  0.6154 -1.4416  0.2496
    1BTD    C8027901   2.114   6.773   6.530 -0.5157 -0.1694 -0.8800
    1BTD    C8127902   2.011   6.767   6.417  0.4071 -0.0764  0.0687
    1BTD    C8227903   1.982   6.629   6.369 -1.0922  1.1027 -0.5626
    2TTP     S127904   2.714   6.394   7.156 -0.2206 -0.2578  0.4973
    2TTP     S527905   2.567   6.798   7.158  0.0367 -0.1622  0.1888
    2TTP     C127906   2.738   6.798   7.221 -0.1038 -0.2775  0.5774
    2TTP     C227907   2.793   6.673   7.224 -0.1916 -0.3139  0.6957
    2TTP     C327908   2.703   6.573   7.177 -0.1510 -0.2519  0.4833
    2TTP     C427909   2.543   6.394   7.093 -0.0802 -0.1425  0.1085
    2TTP    C1727910   2.488   6.519   7.090  0.0075 -0.1062 -0.0097
    2TTP    C1827911   2.578   6.619   7.137 -0.0330 -0.1681  0.2025
    2TTP    C3227912   2.945   6.645   7.259  0.4116 -0.2549  0.5112
    2TTP    C3327913   2.987   6.559   7.380  0.8349 -0.0239 -0.9361
    2TTP    C3427914   3.065   6.429   7.359 -1.0119 -0.6111 -1.0229
    2TTP    C3527915   3.171   6.392   7.478  1.0790  1.0437  0.1006
    2TTP    C3627916   3.222   6.253   7.436 -0.8769  0.4065 -0.8555
    2TTP    C3727917   3.328   6.208   7.533 -0.0035 -0.2501  0.6012
    2TTP    C3827918   3.316   6.066   7.563  0.2916  1.0726  0.4561
    2TTP    C3927919   3.435   5.988   7.627 -0.2220  0.9653  0.9604
    2TTP    C4027920   3.515   6.060   7.744 -0.7932  1.2869  0.4794
    2TTP    C4127921   3.433   6.093   7.864  0.1479 -0.4006 -0.4237
    2TTP    C4227922   3.517   6.156   7.966  0.5855 -1.3218  0.2118
    3TTP     S127923   2.147   6.100   6.570  0.3024  0.1694 -0.0542
    3TTP     S527924   1.835   6.370   6.691 -0.0646 -0.5444  0.6096
    3TTP     C127925   1.758   6.221   6.619  0.1392 -0.4222  0.1288
    3TTP     C227926   1.850   6.129   6.578  0.2645 -0.1947 -0.1047
    3TTP     C327927   1.984   6.172   6.601  0.2041 -0.1084  0.0880
    3TTP     C427928   2.224   6.249   6.641  0.0985  0.0474  0.4269
    3TTP    C1727929   2.132   6.341   6.683 -0.0269 -0.1802  0.6601
    3TTP    C1827930   1.997   6.297   6.660  0.0336 -0.2666  0.4674
    3TTP    C3227931   1.821   5.993   6.497  0.2419 -0.1364 -0.8637
    3TTP    C3327932   1.805   5.875   6.603  0.1623  0.7931  0.2525
    3TTP    C3427933   1.952   5.851   6.676  1.7944  0.1090  0.0205
    3TTP    C3527934   2.049   5.742   6.629 -0.1169  0.0450 -1.3897
    3TTP    C3627935   2.164   5.764   6.729  0.1881  0.0731 -0.2010
    3TTP    C3727936   2.295   5.674   6.724 -0.1293 -1.1784  0.5350
    3TTP    C3827937   2.371   5.629   6.612  1.5076  0.1006 -0.0662
    3TTP    C3927938   2.430   5.743   6.528 -0.7621 -0.1384  0.1255
    3TTP    C4027939   2.526   5.669   6.427  0.7351 -0.6215  1.8353
    3TTP    C4127940   2.588   5.770   6.328 -0.8121 -0.3868  0.9954
    3TTP    C4227941   2.503   5.796   6.210  1.4171  1.5684 -1.0166
    4FIC     F127942   2.641   7.620   7.269  0.0696  0.3709 -0.1158
    4FIC     F227943   2.866   7.627   7.423 -0.3892  0.1099  0.5774
    4FIC     O127944   2.605   7.090   7.164 -0.0537  0.4510 -0.4778
    4FIC     N527945   3.163   7.259   7.568 -1.1365 -0.2084  1.3160
    4FIC     N627946   3.089   6.843   7.455 -1.1404 -0.0931  0.8934
    4FIC    C1927947   2.806   6.908   7.273 -0.5357  0.2300  0.0558
    4FIC    C2027948   2.807   7.041   7.293 -0.4868  0.2201  0.1198
    4FIC    C2127949   2.699   7.128   7.234 -0.2343  0.3381 -0.1683
    4FIC    C2227950   2.730   7.266   7.276 -0.2448  0.2930 -0.0101
    4FIC    C2327951   2.658   7.382   7.245 -0.0554  0.3676 -0.1744
    4FIC    C2427952   2.707   7.502   7.296 -0.1093  0.3034  0.0298
    4FIC    C2527953   2.822   7.505   7.375 -0.3457  0.1688  0.3869
    4FIC    C2627954   2.894   7.390   7.406 -0.5356  0.0941  0.5527
    4FIC    C2727955   2.847   7.268   7.355 -0.4846  0.1572  0.3502
    4FIC    C2827956   2.899   7.130   7.369 -0.6427  0.1070  0.4442
    4FIC    C2927957   3.011   7.091   7.439 -0.8869 -0.0200  0.7696
    4FIC    C3027958   3.094   7.183   7.510 -1.0234 -0.1231  1.0689
    4FIC    C3127959   3.053   6.955   7.447 -1.0250 -0.0595  0.8359
    5FIC     F127960   1.046   6.569   6.874  0.1921 -0.2794  0.6156
    5FIC     F227961   0.911   6.388   6.722 -0.0115  0.2910  0.1067
    5FIC     O127962   1.558   6.425   6.774  0.0317 -0.5982  0.2441
    5FIC     N527963   1.082   6.025   6.433 -0.4185  0.8835 -0.8893
    5FIC     N627964   1.510   5.949   6.386 -0.5028  0.5192 -1.0769
    5FIC    C1927965   1.611   6.201   6.594 -0.2199 -0.1668 -0.3739
    5FIC    C2027966   1.488   6.244   6.625 -0.1715 -0.1087 -0.2605
    5FIC    C2127967   1.468   6.360   6.719 -0.0414 -0.3421  0.0595
    5FIC    C2227968   1.323   6.381   6.730 -0.0187 -0.2065  0.1087
    5FIC    C2327969   1.256   6.477   6.806  0.0890 -0.3370  0.3710
    5FIC    C2427970   1.118   6.477   6.801  0.0887 -0.1642  0.3639
    5FIC    C2527971   1.048   6.383   6.723 -0.0163  0.1295  0.1017
    5FIC    C2627972   1.114   6.287   6.647 -0.1239  0.2609 -0.1609
    5FIC    C2727973   1.254   6.286   6.651 -0.1255  0.0899 -0.1582
    5FIC    C2827974   1.353   6.198   6.583 -0.2236  0.1614 -0.3954
    5FIC    C2927975   1.325   6.094   6.497 -0.3403  0.4275 -0.6850
    5FIC    C3027976   1.192   6.056   6.462 -0.3828  0.6772 -0.7963
    5FIC    C3127977   1.427   6.015   6.436 -0.4291  0.4764 -0.8988
    1BTD     S227978   2.807   2.031   2.744  0.0310 -0.0025 -0.3300
    1BTD     N127979   2.737   2.196   2.753 -0.0486 -0.0174 -0.6678
    1BTD     N227980   2.977   2.089   2.731  0.0655  0.0374  0.2583
    1BTD     N327981   3.195   2.505   2.721 -0.0079  0.0920  0.8474
    1BTD     N427982   2.899   2.637   2.748 -0.1486  0.0245 -0.2938
    1BTD     C527983   2.825   2.425   2.750 -0.0992  0.0053 -0.4587
    1BTD     C627984   2.838   2.281   2.746 -0.0455  0.0070 -0.3415
    1BTD     C727985   2.973   2.221   2.734  0.0184  0.0376  0.1769
    1BTD     C827986   3.088   2.307   2.726  0.0256  0.0651  0.5521
    1BTD    C1527987   3.070   2.447   2.730 -0.0283  0.0624  0.4202
    1BTD    C1627988   2.940   2.505   2.742 -0.0898  0.0328 -0.0794
    1BTD    C4327989   2.972   2.778   2.784  0.9585  0.8399 -0.3790
    1BTD    C4427990   2.967   2.840   2.936 -0.0171 -0.9999  0.1228
    1BTD    C4527991   3.026   2.983   2.943  0.2948  0.6463 -0.1202
    1BTD    C4627992   2.954   3.086   2.854  0.0019 -0.2884  0.3993
    1BTD    C4727993   3.021   2.752   3.040  1.3618  1.0419  0.2681
    1BTD    C4827994   2.969   2.780   3.185  0.0522 -0.8922 -0.3945
    1BTD    C4927995   2.857   2.672   3.234  0.4777 -0.9547 -0.3080
    1BTD    C5027996   2.714   2.699   3.177  0.6320 -0.7389 -0.4196
    1BTD    C7527997   3.241   2.631   2.649  0.8062  0.8173  0.3646
    1BTD    C7627998   3.368   2.724   2.660 -1.0903 -0.4944  0.0604
    1BTD    C7727999   3.380   2.787   2.797 -0.7792  0.2396  0.6648
    1BTD    C7828000   3.403   2.700   2.911  0.0275 -0.1833  0.8244
    1BTD    C7928001   3.369   2.834   2.565 -0.2281 -0.3966  0.3572
    1BTD    C8028002   3.444   2.789   2.437 -0.2875 -0.0817  0.3451
    1BTD    C8128003   3.365   2.750   2.316  0.9555  0.8826  0.1794
    1BTD    C8228004   3.395   2.738   2.164 -0.5599  0.8437 -0.7572
    2TTP     S128005   2.535   2.495   2.801 -0.2617  0.2596  0.1071
    2TTP     S528006   2.649   2.908   2.845 -0.3465  0.3122 -0.1641
    2TTP     C128007   2.471   2.892   2.882 -0.2629  0.2366  0.2205
    2TTP     C228008   2.426   2.764   2.870 -0.2317  0.2158  0.3269
    2TTP     C328009   2.530   2.673   2.832 -0.2728  0.2590  0.1086
    2TTP     C428010   2.713   2.511   2.765 -0.3453  0.3353 -0.2775
    2TTP    C1728011   2.758   2.639   2.776 -0.3765  0.3560 -0.3839
    2TTP    C1828012   2.655   2.730   2.814 -0.3355  0.3129 -0.1655
    2TTP    C3228013   2.298   2.702   2.928 -0.0769 -0.4060 -0.7055
    2TTP    C3328014   2.281   2.639   3.065  0.1298 -0.4592 -0.0550
    2TTP    C3428015   2.160   2.562   3.104  0.8130 -0.4553 -0.4811
    2TTP    C3528016   2.122   2.449   3.009  1.4534 -0.2711  0.4719
    2TTP    C3628017   1.991   2.440   2.918 -0.0233 -0.1391 -0.4051
    2TTP    C3728018   1.974   2.542   2.801 -0.2538  0.9994 -0.6646
    2TTP    C3828019   1.926   2.681   2.858 -1.2731  0.0601  0.6557
    2TTP    C3928020   1.908   2.770   2.743 -0.4023 -0.7263  0.6957
    2TTP    C4028021   1.933   2.915   2.783 -0.9716  0.1106 -0.2611
    2TTP    C4128022   1.970   3.000   2.652 -0.1327 -0.1294 -1.3394
    2TTP    C4228023   1.909   3.140   2.676 -0.7221  1.2089 -0.0163
    3TTP     S128024   3.342   2.133   2.724 -0.0887  0.1699  0.4671
    3TTP     S528025   3.572   2.492   2.671 -0.2478  0.1820 -0.1584
    3TTP     C128026   3.685   2.350   2.666 -0.2015  0.2143 -0.0433
    3TTP     C228027   3.621   2.231   2.682 -0.1497  0.2124  0.1567
    3TTP     C328028   3.480   2.247   2.699 -0.1446  0.1854  0.2261
    3TTP     C428029   3.229   2.275   2.729 -0.1349  0.1376  0.3519
    3TTP    C1728030   3.294   2.395   2.713 -0.1868  0.1395  0.1519
    3TTP    C1828031   3.434   2.378   2.696 -0.1919  0.1664  0.0825
    3TTP    C3228032   3.691   2.099   2.685  0.3286  1.8028  0.1123
    3TTP    C3328033   3.696   2.028   2.546 -0.0336  0.9045  0.3830
    3TTP    C3428034   3.781   1.902   2.518 -1.1996  1.6060 -0.0147
    3TTP    C3528035   3.736   1.770   2.596 -0.8715  1.0359  1.3307
    3TTP    C3628036   3.804   1.636   2.607  0.6357  0.1204  0.9864
    3TTP    C3728037   3.692   1.536   2.649 -1.7262  0.5498  0.0067
    3TTP    C3828038   3.729   1.412   2.742  1.2072  0.1155  0.5992
    3TTP    C3928039   3.860   1.339   2.726 -0.1426  0.1567 -0.0662
    3TTP    C4028040   3.830   1.186   2.727 -1.6184 -0.2172  0.7756
    3TTP    C4128041   3.797   1.109   2.591 -0.6010 -0.3369  0.0268
    3TTP    C4228042   3.748   0.980   2.656 -0.9441  0.3452  0.8870
    4FIC     F128043   2.490   3.709   2.762  0.0610 -0.2087 -0.1947
    4FIC     F228044   2.291   3.732   2.947  0.2617  0.0591 -0.0103
    4FIC     O128045   2.550   3.172   2.742 -0.4045 -0.2705  0.0464
    4FIC     N528046   2.048   3.382   3.198  0.2186  0.3998  0.4269
    4FIC     N628047   2.135   2.957   3.145 -0.1856  0.2975  0.5782
    4FIC    C1928048   2.381   3.002   2.911 -0.3780 -0.0367  0.3084
    4FIC    C2028049   2.374   3.137   2.909 -0.2687 -0.0316  0.2404
    4FIC    C2128050   2.464   3.217   2.819 -0.2908 -0.1561  0.1063
    4FIC    C2228051   2.430   3.359   2.842 -0.1512 -0.1152  0.0607
    4FIC    C2328052   2.487   3.470   2.781 -0.1186 -0.1960 -0.0581
    4FIC    C2428053   2.438   3.595   2.819  0.0213 -0.1347 -0.0793
    4FIC    C2528054   2.336   3.606   2.914  0.1245  0.0032  0.0158
    4FIC    C2628055   2.279   3.495   2.975  0.0926  0.0845  0.1346
    4FIC    C2728056   2.327   3.368   2.938 -0.0483  0.0241  0.1580
    4FIC    C2828057   2.288   3.233   2.983 -0.1165  0.0810  0.2722
    4FIC    C2928058   2.191   3.202   3.076 -0.0508  0.2129  0.3855
    4FIC    C3028059   2.113   3.301   3.143  0.0971  0.3152  0.4079
    4FIC    C3128060   2.161   3.067   3.113 -0.1253  0.2587  0.4908
    5FIC     F128061   4.175   2.916   2.983  0.2152 -0.2157  0.7535
    5FIC     F228062   4.390   2.788   2.878 -0.0513  0.8259 -1.1470
    5FIC     O128063   3.773   2.590   2.822  0.1025 -0.5791  1.7536
    5FIC     N528064   4.414   2.372   2.611 -0.5145  2.0644 -3.1666
    5FIC     N628065   4.057   2.143   2.506 -0.5487  1.5705 -2.0021
    5FIC    C1928066   3.837   2.352   2.664 -0.1919  0.2869  0.2930
    5FIC    C2028067   3.929   2.439   2.709 -0.1532  0.3377  0.1157
    5FIC    C2128068   3.889   2.559   2.789  0.0004 -0.1259  0.9043
    5FIC    C2228069   4.013   2.632   2.821  0.0049  0.0650  0.4684
    5FIC    C2328070   4.026   2.750   2.894  0.1241 -0.2221  0.9172
    5FIC    C2428071   4.154   2.800   2.912  0.1019  0.0442  0.3559
    5FIC    C2528072   4.265   2.734   2.857 -0.0355  0.5809 -0.6231
    5FIC    C2628073   4.253   2.616   2.784 -0.1549  0.8696 -1.0756
    5FIC    C2728074   4.124   2.564   2.766 -0.1345  0.6069 -0.5190
    5FIC    C2828075   4.077   2.443   2.694 -0.2371  0.7958 -0.7747
    5FIC    C2928076   4.155   2.352   2.628 -0.3822  1.2991 -1.6664
    5FIC    C3028077   4.298   2.363   2.619 -0.4544  1.7182 -2.4881
    5FIC    C3128078   4.101   2.237   2.561 -0.4729  1.4455 -1.8460
    1BTD     S228079   1.925   0.575   5.516  0.5011 -0.5671  0.0944
    1BTD     N128080   1.767   0.647   5.467  0.5930 -0.5026 -0.1109
    1BTD     N228081   1.946   0.682   5.659  0.3888 -0.5327  0.0852
    1BTD     N328082   1.704   1.029   5.863  0.3258 -0.3464 -0.3040
    1BTD     N428083   1.484   0.986   5.627  0.5774 -0.3092 -0.5459
    1BTD     C528084   1.622   0.824   5.554  0.5819 -0.4021 -0.3351
    1BTD     C628085   1.740   0.742   5.556  0.5381 -0.4610 -0.1725
    1BTD     C728086   1.840   0.762   5.663  0.4238 -0.4778 -0.0628
    1BTD     C828087   1.817   0.863   5.763  0.3589 -0.4350 -0.1209
    1BTD    C1528088   1.700   0.941   5.757  0.4052 -0.3778 -0.2810
    1BTD    C1628089   1.604   0.922   5.653  0.5153 -0.3616 -0.3869
    1BTD    C4328090   1.370   1.029   5.728 -1.1725  0.7233 -0.9537
    1BTD    C4428091   1.269   1.139   5.708 -0.1177  0.0693 -0.6320
    1BTD    C4528092   1.139   1.128   5.799 -0.6358 -0.6647  0.7066
    1BTD    C4628093   1.120   1.132   5.955  0.2841 -0.5217  0.4972
    1BTD    C4728094   1.334   1.265   5.660 -0.5415  0.8666  1.3208
    1BTD    C4828095   1.231   1.358   5.583 -0.9005  0.7004 -1.5471
    1BTD    C4928096   1.259   1.507   5.614  1.9011 -0.9395 -1.1420
    1BTD    C5028097   1.159   1.606   5.546  0.1588  1.6052 -0.8931
    1BTD    C7528098   1.655   1.177   5.849  0.7349  1.5281  0.6289
    1BTD    C7628099   1.620   1.251   5.974 -0.0122  1.1034 -0.2885
    1BTD    C7728100   1.592   1.398   5.939 -1.1988 -0.6310  0.7881
    1BTD    C7828101   1.702   1.497   5.874 -0.3260  0.7129 -0.0774
    1BTD    C7928102   1.486   1.183   6.045  0.9400  0.8226 -0.8414
    1BTD    C8028103   1.423   1.250   6.167  0.1529  0.3052  0.1059
    1BTD    C8128104   1.530   1.327   6.253 -0.2518  0.6118  0.7885
    1BTD    C8228105   1.479   1.468   6.302 -1.1304  0.5808 -0.5247
    2TTP     S128106   1.494   0.781   5.294 -0.1550  0.1809  0.1115
    2TTP     S528107   1.223   1.106   5.373 -0.6285 -0.3193  0.5575
    2TTP     C128108   1.197   1.049   5.202 -0.6831 -0.2512  0.5430
    2TTP     C228109   1.279   0.945   5.168 -0.5401 -0.0926  0.4045
    2TTP     C328110   1.365   0.907   5.275 -0.3822 -0.0194  0.3047
    2TTP     C428111   1.519   0.838   5.465 -0.1003  0.1127  0.1261
    2TTP    C1728112   1.437   0.941   5.500 -0.2433 -0.0457  0.2646
    2TTP    C1828113   1.351   0.980   5.392 -0.4012 -0.1191  0.3643
    2TTP    C3228114   1.304   0.886   5.025  0.6811 -0.2927  0.0056
    2TTP    C3328115   1.288   0.735   5.007  0.2279  0.2831  0.4765
    2TTP    C3428116   1.313   0.655   4.879 -1.0612 -0.6663 -0.3109
    2TTP    C3528117   1.321   0.506   4.913  0.2773 -1.3854 -0.5177
    2TTP    C3628118   1.309   0.438   4.768 -0.9977  0.2259 -0.2987
    2TTP    C3728119   1.295   0.291   4.777 -0.5507  0.9876  0.6634
    2TTP    C3828120   1.185   0.231   4.840  0.2862  0.6346 -0.8039
    2TTP    C3928121   1.184   0.069   4.840 -0.0549  0.0028  2.1620
    2TTP    C4028122   1.140   0.008   4.696 -0.7590  0.3772  0.4670
    2TTP    C4128123   1.232  -0.114   4.671  1.0161 -0.5582 -1.7500
    2TTP    C4228124   1.375  -0.080   4.654  1.0189 -0.4628 -0.5486
    3TTP     S128125   2.061   0.889   5.955 -0.3688  0.2102 -0.1880
    3TTP     S528126   1.853   1.202   6.163  0.2579  0.4557  0.0745
    3TTP     C128127   2.013   1.176   6.244  0.2857  0.1966 -0.0634
    3TTP     C228128   2.087   1.077   6.185  0.0938  0.1056 -0.1527
    3TTP     C328129   2.019   1.019   6.073 -0.0821  0.2371 -0.1152
    3TTP     C428130   1.900   0.915   5.874 -0.3967  0.4693 -0.0502
    3TTP    C1728131   1.827   1.014   5.933 -0.2048  0.5604  0.0391
    3TTP    C1828132   1.894   1.072   6.045 -0.0288  0.4288  0.0018
    3TTP    C3228133   2.224   1.025   6.226 -0.0825 -1.0554 -0.9901
    3TTP    C3328134   2.343   1.006   6.134  1.2048 -0.8257  0.1788
    3TTP    C3428135   2.479   0.977   6.173  0.5439 -0.3911  1.5344
    3TTP    C3528136   2.498   0.834   6.227  1.0219 -0.3126 -0.0724
    3TTP    C3628137   2.588   0.745   6.147  1.4334 -1.7920  0.2506
    3TTP    C3728138   2.645   0.631   6.208 -0.2483  0.4466  0.6216
    3TTP    C3828139   2.675   0.535   6.096  0.2704  1.2218  0.7759
    3TTP    C3928140   2.795   0.541   6.003  0.3301  0.8622 -0.1593
    3TTP    C4028141   2.824   0.681   5.938  0.6418 -0.3640  0.2107
    3TTP    C4128142   2.977   0.705   5.944  1.3857 -0.4850  0.6815
    3TTP    C4228143   3.025   0.718   5.814 -0.2040 -0.5993  0.9819
    4FIC     F128144   0.836   1.786   5.148  0.5176 -0.0283 -0.0626
    4FIC     F228145   0.627   1.662   5.025  0.2441  0.2462  0.1224
    4FIC     O128146   1.177   1.371   5.211  0.0242 -0.4820 -0.3592
    4FIC     N528147   0.570   1.189   4.892 -0.5008  0.3175  0.1773
    4FIC     N628148   0.879   0.889   4.966 -0.8313 -0.0924 -0.0916
    4FIC    C1928149   1.099   1.105   5.116 -0.4124 -0.3809 -0.2877
    4FIC    C2028150   1.021   1.214   5.105 -0.2775 -0.2775 -0.2201
    4FIC    C2128151   1.069   1.347   5.156 -0.0554 -0.3387 -0.2630
    4FIC    C2228152   0.960   1.444   5.128  0.0473 -0.1954 -0.1689
    4FIC    C2328153   0.958   1.580   5.158  0.2537 -0.1914 -0.1684
    4FIC    C2428154   0.845   1.651   5.122  0.3156 -0.0411 -0.0691
    4FIC    C2528155   0.737   1.587   5.058  0.1744  0.1001  0.0261
    4FIC    C2628156   0.739   1.451   5.029 -0.0318  0.0970  0.0261
    4FIC    C2728157   0.853   1.378   5.064 -0.0973 -0.0540 -0.0736
    4FIC    C2828158   0.886   1.234   5.047 -0.3026 -0.0988 -0.1012
    4FIC    C2928159   0.807   1.138   4.989 -0.4815  0.0054 -0.0303
    4FIC    C3028160   0.677   1.166   4.936 -0.4915  0.1766  0.0837
    4FIC    C3128161   0.847   1.002   4.977 -0.6729 -0.0490 -0.0644
    5FIC     F128162   1.809   1.869   6.641 -0.3132 -0.0399 -0.0788
    5FIC     F228163   1.982   1.800   6.839 -0.1660  0.0418 -0.1795
    5FIC     O128164   1.866   1.450   6.304 -0.2085  0.0533 -0.1770
    5FIC     N528165   2.272   1.401   6.883  0.1201  0.2258 -0.3945
    5FIC     N628166   2.282   1.087   6.579  0.1722  0.2822 -0.4511
    5FIC    C1928167   2.052   1.235   6.373 -0.0307  0.1646 -0.3083
    5FIC    C2028168   2.031   1.343   6.450 -0.0629  0.1379 -0.2797
    5FIC    C2128169   1.933   1.449   6.408 -0.1549  0.0807 -0.2120
    5FIC    C2228170   1.935   1.552   6.514 -0.1685  0.0641 -0.1957
    5FIC    C2328171   1.861   1.670   6.519 -0.2437  0.0145 -0.1384
    5FIC    C2428172   1.879   1.751   6.630 -0.2410  0.0081 -0.1342
    5FIC    C2528173   1.968   1.715   6.732 -0.1651  0.0502 -0.1861
    5FIC    C2628174   2.042   1.598   6.727 -0.0898  0.0999 -0.2435
    5FIC    C2728175   2.025   1.514   6.616 -0.0913  0.1071 -0.2487
    5FIC    C2828176   2.088   1.384   6.580 -0.0234  0.1541 -0.3023
    5FIC    C2928177   2.181   1.315   6.655  0.0601  0.2033 -0.3616
    5FIC    C3028178   2.231   1.363   6.780  0.0928  0.2155 -0.3794
    5FIC    C3128179   2.236   1.190   6.613  0.1213  0.2464 -0.4104
    1BTD     S228180   4.015   0.391   7.555 -0.0517 -0.0967  0.1508
    1BTD     N128181   3.942   0.435   7.396 -0.0523  0.1501  0.2185
    1BTD     N228182   3.876   0.289   7.607 -0.1398 -0.0146  0.0769
    1BTD     N328183   3.463   0.160   7.425 -0.3203  0.5985  0.0490
    1BTD     N428184   3.544   0.340   7.166 -0.2123  0.8015  0.2235
    1BTD     C528185   3.734   0.383   7.279 -0.1370  0.4877  0.2189
    1BTD     C628186   3.825   0.374   7.390 -0.1147  0.2746  0.1844
    1BTD     C728187   3.787   0.293   7.508 -0.1638  0.1824  0.1053
    1BTD     C828188   3.661   0.224   7.509 -0.2328  0.3079  0.0644
    1BTD    C1528189   3.575   0.236   7.398 -0.2523  0.5159  0.1006
    1BTD    C1628190   3.611   0.314   7.284 -0.2051  0.6047  0.1768
    1BTD    C4328191   3.402   0.298   7.124  0.3864  0.6721  0.0862
    1BTD    C4428192   3.289   0.395   7.125 -0.1938  0.5210  0.9515
    1BTD    C4528193   3.287   0.500   7.242  0.2480  0.3385 -0.5106
    1BTD    C4628194   3.215   0.631   7.242  0.2587  0.0107 -0.6314
    1BTD    C4728195   3.165   0.299   7.089 -0.0454  1.2462  0.9255
    1BTD    C4828196   3.045   0.372   7.033  0.2538 -1.0822 -0.9984
    1BTD    C4928197   2.896   0.329   7.048 -0.9952 -0.0864  0.1492
    1BTD    C5028198   2.883   0.174   7.054 -1.5212 -0.0265  0.6078
    1BTD    C7528199   3.378   0.078   7.326 -0.6840  0.4058 -1.0848
    1BTD    C7628200   3.416  -0.062   7.270 -0.1297  0.4790 -0.5430
    1BTD    C7728201   3.519  -0.145   7.316 -0.8215 -0.0832  0.0843
    1BTD    C7828202   3.635  -0.122   7.220  0.7248  0.4039  0.2498
    1BTD    C7928203   3.305  -0.134   7.217 -0.0822 -1.3765 -0.5460
    1BTD    C8028204   3.256  -0.077   7.089  0.7642 -0.5081 -0.6039
    1BTD    C8128205   3.187  -0.156   6.974 -0.5289 -1.2400  1.3837
    1BTD    C8228206   3.101  -0.279   7.000 -0.3368 -0.5500 -2.3581
    2TTP     S128207   3.871   0.504   7.030 -0.0267  0.3298  0.4511
    2TTP     S528208   3.511   0.439   6.805 -0.3384 -0.3126  1.1265
    2TTP     C128209   3.636   0.511   6.694 -0.7606  0.1722  0.9568
    2TTP     C228210   3.755   0.535   6.757 -0.6892  0.3991  0.7384
    2TTP     C328211   3.751   0.498   6.895 -0.2986  0.1983  0.6970
    2TTP     C428212   3.746   0.431   7.140  0.3955 -0.1551  0.6210
    2TTP    C1728213   3.628   0.407   7.077  0.3240 -0.3820  0.8394
    2TTP    C1828214   3.631   0.445   6.940 -0.0666 -0.1812  0.8806
    2TTP    C3228215   3.882   0.599   6.710 -0.9762 -0.6593  1.2186
    2TTP    C3328216   3.970   0.689   6.786  0.2446 -1.2284 -0.7526
    2TTP    C3428217   4.099   0.742   6.723 -0.8005  0.8781 -0.5021
    2TTP    C3528218   4.132   0.887   6.687  2.8940 -0.6508 -0.0408
    2TTP    C3628219   4.058   0.994   6.771  1.2990  0.5051  0.1697
    2TTP    C3728220   3.976   1.109   6.711  1.0036 -0.4437  0.3443
    2TTP    C3828221   3.871   1.185   6.789 -0.3679  0.2917  0.8801
    2TTP    C3928222   3.787   1.098   6.876 -0.5211 -0.0068  1.0562
    2TTP    C4028223   3.677   1.141   6.954 -0.2847 -0.0306 -1.3996
    2TTP    C4128224   3.562   1.039   6.926 -0.5879 -0.1766 -1.3504
    2TTP    C4228225   3.467   1.078   6.819  1.1115  0.2127 -1.0833
    3TTP     S128226   3.628   0.067   7.776  0.4427 -0.8361  0.0322
    3TTP     S528227   3.245  -0.066   7.633  0.1016  0.3510 -0.1836
    3TTP     C128228   3.276  -0.142   7.796  0.0123 -0.1594 -0.3999
    3TTP     C228229   3.396  -0.105   7.850  0.1124 -0.5562 -0.3462
    3TTP     C328230   3.468  -0.016   7.764  0.2632 -0.4712 -0.1320
    3TTP     C428231   3.598   0.143   7.614  0.5320 -0.3256  0.2484
    3TTP    C1728232   3.478   0.106   7.560  0.4319  0.0710  0.1947
    3TTP    C1828233   3.405   0.017   7.645  0.2812 -0.0138 -0.0193
    3TTP    C3228234   3.441  -0.141   8.000 -0.5478 -0.4808  0.2107
    3TTP    C3328235   3.430  -0.009   8.094  0.6881  0.6175  0.4182
    3TTP    C3428236   3.327  -0.016   8.213 -0.5794 -0.4190  0.4995
    3TTP    C3528237   3.240   0.112   8.223  0.2618  0.4733 -1.0691
    3TTP    C3628238   3.096   0.052   8.238  0.4429  0.4752 -0.1969
    3TTP    C3728239   2.976   0.133   8.176  0.7625 -0.7791  0.3452
    3TTP    C3828240   2.910   0.063   8.069  0.0366 -1.6569  0.1520
    3TTP    C3928241   2.817   0.157   7.979  0.1265  0.9979 -0.8868
    3TTP    C4028242   2.771   0.151   7.835  0.2319 -1.2977 -1.0453
    3TTP    C4128243   2.722   0.026   7.794 -0.0637  0.5029  1.6819
    3TTP    C4228244   2.648   0.047   7.659  0.8599 -0.5045 -0.9245
    4FIC     F128245   3.195   0.134   6.109  0.2850 -0.1170 -0.1659
    4FIC     F228246   3.231   0.355   5.954 -0.8110  0.3466  0.2257
    4FIC     O128247   3.488   0.266   6.544  0.9073 -0.1193 -0.5813
    4FIC     N528248   3.490   0.767   6.042 -1.9432  1.0115  0.4927
    4FIC     N628249   3.712   0.826   6.413 -1.2359  0.9162  0.0893
    4FIC    C1928250   3.626   0.524   6.551  0.0812  0.3228 -0.3546
    4FIC    C2028251   3.551   0.482   6.448 -0.0325  0.3053 -0.2655
    4FIC    C2128252   3.483   0.348   6.452  0.4144  0.0717 -0.3922
    4FIC    C2228253   3.410   0.334   6.324  0.1512  0.1153 -0.2481
    4FIC    C2328254   3.333   0.227   6.282  0.3999 -0.0479 -0.2940
    4FIC    C2428255   3.273   0.236   6.157  0.0660  0.0349 -0.1315
    4FIC    C2528256   3.292   0.350   6.077 -0.4986  0.2738  0.0700
    4FIC    C2628257   3.369   0.458   6.119 -0.7493  0.4376  0.1169
    4FIC    C2728258   3.430   0.450   6.245 -0.4180  0.3571 -0.0454
    4FIC    C2828259   3.517   0.546   6.318 -0.5534  0.4833 -0.0482
    4FIC    C2928260   3.558   0.669   6.273 -1.0641  0.7200  0.1190
    4FIC    C3028261   3.521   0.722   6.146 -1.5456  0.8795  0.3239
    4FIC    C3128262   3.643   0.754   6.351 -1.1556  0.8266  0.1016
    5FIC     F128263   2.511  -0.448   7.688 -0.1078  0.5672 -0.2352
    5FIC     F228264   2.541  -0.584   7.922 -0.0689  0.1149 -0.5019
    5FIC     O128265   2.987  -0.191   7.657  0.0286  0.3440 -0.0004
    5FIC     N528266   2.924  -0.597   8.235  0.0843 -0.6943 -0.7181
    5FIC     N628267   3.290  -0.369   8.163  0.1832 -0.7775 -0.4807
    5FIC    C1928268   3.185  -0.230   7.869  0.1143 -0.1671 -0.1719
    5FIC    C2028269   3.064  -0.289   7.867  0.0785 -0.0935 -0.2204
    5FIC    C2128270   2.967  -0.264   7.755  0.0355  0.1729 -0.1259
    5FIC    C2228271   2.847  -0.343   7.785  0.0037  0.1886 -0.2115
    5FIC    C2328272   2.730  -0.352   7.709 -0.0405  0.3982 -0.1696
    5FIC    C2428273   2.629  -0.434   7.758 -0.0641  0.3678 -0.2695
    5FIC    C2528274   2.645  -0.504   7.878 -0.0439  0.1345 -0.4069
    5FIC    C2628275   2.761  -0.496   7.954  0.0001 -0.0749 -0.4493
    5FIC    C2728276   2.864  -0.413   7.907  0.0246 -0.0479 -0.3498
    5FIC    C2828277   2.998  -0.383   7.962  0.0713 -0.2306 -0.3606
    5FIC    C2928278   3.052  -0.432   8.079  0.1020 -0.4795 -0.4783
    5FIC    C3028279   2.981  -0.522   8.164  0.0921 -0.5968 -0.6096
    5FIC    C3128280   3.182  -0.397   8.125  0.1466 -0.6418 -0.4790
    1BTD     S228281   3.988  11.068   2.373  0.2382  0.4038 -0.1662
    1BTD     N128282   4.000  10.889   2.369 -0.0697  0.3881 -0.4345
    1BTD     N228283   4.113  11.094   2.245  0.3306  0.3836 -0.0801
    1BTD     N328284   4.387  10.821   1.979 -0.0368  0.3142 -0.3889
    1BTD     N428285   4.247  10.569   2.132 -0.5302  0.3195 -0.8256
    1BTD     C528286   4.131  10.725   2.243 -0.3042  0.3524 -0.6335
    1BTD     C628287   4.091  10.859   2.278 -0.0868  0.3695 -0.4455
    1BTD     C728288   4.154  10.973   2.209  0.1372  0.3669 -0.2471
    1BTD     C828289   4.254  10.948   2.108  0.1328  0.3474 -0.2466
    1BTD    C1528290   4.290  10.815   2.078 -0.0841  0.3310 -0.4344
    1BTD    C1628291   4.229  10.705   2.144 -0.3000  0.3332 -0.6255
    1BTD    C4328292   4.267  10.499   2.009 -0.1849 -0.9110 -0.0783
    1BTD    C4428293   4.185  10.476   1.887  0.8400 -1.2653 -0.9551
    1BTD    C4528294   4.081  10.357   1.900 -0.3593  0.6448  0.3653
    1BTD    C4628295   4.157  10.221   1.869  1.2998 -0.0444 -0.3156
    1BTD    C4728296   4.192  10.580   1.774  0.1225 -0.7629  0.1571
    1BTD    C4828297   4.059  10.643   1.724 -0.0596 -0.0901  1.2071
    1BTD    C4928298   4.030  10.793   1.778 -0.9593  0.4257  0.4339
    1BTD    C5028299   4.102  10.885   1.676 -0.3840  0.0972 -0.0849
    1BTD    C7528300   4.513  10.728   1.987 -1.7709 -0.2747  0.2643
    1BTD    C7628301   4.636  10.752   1.895 -0.6134 -0.2393  0.5142
    1BTD    C7728302   4.659  10.699   1.746  1.0003  1.6055 -1.2892
    1BTD    C7828303   4.621  10.548   1.728 -0.3679 -0.1198  0.5934
    1BTD    C7928304   4.766  10.750   1.985 -1.5269  0.9292  0.7205
    1BTD    C8028305   4.752  10.815   2.120  0.6651  0.8658 -0.7711
    1BTD    C8128306   4.806  10.959   2.123 -0.7448 -0.5369 -0.7501
    1BTD    C8228307   4.734  11.083   2.064  0.9636  0.6140 -0.1193
    2TTP     S128308   3.966  10.514   2.408  0.5910  0.4496  0.9527
    2TTP     S528309   4.216  10.211   2.234 -1.0477 -0.2313 -0.2734
    2TTP     C128310   4.094  10.130   2.342 -0.7564  0.0983  0.3148
    2TTP     C228311   4.009  10.219   2.402 -0.2331  0.3281  0.7280
    2TTP     C328312   4.038  10.354   2.365 -0.0436  0.2518  0.5951
    2TTP     C428313   4.088  10.595   2.300  0.2996  0.1199  0.3645
    2TTP    C1728314   4.173  10.506   2.240 -0.2236 -0.1098 -0.0488
    2TTP    C1828315   4.144  10.371   2.277 -0.4134 -0.0339  0.0842
    2TTP    C3228316   3.883  10.184   2.489  0.5755 -0.9972 -0.6931
    2TTP    C3328317   3.762  10.261   2.465  1.0297 -1.6622  0.1074
    2TTP    C3428318   3.709  10.321   2.594  0.4705 -0.7738 -0.9913
    2TTP    C3528319   3.601  10.428   2.583 -0.9927  0.1851  0.7707
    2TTP    C3628320   3.628  10.560   2.538 -0.9979  0.4395  0.6752
    2TTP    C3728321   3.673  10.658   2.633 -0.0009  0.4118  0.1698
    2TTP    C3828322   3.609  10.670   2.772 -0.4219 -0.0976 -0.2668
    2TTP    C3928323   3.716  10.643   2.871  1.0086 -0.2427 -0.2265
    2TTP    C4028324   3.680  10.516   2.932 -0.7535  1.3557  0.5717
    2TTP    C4128325   3.760  10.441   3.038 -1.1970 -0.4781 -0.7712
    2TTP    C4228326   3.788  10.505   3.168 -1.1710  0.3459  0.4597
    3TTP     S128327   4.295  11.204   1.955  0.1702 -0.0692 -0.3981
    3TTP     S528328   4.480  10.971   1.645  0.0172 -0.3414 -0.2863
    3TTP     C128329   4.446  11.137   1.580 -0.5187 -0.5645 -0.5927
    3TTP     C228330   4.387  11.219   1.672 -0.5027 -0.4936 -0.6453
    3TTP     C328331   4.366  11.153   1.797 -0.0672 -0.2605 -0.4455
    3TTP     C428332   4.329  11.037   2.020  0.7058  0.1538 -0.0917
    3TTP    C1728333   4.388  10.955   1.928  0.6900  0.0828 -0.0390
    3TTP    C1828334   4.409  11.021   1.803  0.2545 -0.1502 -0.2389
    3TTP    C3228335   4.340  11.364   1.656 -0.3764 -1.1109 -0.0221
    3TTP    C3328336   4.437  11.488   1.665  0.0606  0.6396 -1.1636
    3TTP    C3428337   4.423  11.575   1.787  0.4100 -1.4567 -0.2254
    3TTP    C3528338   4.301  11.664   1.785  0.3334 -0.1764  0.6358
    3TTP    C3628339   4.274  11.738   1.918 -0.4099 -0.2795 -0.0262
    3TTP    C3728340   4.254  11.657   2.044  1.0542  2.0171 -0.3063
    3TTP    C3828341   4.240  11.745   2.174 -0.5567 -0.0761  0.5416
    3TTP    C3928342   4.118  11.839   2.196  1.4255 -1.3929 -0.0608
    3TTP    C4028343   3.986  11.760   2.211  0.5548 -0.6011 -0.6885
    3TTP    C4128344   3.874  11.841   2.287  0.4984 -1.0234 -0.0838
    3TTP    C4228345   3.811  11.769   2.408  0.0742 -0.4632  1.4178
    4FIC     F128346   4.417   9.429   2.040  0.7563  0.3471  0.3271
    4FIC     F228347   4.283   9.295   2.236 -0.0087  0.1476 -0.3237
    4FIC     O128348   4.269   9.939   2.145  0.5857  0.2725  0.4486
    4FIC     N528349   3.985   9.466   2.591 -1.2296 -0.1907 -1.1727
    4FIC     N628350   3.896   9.891   2.634 -1.2087 -0.2089 -0.9465
    4FIC    C1928351   4.088   9.992   2.369 -0.2055  0.0562 -0.1299
    4FIC    C2028352   4.131   9.869   2.335 -0.1327  0.0827 -0.1350
    4FIC    C2128353   4.224   9.849   2.218  0.2823  0.1960  0.1726
    4FIC    C2228354   4.250   9.705   2.209  0.2556  0.1965  0.0806
    4FIC    C2328355   4.330   9.638   2.117  0.5636  0.2832  0.2835
    4FIC    C2428356   4.340   9.500   2.128  0.4660  0.2645  0.1408
    4FIC    C2528357   4.270   9.432   2.229  0.0717  0.1622 -0.1946
    4FIC    C2628358   4.190   9.497   2.321 -0.2371  0.0753 -0.3984
    4FIC    C2728359   4.179   9.637   2.312 -0.1441  0.0923 -0.2583
    4FIC    C2828360   4.103   9.735   2.393 -0.3984  0.0186 -0.4042
    4FIC    C2928361   4.023   9.707   2.501 -0.8026 -0.0892 -0.7271
    4FIC    C3028362   4.002   9.575   2.550 -1.0359 -0.1447 -0.9710
    4FIC    C3128363   3.953   9.809   2.573 -1.0237 -0.1543 -0.8458
    5FIC     F128364   4.741  10.825   0.877  0.0800 -0.2003  0.3244
    5FIC     F228365   4.716  11.071   0.765  0.1332 -0.2827  0.1310
    5FIC     O128366   4.557  10.921   1.377 -0.4802  0.0882  0.0644
    5FIC     N528367   4.548  11.494   0.960 -0.1894 -0.1956 -0.3323
    5FIC     N628368   4.409  11.520   1.373 -0.6377  0.0464 -0.4965
    5FIC    C1928369   4.467  11.191   1.447 -0.6280  0.1118 -0.2127
    5FIC    C2028370   4.514  11.157   1.326 -0.4894  0.0425 -0.1397
    5FIC    C2128371   4.559  11.016   1.297 -0.4208  0.0350  0.0022
    5FIC    C2228372   4.604  11.014   1.157 -0.2705 -0.0477  0.0517
    5FIC    C2328373   4.654  10.905   1.086 -0.1647 -0.0827  0.1779
    5FIC    C2428374   4.691  10.928   0.954 -0.0298 -0.1618  0.2018
    5FIC    C2528375   4.678  11.055   0.896 -0.0028 -0.2042  0.1020
    5FIC    C2628376   4.628  11.163   0.967 -0.1076 -0.1696 -0.0241
    5FIC    C2728377   4.590  11.143   1.101 -0.2449 -0.0895 -0.0502
    5FIC    C2828378   4.535  11.236   1.202 -0.3783 -0.0358 -0.1718
    5FIC    C2928379   4.507  11.369   1.184 -0.3954 -0.0550 -0.2912
    5FIC    C3028380   4.530  11.438   1.061 -0.2820 -0.1322 -0.3134
    5FIC    C3128381   4.454  11.451   1.288 -0.5287  0.0009 -0.4034
    1BTD     S228382   9.271   6.733   9.261  0.4446 -0.1773 -0.0365
    1BTD     N128383   9.127   6.797   9.346  0.2136  0.0865 -0.6120
    1BTD     N228384   9.375   6.874   9.300  0.6235 -0.4671  0.5653
    1BTD     N328385   9.326   7.278   9.534  0.5705 -0.5815  0.7524
    1BTD     N428386   9.020   7.183   9.591  0.0663  0.1006 -0.6979
    1BTD     C528387   9.074   7.000   9.473  0.1428  0.0856 -0.6394
    1BTD     C628388   9.161   6.914   9.397  0.2785 -0.0483 -0.3400
    1BTD     C728389   9.300   6.958   9.371  0.5076 -0.3580  0.3190
    1BTD     C828390   9.346   7.084   9.422  0.5898 -0.5186  0.6459
    1BTD    C1528391   9.257   7.164   9.497  0.4509 -0.3786  0.3336
    1BTD    C1628392   9.123   7.122   9.522  0.2298 -0.0802 -0.3013
    1BTD    C4328393   9.019   7.268   9.719 -1.3713 -0.7591  0.7946
    1BTD    C4428394   8.979   7.232   9.861 -0.8756 -0.4988  0.2293
    1BTD    C4528395   9.079   7.117   9.906  0.8981  0.2740 -0.5256
    1BTD    C4628396   9.230   7.146   9.911 -0.7706 -0.8468  0.3014
    1BTD    C4728397   8.980   7.365   9.935  1.1686 -0.4885  0.9756
    1BTD    C4828398   8.891   7.344  10.064 -0.3141 -1.2035 -1.2396
    1BTD    C4928399   8.876   7.477  10.140  1.1993  0.4032  0.3431
    1BTD    C5028400   8.768   7.495  10.252  1.0434  0.4120 -0.4634
    1BTD    C7528401   9.270   7.422   9.549 -0.2697  0.8237  0.3144
    1BTD    C7628402   9.337   7.542   9.607 -1.5740 -0.9086  0.8672
    1BTD    C7728403   9.327   7.541   9.765 -0.2277  1.3451  1.5591
    1BTD    C7828404   9.407   7.628   9.845 -0.2593  0.3998 -0.2090
    1BTD    C7928405   9.298   7.670   9.526 -1.4214  0.0742 -0.3905
    1BTD    C8028406   9.172   7.744   9.536 -1.2241 -0.2210 -0.2258
    1BTD    C8128407   9.178   7.845   9.433  0.7895  0.3411  0.5028
    1BTD    C8228408   9.144   7.993   9.463  0.2025 -0.2928 -1.7145
    2TTP     S128409   8.779   6.888   9.503 -0.7713  0.1838 -0.7782
    2TTP     S528410   8.683   7.264   9.690  0.3967 -0.0273  0.2699
    2TTP     C128411   8.529   7.170   9.668  0.1403  0.3793  0.2940
    2TTP     C228412   8.550   7.048   9.609 -0.2348  0.4684 -0.0281
    2TTP     C328413   8.688   7.025   9.579 -0.3345  0.2189 -0.3059
    2TTP     C428414   8.933   6.983   9.525 -0.5152 -0.2228 -0.8023
    2TTP    C1728415   8.912   7.104   9.584 -0.1393 -0.3119 -0.4799
    2TTP    C1828416   8.774   7.127   9.614 -0.0405 -0.0622 -0.2027
    2TTP    C3228417   8.438   6.941   9.601  0.0125 -0.1774 -0.0406
    2TTP    C3328418   8.376   6.873   9.719 -0.0960  0.7587 -1.2590
    2TTP    C3428419   8.306   6.725   9.713  1.6286 -1.2536  0.2639
    2TTP    C3528420   8.396   6.604   9.675  1.3187 -0.1765 -0.5933
    2TTP    C3628421   8.345   6.454   9.684  0.3399 -0.0571  1.3416
    2TTP    C3728422   8.334   6.372   9.813  0.0478  1.2711  0.5831
    2TTP    C3828423   8.233   6.396   9.932 -0.5292 -0.3615  0.9631
    2TTP    C3928424   8.306   6.447  10.064  0.4582  0.7951  0.4310
    2TTP    C4028425   8.388   6.566  10.067 -0.3384 -1.1841 -0.7687
    2TTP    C4128426   8.503   6.565  10.169  0.1244 -0.9291  0.6005
    2TTP    C4228427   8.643   6.586  10.115  1.0147 -1.0762  0.7110
    3TTP     S128428   9.631   7.052   9.452  0.2597 -0.3750  0.1337
    3TTP     S528429   9.613   7.353   9.758  0.4392  0.2289 -0.4442
    3TTP     C128430   9.765   7.256   9.781  0.1880 -0.0749 -0.0220
    3TTP     C228431   9.780   7.158   9.688  0.1175 -0.2792  0.1814
    3TTP     C328432   9.671   7.155   9.595  0.2599 -0.2033  0.0112
    3TTP     C428433   9.478   7.149   9.429  0.5109 -0.0713 -0.2887
    3TTP    C1728434   9.464   7.248   9.523  0.5813  0.1330 -0.4920
    3TTP    C1828435   9.573   7.250   9.615  0.4392  0.0572 -0.3219
    3TTP    C3228436   9.884   7.040   9.673  0.0919 -0.5642 -1.4089
    3TTP    C3328437   9.985   7.016   9.552 -0.4001  1.0598 -0.1973
    3TTP    C3428438   9.980   6.899   9.438  0.8696 -1.3219 -1.1425
    3TTP    C3528439  10.029   6.757   9.495 -0.1555  0.1919 -1.0131
    3TTP    C3628440   9.920   6.661   9.504  1.5834  0.4399  0.7721
    3TTP    C3728441   9.811   6.686   9.601  0.1194  1.3883  0.1864
    3TTP    C3828442   9.830   6.628   9.741  0.2737 -0.2950 -0.1137
    3TTP    C3928443   9.702   6.618   9.838 -0.6716 -0.0449  0.4227
    3TTP    C4028444   9.733   6.583   9.993 -0.1572 -0.7050  1.2245
    3TTP    C4128445   9.615   6.503  10.066  0.8363 -0.2638  0.0508
    3TTP    C4228446   9.478   6.563  10.073 -1.0933 -1.6750  1.0330
    4FIC     F128447   8.343   7.530  10.379  1.0228  0.4393 -0.2265
    4FIC     F228448   8.101   7.599  10.275  0.5898 -0.1268  0.3886
    4FIC     O128449   8.556   7.253   9.965  0.4170  0.5193 -0.5951
    4FIC     N528450   7.905   7.502   9.831 -0.4653 -0.8836  1.0104
    4FIC     N628451   8.120   7.272   9.529 -0.8516 -0.7071  0.5987
    4FIC    C1928452   8.401   7.221   9.719 -0.2124  0.0068 -0.1384
    4FIC    C2028453   8.356   7.288   9.827 -0.0434  0.0087 -0.0696
    4FIC    C2128454   8.442   7.300   9.950  0.2792  0.2807 -0.3171
    4FIC    C2228455   8.364   7.378  10.048  0.3963  0.2077 -0.1647
    4FIC    C2328456   8.402   7.415  10.177  0.6845  0.3898 -0.2997
    4FIC    C2428457   8.312   7.490  10.251  0.7430  0.2715 -0.1080
    4FIC    C2528458   8.187   7.525  10.197  0.5193 -0.0204  0.2090
    4FIC    C2628459   8.149   7.489  10.069  0.2315 -0.2034  0.3455
    4FIC    C2728460   8.239   7.414   9.992  0.1681 -0.0874  0.1550
    4FIC    C2828461   8.229   7.359   9.854 -0.1113 -0.2211  0.2258
    4FIC    C2928462   8.123   7.373   9.768 -0.3808 -0.5039  0.5112
    4FIC    C3028463   8.003   7.444   9.803 -0.4261 -0.7117  0.7846
    4FIC    C3128464   8.122   7.317   9.637 -0.6380 -0.6143  0.5577
    5FIC     F128465   9.735   7.611  10.523 -0.1523  0.2221 -0.2701
    5FIC     F228466   9.991   7.528  10.566 -0.5140 -0.7113  0.1304
    5FIC     O128467   9.648   7.421  10.023  0.1619  1.1418 -0.6800
    5FIC     N528468  10.297   7.273  10.272 -0.8097 -1.3977  0.4144
    5FIC     N628469  10.177   7.141   9.873 -0.4911 -0.4908  0.0131
    5FIC    C1928470   9.862   7.274   9.887 -0.0714  0.5768 -0.4429
    5FIC    C2028471   9.874   7.325  10.011 -0.1369  0.3818 -0.3557
    5FIC    C2128472   9.759   7.399  10.074 -0.0079  0.6961 -0.4878
    5FIC    C2228473   9.806   7.441  10.208 -0.1230  0.3707 -0.3443
    5FIC    C2328474   9.735   7.513  10.304 -0.0653  0.4957 -0.3943
    5FIC    C2428475   9.800   7.541  10.423 -0.2001  0.1240 -0.2315
    5FIC    C2528476   9.931   7.498  10.445 -0.3858 -0.3565 -0.0254
    5FIC    C2628477  10.003   7.426  10.350 -0.4447 -0.4836  0.0262
    5FIC    C2728478   9.939   7.397  10.229 -0.3102 -0.1124 -0.1369
    5FIC    C2828479   9.986   7.324  10.108 -0.3264 -0.1249 -0.1354
    5FIC    C2928480  10.109   7.267  10.091 -0.4859 -0.5287  0.0365
    5FIC    C3028481  10.212   7.271  10.190 -0.6635 -1.0051  0.2437
    5FIC    C3128482  10.146   7.198   9.971 -0.4883 -0.5054  0.0226
    1BTD     S228483  10.733   5.327   2.318 -0.0148  0.0410  0.0213
    1BTD     N128484  10.580   5.359   2.229  0.1605 -0.3092 -0.4127
    1BTD     N228485  10.664   5.194   2.418 -0.2403  0.5049  0.4892
    1BTD     N328486  10.248   4.982   2.462 -0.3827  0.8174  0.6592
    1BTD     N428487  10.144   5.184   2.229  0.1109 -0.1857 -0.4521
    1BTD     C528488  10.353   5.265   2.232  0.1285 -0.2325 -0.4199
    1BTD     C628489  10.490   5.273   2.276  0.0479 -0.0746 -0.1976
    1BTD     C728490  10.537   5.181   2.382 -0.1762  0.3810  0.3073
    1BTD     C828491  10.445   5.086   2.438 -0.3083  0.6558  0.5646
    1BTD    C1528492  10.313   5.081   2.392 -0.2226  0.4872  0.3324
    1BTD    C1628493  10.267   5.170   2.290 -0.0066  0.0481 -0.1541
    1BTD    C4328494  10.024   5.124   2.290  0.9230 -0.5514  0.8157
    1BTD    C4428495   9.873   5.201   2.292 -1.2790 -0.5244  1.0032
    1BTD    C4528496   9.786   5.122   2.384 -1.0107  0.6987 -0.3444
    1BTD    C4628497   9.820   5.096   2.540 -0.0333 -0.0481 -0.7398
    1BTD    C4728498   9.880   5.354   2.315 -1.5767  0.2516  0.3169
    1BTD    C4828499   9.774   5.463   2.273  0.2593  0.0782 -1.5377
    1BTD    C4928500   9.814   5.600   2.204  0.2304  0.4043  0.7247
    1BTD    C5028501   9.762   5.713   2.280  0.2201  0.0406 -1.6250
    1BTD    C7528502  10.165   4.866   2.441  0.0692  0.3745  0.0777
    1BTD    C7628503  10.140   4.803   2.294 -1.4020 -0.0978  0.2925
    1BTD    C7728504  10.037   4.696   2.274  1.4458  1.1499  0.1734
    1BTD    C7828505   9.899   4.717   2.328  1.0709 -0.2376 -1.1133
    1BTD    C7928506  10.250   4.800   2.181 -0.2572 -0.2807  0.7998
    1BTD    C8028507  10.383   4.729   2.201  0.7518 -0.6620  0.0623
    1BTD    C8128508  10.370   4.585   2.158 -1.2023 -0.2454  0.6927
    1BTD    C8228509  10.516   4.533   2.206 -0.3444 -1.1143  1.0652
    2TTP     S128510  10.281   5.479   2.009 -0.0495 -0.1336 -0.3252
    2TTP     S528511   9.909   5.266   1.973 -0.0334 -0.2408  0.1327
    2TTP     C128512   9.911   5.400   1.850 -0.0291 -0.5247 -0.1801
    2TTP     C228513  10.026   5.474   1.854 -0.0336 -0.5084 -0.3399
    2TTP     C328514  10.116   5.427   1.954 -0.0410 -0.2710 -0.2211
    2TTP     C428515  10.279   5.345   2.132 -0.0541  0.1503 -0.0124
    2TTP    C1728516  10.164   5.271   2.128 -0.0492  0.1340  0.1474
    2TTP    C1828517  10.073   5.318   2.028 -0.0417 -0.1034  0.0286
    2TTP    C3228518  10.055   5.616   1.813  0.8624 -1.2733  0.7758
    2TTP    C3328519  10.029   5.735   1.907  0.4022  0.2863  0.4018
    2TTP    C3428520  10.010   5.864   1.837 -0.4764 -0.3219 -0.2135
    2TTP    C3528521   9.925   5.891   1.709 -0.3709 -0.2363  0.0081
    2TTP    C3628522   9.938   6.024   1.659  0.4675 -0.5012  1.8337
    2TTP    C3728523   9.929   6.010   1.500  0.9877 -0.0267 -0.2531
    2TTP    C3828524   9.833   5.948   1.399  0.9156  1.2691 -0.7421
    2TTP    C3928525   9.687   5.983   1.440 -0.4585  0.3428  0.6049
    2TTP    C4028526   9.647   6.127   1.393 -0.0871  1.1114 -0.3024
    2TTP    C4128527   9.507   6.177   1.418  1.0658  0.1611 -1.1931
    2TTP    C4228528   9.453   6.263   1.299  1.4822  0.1451  0.3202
    3TTP     S128529  10.586   4.964   2.666  0.2422 -0.0543  0.1776
    3TTP     S528530  10.191   4.886   2.818 -0.0107  0.4579 -0.2092
    3TTP     C128531  10.310   4.877   2.956 -0.1431  0.1955 -0.1119
    3TTP     C228532  10.438   4.901   2.917 -0.0725  0.0221  0.0133
    3TTP     C328533  10.448   4.927   2.777  0.0882  0.0898  0.0370
    3TTP     C428534  10.468   4.973   2.528  0.3746  0.2079  0.0802
    3TTP    C1728535  10.339   4.950   2.567  0.3041  0.3815 -0.0449
    3TTP    C1828536  10.329   4.924   2.707  0.1433  0.3138 -0.0684
    3TTP    C3228537  10.573   4.898   2.995  1.0897 -0.8618 -0.8416
    3TTP    C3328538  10.687   4.796   2.969  0.0609  0.0166 -0.5563
    3TTP    C3428539  10.692   4.646   2.978 -0.9864 -0.6346 -0.2144
    3TTP    C3528540  10.595   4.550   2.909 -0.6965  0.5235 -0.4553
    3TTP    C3628541  10.581   4.542   2.761 -0.7634  0.1399 -1.1448
    3TTP    C3728542  10.692   4.472   2.684  1.0401  0.9504 -0.0702
    3TTP    C3828543  10.832   4.459   2.725 -0.5822  0.6861 -1.4108
    3TTP    C3928544  10.877   4.338   2.804 -0.0750  0.3209  0.6002
    3TTP    C4028545  11.004   4.354   2.881 -0.3251 -0.0169  0.2268
    3TTP    C4128546  11.106   4.248   2.841  0.2352  0.0612  1.6115
    3TTP    C4228547  11.242   4.289   2.881 -0.6025 -0.4963  0.4216
    4FIC     F128548   9.093   5.454   1.888  0.2270  0.1581 -0.0921
    4FIC     F228549   9.091   5.490   1.618  0.3884  0.3757 -0.0654
    4FIC     O128550   9.625   5.418   1.983  0.1712  0.0901  0.1976
    4FIC     N528551   9.468   5.514   1.298  0.5808  0.6399  0.1793
    4FIC     N628552   9.883   5.479   1.426  0.5050  0.5429  0.4002
    4FIC    C1928553   9.812   5.439   1.759  0.3056  0.2737  0.3259
    4FIC    C2028554   9.678   5.447   1.745  0.3135  0.2824  0.2520
    4FIC    C2128555   9.589   5.435   1.865  0.2415  0.1843  0.1892
    4FIC    C2228556   9.451   5.448   1.816  0.2708  0.2221  0.1165
    4FIC    C2328557   9.333   5.443   1.890  0.2260  0.1603  0.0426
    4FIC    C2428558   9.213   5.458   1.821  0.2673  0.2142 -0.0175
    4FIC    C2528559   9.213   5.476   1.682  0.3503  0.3263 -0.0037
    4FIC    C2628560   9.330   5.480   1.607  0.3953  0.3884  0.0699
    4FIC    C2728561   9.452   5.466   1.675  0.3550  0.3351  0.1315
    4FIC    C2828562   9.592   5.466   1.626  0.3843  0.3767  0.2153
    4FIC    C2928563   9.633   5.481   1.496  0.4625  0.4824  0.2519
    4FIC    C3028564   9.542   5.499   1.387  0.5274  0.5686  0.2119
    4FIC    C3128565   9.770   5.480   1.458  0.4854  0.5151  0.3333
    5FIC     F128566   9.655   4.579   3.368 -0.0012  0.2519  0.0586
    5FIC     F228567   9.793   4.621   3.599  0.3481 -0.2114 -0.0628
    5FIC     O128568  10.015   4.753   3.003 -0.3757  0.5591 -0.1662
    5FIC     N528569  10.247   4.804   3.671  0.5832 -0.6588 -0.3972
    5FIC     N628570  10.500   4.931   3.339  0.2201 -0.3253 -0.5485
    5FIC    C1928571  10.274   4.854   3.094 -0.1751  0.2257 -0.3619
    5FIC    C2028572  10.179   4.808   3.177 -0.0944  0.1664 -0.3006
    5FIC    C2128573  10.048   4.758   3.122 -0.2069  0.3479 -0.2010
    5FIC    C2228574   9.967   4.717   3.239 -0.0772  0.2252 -0.1540
    5FIC    C2328575   9.839   4.664   3.238 -0.1173  0.3204 -0.0611
    5FIC    C2428576   9.782   4.632   3.361  0.0284  0.1693 -0.0323
    5FIC    C2528577   9.853   4.654   3.480  0.2084 -0.0693 -0.0949
    5FIC    C2628578   9.982   4.707   3.481  0.2494 -0.1656 -0.1876
    5FIC    C2728579  10.040   4.739   3.358  0.1035 -0.0154 -0.2182
    5FIC    C2828580  10.173   4.796   3.324  0.0999 -0.0609 -0.3107
    5FIC    C2928581  10.272   4.831   3.414  0.2484 -0.2733 -0.3906
    5FIC    C3028582  10.258   4.816   3.555  0.4320 -0.4845 -0.3939
    5FIC    C3128583  10.397   4.886   3.372  0.2322 -0.3008 -0.4770
    1BTD     S228584   0.267   7.480   5.663 -0.3738  0.0543 -0.2151
    1BTD     N128585   0.361   7.350   5.582 -0.2915  0.1521 -0.2764
    1BTD     N228586   0.146   7.495   5.531 -0.4603 -0.0525 -0.1487
    1BTD     N328587   0.070   7.290   5.115 -0.4881 -0.0931 -0.1236
    1BTD     N428588   0.335   7.112   5.178 -0.2800  0.1590 -0.2811
    1BTD     C528589   0.344   7.228   5.371 -0.2880  0.1526 -0.2770
    1BTD     C628590   0.301   7.325   5.467 -0.3307  0.1026 -0.2457
    1BTD     C728591   0.181   7.406   5.438 -0.4252 -0.0114 -0.1742
    1BTD     C828592   0.110   7.386   5.315 -0.4723 -0.0706 -0.1374
    1BTD    C1528593   0.156   7.289   5.223 -0.4278 -0.0183 -0.1700
    1BTD    C1628594   0.272   7.211   5.251 -0.3367  0.0917 -0.2391
    1BTD    C4328595   0.358   7.094   5.034 -1.4239  0.8498 -0.2657
    1BTD    C4428596   0.448   7.195   4.972 -0.0068 -0.6681  0.2974
    1BTD    C4528597   0.393   7.347   4.965  0.7550  0.2316  0.4058
    1BTD    C4628598   0.391   7.444   5.083  0.4148 -0.5061  1.2519
    1BTD    C4728599   0.589   7.150   4.955 -0.6093  0.0244  1.1278
    1BTD    C4828600   0.681   7.189   4.836 -0.4962  0.3971 -0.0897
    1BTD    C4928601   0.831   7.201   4.878 -0.0625 -0.3350 -0.9516
    1BTD    C5028602   0.873   7.066   4.937  0.2512  1.8838 -0.4642
    1BTD    C7528603   0.044   7.176   5.015  0.1720  0.3409  0.1349
    1BTD    C7628604  -0.049   7.061   5.044 -0.5375 -1.0640 -1.8066
    1BTD    C7728605  -0.188   7.079   4.991  0.1971  0.5473 -0.2891
    1BTD    C7828606  -0.211   7.082   4.840 -0.5745 -0.4258  0.4291
    1BTD    C7928607  -0.007   6.919   5.060  1.0950 -0.2880  0.9237
    1BTD    C8028608   0.048   6.837   4.936 -0.4235 -1.4704 -0.4512
    1BTD    C8128609   0.105   6.703   4.980 -0.7933 -0.2053 -1.0983
    1BTD    C8228610   0.198   6.636   4.874 -0.4131 -0.0578 -0.0500
    2TTP     S128611   0.580   7.067   5.484 -0.0671 -0.3242  0.3151
    2TTP     S528612   0.531   6.797   5.152  0.0439 -0.0839  0.1024
    2TTP     C128613   0.645   6.722   5.272  0.3847  0.0376 -0.1423
    2TTP     C228614   0.666   6.800   5.382  0.3704 -0.0297 -0.0907
    2TTP     C328615   0.594   6.923   5.375  0.0900 -0.1793  0.1434
    2TTP     C428616   0.466   7.143   5.364 -0.4078 -0.4456  0.5598
    2TTP    C1728617   0.444   7.064   5.255 -0.3936 -0.3785  0.5082
    2TTP    C1828618   0.516   6.941   5.261 -0.1131 -0.2289  0.2739
    2TTP    C3228619   0.760   6.786   5.494 -0.3287  0.1800 -0.9833
    2TTP    C3328620   0.911   6.823   5.441  0.2552 -0.0652 -0.6738
    2TTP    C3428621   1.020   6.837   5.533  0.3184  0.6590 -0.4984
    2TTP    C3528622   1.147   6.910   5.499 -0.3991  0.2523 -0.6179
    2TTP    C3628623   1.210   6.889   5.363 -0.6685  0.9310  0.4499
    2TTP    C3728624   1.233   6.738   5.305 -0.2265 -0.9266  1.0106
    2TTP    C3828625   1.333   6.674   5.390  0.1710  0.3194 -0.7666
    2TTP    C3928626   1.485   6.711   5.403 -0.1402  0.3230  0.3860
    2TTP    C4028627   1.517   6.832   5.468 -0.9021 -0.4968  0.2933
    2TTP    C4128628   1.506   6.872   5.617  0.6281 -0.1203 -0.1525
    2TTP    C4228629   1.574   6.782   5.729  1.0106  0.7629  0.1536
    3TTP     S128630  -0.066   7.598   5.300  0.5438  0.5404  0.2945
    3TTP     S528631  -0.097   7.529   4.876  0.0625 -0.6634  0.5170
    3TTP     C128632  -0.147   7.701   4.911  0.4781 -0.4426  0.0424
    3TTP     C228633  -0.140   7.732   5.044  0.6511 -0.0579 -0.0544
    3TTP     C328634  -0.096   7.622   5.123  0.4618  0.0765  0.2431
    3TTP     C428635  -0.017   7.426   5.265  0.1283  0.3196  0.7693
    3TTP    C1728636  -0.023   7.395   5.132 -0.0448 -0.0650  0.8660
    3TTP    C1828637  -0.068   7.506   5.053  0.1444 -0.1994  0.5686
    3TTP    C3228638  -0.168   7.876   5.099 -0.2848  0.8574 -0.5555
    3TTP    C3328639  -0.042   7.944   5.146 -0.3682 -0.2295  0.2443
    3TTP    C3428640  -0.072   8.004   5.276  1.5584  0.2344  0.4263
    3TTP    C3528641  -0.025   7.952   5.414 -0.0550  1.0607  0.2509
    3TTP    C3628642   0.126   7.914   5.403  0.5881  0.5860  0.6048
    3TTP    C3728643   0.223   7.838   5.506  0.7875  0.0753 -0.1430
    3TTP    C3828644   0.259   7.927   5.614  0.2730  0.5140 -0.6279
    3TTP    C3928645   0.379   8.011   5.599  0.4164 -0.9744 -0.1860
    3TTP    C4028646   0.386   8.060   5.739  0.4219 -0.1003 -0.5680
    3TTP    C4128647   0.452   8.192   5.762  0.9790 -0.7999 -1.5447
    3TTP    C4228648   0.586   8.234   5.707 -0.9082 -0.2516 -0.0627
    4FIC     F128649   0.672   6.187   4.650  0.4631 -0.4299  0.0526
    4FIC     F228650   0.762   5.998   4.824 -0.5924 -0.4251  0.6239
    4FIC     O128651   0.633   6.617   4.977  1.0353  0.2842 -0.8112
    4FIC     N528652   0.865   6.033   5.307 -1.7022  0.0910  0.8296
    4FIC     N628653   0.817   6.408   5.527 -1.0424  0.6479  0.0392
    4FIC    C1928654   0.706   6.590   5.259  0.2300  0.5426 -0.5723
    4FIC    C2028655   0.712   6.489   5.170  0.1273  0.3626 -0.3773
    4FIC    C2128656   0.673   6.511   5.027  0.5624  0.2384 -0.5183
    4FIC    C2228657   0.691   6.382   4.958  0.3160  0.0535 -0.2410
    4FIC    C2328658   0.668   6.353   4.824  0.5616 -0.1072 -0.2507
    4FIC    C2428659   0.693   6.223   4.782  0.2460 -0.2660  0.0442
    4FIC    C2528660   0.739   6.126   4.871 -0.2977 -0.2632  0.3381
    4FIC    C2628661   0.763   6.154   5.005 -0.5452 -0.1036  0.3495
    4FIC    C2728662   0.738   6.285   5.050 -0.2324  0.0588  0.0535
    4FIC    C2828663   0.753   6.347   5.184 -0.3699  0.2490 -0.0185
    4FIC    C2928664   0.796   6.284   5.299 -0.8639  0.3082  0.2048
    4FIC    C3028665   0.834   6.147   5.303 -1.3231  0.1886  0.5475
    4FIC    C3128666   0.807   6.353   5.424 -0.9592  0.4947  0.1125
    5FIC     F128667   0.009   7.797   4.110  0.1097 -0.4749  0.1119
    5FIC     F228668  -0.180   7.993   4.105  0.3643 -0.2334 -0.1258
    5FIC     O128669   0.004   7.663   4.635 -0.7508 -0.5013  0.0986
    5FIC     N528670  -0.456   8.179   4.471  0.1163  0.0944 -0.4777
    5FIC     N628671  -0.422   8.034   4.882 -0.6073  0.0253 -0.4400
    5FIC    C1928672  -0.179   7.803   4.816 -0.8135 -0.2801 -0.1335
    5FIC    C2028673  -0.170   7.829   4.684 -0.6070 -0.2829 -0.1208
    5FIC    C2128674  -0.074   7.753   4.597 -0.5884 -0.4002  0.0014
    5FIC    C2228675  -0.090   7.806   4.461 -0.3414 -0.3710 -0.0170
    5FIC    C2328676  -0.022   7.766   4.346 -0.2396 -0.4504  0.0700
    5FIC    C2428677  -0.054   7.831   4.227 -0.0017 -0.4017  0.0307
    5FIC    C2528678  -0.152   7.932   4.225  0.1286 -0.2770 -0.0918
    5FIC    C2628679  -0.220   7.971   4.339  0.0286 -0.1975 -0.1792
    5FIC    C2728680  -0.189   7.907   4.460 -0.2122 -0.2451 -0.1413
    5FIC    C2828681  -0.242   7.925   4.597 -0.3700 -0.1861 -0.2098
    5FIC    C2928682  -0.339   8.015   4.636 -0.3085 -0.0648 -0.3327
    5FIC    C3028683  -0.403   8.104   4.545 -0.0749  0.0224 -0.4119
    5FIC    C3128684  -0.384   8.025   4.771 -0.4733 -0.0160 -0.3910
    1BTD     S228685   4.197   2.930   8.604 -0.1298  0.2654  0.2476
    1BTD     N128686   4.224   2.850   8.445 -0.8733  0.4525  0.0196
    1BTD     N228687   4.147   2.779   8.688  0.7864  0.0662  0.4585
    1BTD     N328688   4.093   2.327   8.572  1.3111 -0.0018  0.4771
    1BTD     N428689   4.188   2.415   8.273 -0.7341  0.4742 -0.0634
    1BTD     C528690   4.204   2.622   8.359 -0.7761  0.4581 -0.0172
    1BTD     C628691   4.196   2.721   8.462 -0.4237  0.3616  0.1080
    1BTD     C728692   4.152   2.682   8.598  0.5054  0.1454  0.3536
    1BTD     C828693   4.120   2.544   8.624  1.0358  0.0365  0.4613
    1BTD    C1528694   4.130   2.450   8.520  0.6626  0.1371  0.3324
    1BTD    C1628695   4.171   2.488   8.389 -0.2325  0.3455  0.0954
    1BTD    C4328696   4.123   2.298   8.214 -0.4293  1.9513 -1.0164
    1BTD    C4428697   3.994   2.283   8.143 -0.2385  0.2527  0.7889
    1BTD    C4528698   3.986   2.154   8.057  0.5089 -0.8410  1.1273
    1BTD    C4628699   3.957   2.017   8.125  1.4714  0.5647  0.0990
    1BTD    C4728700   3.870   2.348   8.194  0.8481  0.6145  0.3939
    1BTD    C4828701   3.845   2.503   8.210  1.9195 -0.0467  0.0975
    1BTD    C4928702   3.812   2.570   8.073  0.3643  0.5593  0.6607
    1BTD    C5028703   3.838   2.706   8.085 -0.7041  0.3115 -0.5219
    1BTD    C7528704   4.102   2.188   8.517  0.5552 -0.3813  1.5971
    1BTD    C7628705   4.162   2.061   8.592 -0.6423 -0.6034  1.6020
    1BTD    C7728706   4.300   2.103   8.631 -0.5780 -0.7578 -1.4371
    1BTD    C7828707   4.353   2.086   8.774  0.9837 -0.0988  0.2082
    1BTD    C7928708   4.144   1.930   8.537 -0.1938  0.9686  0.8525
    1BTD    C8028709   4.192   1.888   8.387 -0.4476 -1.2242  0.2815
    1BTD    C8128710   4.300   1.960   8.312 -1.9025  0.5966 -0.2570
    1BTD    C8228711   4.437   1.878   8.293 -1.2172 -0.5532 -0.5919
    2TTP     S128712   4.302   2.742   8.105  0.0254  0.0696  0.0193
    2TTP     S528713   4.296   2.348   7.932  0.3480  0.1813 -0.2474
    2TTP     C128714   4.338   2.468   7.801  0.0275  0.3302 -0.2165
    2TTP     C228715   4.343   2.596   7.847 -0.0910  0.3045 -0.1322
    2TTP     C328716   4.312   2.605   7.987  0.0671  0.1663 -0.0892
    2TTP     C428717   4.259   2.622   8.235  0.3458 -0.0792 -0.0112
    2TTP    C1728718   4.255   2.493   8.189  0.4644 -0.0535 -0.0955
    2TTP    C1828719   4.285   2.485   8.049  0.3062  0.0846 -0.1390
    2TTP    C3228720   4.405   2.717   7.780  0.2388 -0.4669  1.8742
    2TTP    C3328721   4.567   2.702   7.755  0.2062  0.2072  0.5277
    2TTP    C3428722   4.651   2.734   7.624  0.9700  0.2920  0.3950
    2TTP    C3528723   4.796   2.693   7.618 -0.3551 -0.4274  0.1818
    2TTP    C3628724   4.837   2.670   7.483 -0.2318  0.2952  0.9065
    2TTP    C3728725   4.941   2.572   7.452 -1.6646  0.8371 -0.4318
    2TTP    C3828726   5.041   2.526   7.560 -0.1899  0.1001  0.6384
    2TTP    C3928727   5.192   2.548   7.529  1.3620  0.8629  0.9098
    2TTP    C4028728   5.297   2.499   7.634 -0.2092  0.1834 -0.4756
    2TTP    C4128729   5.263   2.369   7.710 -0.5953 -0.2721  0.1220
    2TTP    C4228730   5.391   2.272   7.740 -0.2736 -0.6405  0.5643
    3TTP     S128731   4.027   2.504   8.911  0.1274 -0.1734 -0.3619
    3TTP     S528732   3.935   2.093   8.821  0.0831 -0.3051  0.2744
    3TTP     C128733   3.905   2.122   8.998 -0.1004  0.0237  0.1923
    3TTP     C228734   3.932   2.250   9.036 -0.0976  0.0839 -0.0091
    3TTP     C328735   3.977   2.331   8.927  0.0497 -0.1277 -0.1059
    3TTP     C428736   4.057   2.475   8.734  0.3109 -0.5022 -0.2799
    3TTP    C1728737   4.030   2.347   8.695  0.3080 -0.5623 -0.0785
    3TTP    C1828738   3.985   2.266   8.805  0.1608 -0.3508  0.0181
    3TTP    C3228739   3.918   2.326   9.164 -0.3903  1.7526 -1.0179
    3TTP    C3328740   4.028   2.346   9.272 -0.3921 -0.0679 -0.5476
    3TTP    C3428741   3.946   2.410   9.385  0.4041  1.3173 -0.0030
    3TTP    C3528742   3.963   2.372   9.538  0.1269 -1.0508  0.4195
    3TTP    C3628743   4.016   2.503   9.606 -0.1090 -1.0563 -1.2183
    3TTP    C3728744   3.969   2.492   9.755 -0.0128 -0.5104  0.2151
    3TTP    C3828745   3.978   2.620   9.836 -0.4385  0.7053 -0.4892
    3TTP    C3928746   4.019   2.600   9.987 -0.7102 -0.6126  0.9924
    3TTP    C4028747   4.052   2.730  10.070 -1.3283  1.2031 -1.2311
    3TTP    C4128748   3.962   2.847  10.098 -0.1970  0.0714 -0.3612
    3TTP    C4228749   3.898   2.885  10.231  0.1175 -0.9327  0.0663
    4FIC     F128750   4.644   1.818   7.405  0.5420  0.4365 -0.1867
    4FIC     F228751   4.581   1.939   7.170 -0.7274  0.0192 -0.0733
    4FIC     O128752   4.486   2.193   7.761  1.0228  0.4207  0.0459
    4FIC     N528753   4.376   2.382   7.086 -2.2099 -0.5920  0.2557
    4FIC     N628754   4.265   2.651   7.412 -1.5783 -0.5203  0.4146
    4FIC    C1928755   4.368   2.443   7.663 -0.0193  0.0164  0.2371
    4FIC    C2028756   4.411   2.344   7.583 -0.0906  0.0367  0.1740
    4FIC    C2128757   4.470   2.218   7.641  0.4679  0.2499  0.0770
    4FIC    C2228758   4.505   2.132   7.527  0.2254  0.2154  0.0273
    4FIC    C2328759   4.563   2.005   7.530  0.5670  0.3663 -0.0646
    4FIC    C2428760   4.587   1.943   7.409  0.2339  0.2957 -0.0965
    4FIC    C2528761   4.554   2.006   7.288 -0.4201  0.0806 -0.0381
    4FIC    C2628762   4.497   2.132   7.284 -0.7637 -0.0708  0.0538
    4FIC    C2728763   4.471   2.197   7.405 -0.4349 -0.0024  0.0874
    4FIC    C2828764   4.412   2.329   7.435 -0.6551 -0.1208  0.1800
    4FIC    C2928765   4.367   2.421   7.343 -1.2655 -0.3353  0.2564
    4FIC    C3028766   4.372   2.399   7.202 -1.7827 -0.4756  0.2557
    4FIC    C3128767   4.311   2.547   7.382 -1.4341 -0.4358  0.3431
    5FIC     F128768   3.652   1.339   8.993  0.1543 -0.0886  0.1721
    5FIC     F228769   3.540   1.379   9.237 -0.0310  0.1217  0.0534
    5FIC     O128770   3.872   1.824   8.900  0.4037 -0.2315  0.0131
    5FIC     N528771   3.535   1.784   9.523 -0.1197  0.3222 -0.2301
    5FIC     N628772   3.730   2.155   9.400  0.1127  0.1681 -0.3304
    5FIC    C1928773   3.843   2.036   9.100  0.3154 -0.0814 -0.1567
    5FIC    C2028774   3.792   1.912   9.114  0.2598 -0.0536 -0.1118
    5FIC    C2128775   3.811   1.809   9.007  0.3108 -0.1354 -0.0248
    5FIC    C2228776   3.744   1.686   9.054  0.2288 -0.0788  0.0052
    5FIC    C2328777   3.735   1.564   8.988  0.2388 -0.1212  0.0825
    5FIC    C2428778   3.665   1.462   9.052  0.1501 -0.0519  0.0971
    5FIC    C2528779   3.608   1.483   9.178  0.0546  0.0564  0.0356
    5FIC    C2628780   3.616   1.605   9.244  0.0442  0.0994 -0.0417
    5FIC    C2728781   3.686   1.709   9.181  0.1332  0.0304 -0.0572
    5FIC    C2828782   3.713   1.849   9.223  0.1484  0.0501 -0.1316
    5FIC    C2928783   3.673   1.908   9.340  0.0734  0.1463 -0.2048
    5FIC    C3028784   3.597   1.839   9.440 -0.0325  0.2426 -0.2186
    5FIC    C3128785   3.705   2.044   9.373  0.0955  0.1577 -0.2737
    1BTD     S228786   7.148  11.038   5.295  0.4071  0.2469  0.7072
    1BTD     N128787   7.073  10.881   5.338 -0.0972  0.1976 -0.2965
    1BTD     N228788   7.015  11.137   5.364  0.8005  0.2511  1.4824
    1BTD     N328789   6.607  11.055   5.582  0.6919  0.1705  1.2499
    1BTD     N428790   6.679  10.738   5.550 -0.4141  0.1044 -0.9420
    1BTD     C528791   6.866  10.810   5.449 -0.2494  0.1497 -0.6071
    1BTD     C628792   6.958  10.908   5.398  0.0465  0.1874 -0.0167
    1BTD     C728793   6.925  11.052   5.413  0.5490  0.2174  0.9792
    1BTD     C828794   6.803  11.090   5.477  0.7305  0.2081  1.3345
    1BTD    C1528795   6.716  10.991   5.526  0.4279  0.1712  0.7307
    1BTD    C1628796   6.747  10.852   5.512 -0.0561  0.1421 -0.2288
    1BTD    C4328797   6.530  10.729   5.571  0.0639  1.2590  0.6318
    1BTD    C4428798   6.433  10.611   5.580 -0.0093  0.4365 -0.8488
    1BTD    C4528799   6.379  10.553   5.454  0.8239  0.0243  1.6430
    1BTD    C4628800   6.269  10.448   5.431  0.6310 -0.0450  0.1079
    1BTD    C4728801   6.345  10.660   5.688 -0.1194  1.3669  0.0198
    1BTD    C4828802   6.254  10.556   5.752  0.2684  0.2387  0.9611
    1BTD    C4928803   6.147  10.624   5.820 -0.0649  0.7442 -1.2018
    1BTD    C5028804   6.019  10.563   5.778  0.5416 -0.3164 -0.8195
    1BTD    C7528805   6.512  11.005   5.678  0.3276  1.5059 -0.4390
    1BTD    C7628806   6.557  11.025   5.833  0.3586 -0.1846  0.4213
    1BTD    C7728807   6.526  11.165   5.901  0.5649  1.0109  0.1395
    1BTD    C7828808   6.382  11.202   5.928  0.9894 -0.6767 -0.3991
    1BTD    C7928809   6.696  10.980   5.844 -0.5433 -0.4218  0.3970
    1BTD    C8028810   6.722  10.825   5.837  0.2449  0.1505 -1.0215
    1BTD    C8128811   6.652  10.753   5.957 -0.7514  0.2304 -1.1958
    1BTD    C8228812   6.629  10.605   5.939  0.9006 -0.7050 -0.3157
    2TTP     S128813   6.986  10.526   5.400 -0.2495  0.0988 -0.2479
    2TTP     S528814   6.652  10.365   5.617  0.2059 -0.2966  0.1632
    2TTP     C128815   6.756  10.227   5.559  0.3809 -0.1685  0.1692
    2TTP     C228816   6.865  10.269   5.489  0.2505 -0.0386  0.0427
    2TTP     C328817   6.871  10.411   5.478  0.0079 -0.0362 -0.0638
    2TTP     C428818   6.883  10.664   5.457 -0.4246 -0.0296 -0.2539
    2TTP    C1728819   6.773  10.623   5.528 -0.2942 -0.1590 -0.1274
    2TTP    C1828820   6.768  10.480   5.539 -0.0514 -0.1621 -0.0212
    2TTP    C3228821   6.983  10.184   5.427 -0.6796  1.3280 -0.2110
    2TTP    C3328822   7.103  10.122   5.512 -1.1765 -0.3882  0.9861
    2TTP    C3428823   7.102  10.134   5.667 -1.1588 -0.3261  1.9791
    2TTP    C3528824   7.253  10.125   5.686  0.0634  1.5191 -0.6749
    2TTP    C3628825   7.296  10.083   5.830  0.3535 -0.9341  0.2333
    2TTP    C3728826   7.441  10.089   5.816  0.0013  0.2295 -0.4335
    2TTP    C3828827   7.514  10.063   5.954  0.6653 -0.2441 -0.6318
    2TTP    C3928828   7.561  10.192   6.032 -0.1797  0.4440  0.1493
    2TTP    C4028829   7.679  10.177   6.122 -0.6701  0.6623 -1.0903
    2TTP    C4128830   7.781  10.274   6.074  0.7375  0.7229 -0.6954
    2TTP    C4228831   7.876  10.296   6.192 -0.2130 -1.2438  0.1616
    3TTP     S128832   6.730  11.355   5.361  0.4249 -0.2214 -0.0012
    3TTP     S528833   6.352  11.331   5.564  0.2378 -0.7120 -0.4023
    3TTP     C128834   6.353  11.481   5.461  0.2500 -0.5770 -0.2064
    3TTP     C228835   6.470  11.497   5.392  0.3084 -0.4175 -0.0710
    3TTP     C328836   6.563  11.392   5.419  0.3458 -0.3962 -0.1171
    3TTP     C428837   6.729  11.205   5.464  0.4128 -0.3565 -0.1969
    3TTP    C1728838   6.612  11.189   5.533  0.3544 -0.5159 -0.3323
    3TTP    C1828839   6.519  11.294   5.507  0.3170 -0.5372 -0.2863
    3TTP    C3228840   6.514  11.610   5.292  1.3050 -0.2981  0.1524
    3TTP    C3328841   6.561  11.555   5.143  1.6766 -0.7306 -1.0995
    3TTP    C3428842   6.430  11.476   5.096  1.2578  1.3425 -1.1339
    3TTP    C3528843   6.416  11.387   4.964 -1.6520 -0.4033  0.1758
    3TTP    C3628844   6.336  11.270   4.988 -0.7359  0.4719  0.6652
    3TTP    C3728845   6.197  11.275   4.941  1.1718 -0.2103 -0.2128
    3TTP    C3828846   6.157  11.171   4.836  0.5946 -0.6870 -0.9062
    3TTP    C3928847   6.091  11.051   4.880  1.2856  0.5450 -0.7448
    3TTP    C4028848   6.142  10.945   4.782  0.0502  0.3898 -0.6087
    3TTP    C4128849   6.064  10.960   4.655 -0.8864 -0.3969 -0.1439
    3TTP    C4228850   6.166  10.967   4.530  0.6115 -1.0538  0.4958
    4FIC     F128851   6.079   9.814   5.767  0.1018  0.0417 -0.5544
    4FIC     F228852   6.198   9.583   5.686  0.7049 -0.1273  0.7622
    4FIC     O128853   6.471  10.173   5.666 -0.1863  0.2403 -0.9756
    4FIC     N528854   6.649   9.507   5.498  1.3665 -0.2289  2.3549
    4FIC     N628855   6.932   9.834   5.435  1.0200 -0.0396  1.7604
    4FIC    C1928856   6.724  10.080   5.553  0.2876  0.1493  0.1327
    4FIC    C2028857   6.621   9.999   5.582  0.3365  0.1059  0.1872
    4FIC    C2128858   6.494  10.054   5.640  0.0812  0.1571 -0.4053
    4FIC    C2228859   6.403   9.939   5.658  0.2118  0.0901 -0.1739
    4FIC    C2328860   6.274   9.941   5.710  0.0631  0.1059 -0.5453
    4FIC    C2428861   6.207   9.820   5.718  0.2346  0.0312 -0.2172
    4FIC    C2528862   6.269   9.701   5.676  0.5453 -0.0557  0.4612
    4FIC    C2628863   6.398   9.699   5.625  0.6952 -0.0720  0.8346
    4FIC    C2728864   6.467   9.820   5.616  0.5255  0.0029  0.5112
    4FIC    C2828865   6.603   9.852   5.567  0.6142  0.0088  0.7601
    4FIC    C2928866   6.695   9.763   5.517  0.8996 -0.0618  1.3994
    4FIC    C3028867   6.669   9.622   5.507  1.1554 -0.1533  1.9225
    4FIC    C3128868   6.825   9.802   5.472  0.9640 -0.0491  1.5944
    5FIC     F128869   5.755  11.707   5.973 -0.3687 -0.0133  0.0573
    5FIC     F228870   5.733  11.940   5.833 -0.1820  0.0543  0.1403
    5FIC     O128871   6.141  11.454   5.689 -0.3235 -0.0741  0.1731
    5FIC     N528872   5.977  12.094   5.431  0.1184  0.1082  0.3419
    5FIC     N628873   6.283  11.849   5.238  0.1160  0.0470  0.4156
    5FIC    C1928874   6.257  11.586   5.456 -0.1293 -0.0311  0.2934
    5FIC    C2028875   6.161  11.641   5.532 -0.1478 -0.0185  0.2611
    5FIC    C2128876   6.106  11.567   5.651 -0.2496 -0.0422  0.1994
    5FIC    C2228877   6.004  11.654   5.712 -0.2440 -0.0202  0.1771
    5FIC    C2328878   5.926  11.628   5.824 -0.3201 -0.0305  0.1221
    5FIC    C2428879   5.836  11.726   5.863 -0.2970 -0.0049  0.1108
    5FIC    C2528880   5.825  11.846   5.791 -0.2009  0.0299  0.1538
    5FIC    C2628881   5.902  11.872   5.679 -0.1247  0.0404  0.2086
    5FIC    C2728882   5.994  11.774   5.638 -0.1467  0.0149  0.2208
    5FIC    C2828883   6.090  11.771   5.525 -0.0836  0.0173  0.2741
    5FIC    C2928884   6.110  11.870   5.431  0.0153  0.0470  0.3257
    5FIC    C3028885   6.037  11.993   5.432  0.0716  0.0806  0.3344
    5FIC    C3128886   6.205  11.858   5.326  0.0702  0.0469  0.3749
    1BTD     S228887   0.170   9.014   1.571 -0.2182  0.4192 -0.1502
    1BTD     N128888   0.160   9.006   1.392 -0.2616 -0.1972 -0.1242
    1BTD     N228889  -0.008   9.020   1.596 -0.2029  0.8857 -0.1404
    1BTD     N328890  -0.389   9.018   1.322 -0.2499  0.7248 -0.0735
    1BTD     N428891  -0.183   9.001   1.071 -0.3223 -0.6099 -0.0535
    1BTD     C528892  -0.022   9.003   1.227 -0.2925 -0.3963 -0.0875
    1BTD     C628893   0.031   9.008   1.361 -0.2624 -0.0315 -0.1102
    1BTD     C728894  -0.063   9.016   1.475 -0.2294  0.5746 -0.1193
    1BTD     C828895  -0.204   9.019   1.450 -0.2282  0.7858 -0.1052
    1BTD    C1528896  -0.251   9.014   1.317 -0.2585  0.4127 -0.0831
    1BTD    C1628897  -0.161   9.006   1.207 -0.2902 -0.1709 -0.0743
    1BTD    C4328898  -0.265   9.056   0.970  2.1247 -0.8345 -0.6836
    1BTD    C4428899  -0.251   9.190   0.889 -0.5011 -0.0957  1.1075
    1BTD    C4528900  -0.238   9.301   0.999  0.6776 -0.9037  1.0655
    1BTD    C4628901  -0.182   9.433   0.939 -0.3331 -0.4903  0.6597
    1BTD    C4728902  -0.356   9.226   0.788 -0.6258 -0.1068  1.1292
    1BTD    C4828903  -0.448   9.126   0.734  0.7167 -0.2307 -1.2139
    1BTD    C4928904  -0.386   9.100   0.595  0.9202  0.0084 -0.4406
    1BTD    C5028905  -0.453   9.174   0.485  0.0922 -0.0071 -0.1013
    1BTD    C7528906  -0.510   9.035   1.225 -1.0288  0.3610 -0.1201
    1BTD    C7628907  -0.578   8.937   1.119 -1.0999 -0.5412 -0.3192
    1BTD    C7728908  -0.708   8.995   1.082  0.5804 -0.4089 -0.6557
    1BTD    C7828909  -0.729   9.121   1.006 -0.1469 -0.3145 -0.1569
    1BTD    C7928910  -0.584   8.783   1.151  0.6589 -0.7419  0.0518
    1BTD    C8028911  -0.625   8.706   1.032  1.0828 -0.6774  0.5339
    1BTD    C8128912  -0.670   8.571   1.051 -0.2169 -0.7394  1.6898
    1BTD    C8228913  -0.785   8.517   0.959 -0.7499 -0.0963  0.2798
    2TTP     S128914   0.201   8.950   1.041  0.0821  0.0167  0.1198
    2TTP     S528915  -0.091   8.848   0.742 -0.2031 -0.3943  0.5352
    2TTP     C128916   0.071   8.787   0.688 -0.2192 -0.2978  0.3745
    2TTP     C228917   0.171   8.814   0.777 -0.1322 -0.1650  0.2367
    2TTP     C328918   0.123   8.885   0.892 -0.0495 -0.1352  0.2531
    2TTP     C428919   0.039   9.012   1.095  0.0983 -0.0799  0.2805
    2TTP    C1728920  -0.061   8.984   1.006  0.0114 -0.2126  0.4182
    2TTP    C1828921  -0.013   8.913   0.892 -0.0714 -0.2427  0.4018
    2TTP    C3228922   0.311   8.766   0.749 -0.4258 -0.9315 -0.3623
    2TTP    C3328923   0.410   8.760   0.864 -0.4741 -1.1913 -0.4355
    2TTP    C3428924   0.556   8.776   0.832 -0.4595 -1.0424  1.6177
    2TTP    C3528925   0.650   8.675   0.790  0.3242  1.3738  0.0597
    2TTP    C3628926   0.775   8.684   0.873 -0.0793  0.5325  0.3847
    2TTP    C3728927   0.874   8.583   0.798  1.5261 -0.9841 -0.6950
    2TTP    C3828928   0.864   8.436   0.818  0.4998 -0.5041  0.5005
    2TTP    C3928929   0.980   8.353   0.789 -0.3765  1.3185 -0.1346
    2TTP    C4028930   1.088   8.335   0.895 -1.0313  0.3107 -0.4437
    2TTP    C4128931   1.148   8.445   0.964  0.4128 -2.0184  0.6508
    2TTP    C4228932   1.155   8.430   1.115  0.1163 -0.0470  0.3746
    3TTP     S128933  -0.358   8.997   1.707  0.2512  0.3087  0.6831
    3TTP     S528934  -0.713   8.984   1.464  0.1388 -0.5226  0.8837
    3TTP     C128935  -0.757   8.935   1.633  0.2156  0.0600  1.0778
    3TTP     C228936  -0.650   8.936   1.718  0.2549  0.3512  1.0273
    3TTP     C328937  -0.529   8.976   1.653  0.2255  0.1247  0.8335
    3TTP     C428938  -0.314   9.046   1.537  0.1743 -0.2742  0.4891
    3TTP    C1728939  -0.421   9.045   1.452  0.1352 -0.5650  0.5396
    3TTP    C1828940  -0.541   9.006   1.518  0.1645 -0.3383  0.7333
    3TTP    C3228941  -0.649   8.895   1.868 -0.8771  1.0123  0.2739
    3TTP    C3328942  -0.552   8.941   1.973  1.0072 -0.2093  0.3483
    3TTP    C3428943  -0.577   9.089   2.027 -0.4925 -0.3355  1.8144
    3TTP    C3528944  -0.556   9.211   1.914 -0.1713  1.0462 -0.2679
    3TTP    C3628945  -0.435   9.310   1.951 -0.8151  0.2393  0.3178
    3TTP    C3728946  -0.299   9.228   1.951 -0.0914 -0.3675 -1.2502
    3TTP    C3828947  -0.171   9.284   2.009 -0.3512  0.1030  1.0071
    3TTP    C3928948  -0.066   9.172   2.031 -0.1264 -0.0946  0.0956
    3TTP    C4028949   0.079   9.206   2.024 -0.2154 -0.0592  0.4482
    3TTP    C4128950   0.179   9.089   2.075 -0.3401 -2.0998  0.4266
    3TTP    C4228951   0.317   9.078   1.999  0.4484  0.1002  0.4187
    4FIC     F128952  -0.358   8.672  -0.000 -0.1926 -0.7296  0.2136
    4FIC     F228953  -0.126   8.618  -0.132  0.0119  0.7899 -0.0932
    4FIC     O128954  -0.174   8.750   0.503 -0.2747 -1.2791  0.3293
    4FIC     N528955   0.338   8.594   0.037  0.2475  2.5823 -0.4519
    4FIC     N628956   0.435   8.666   0.457  0.1423  1.8463 -0.2996
    4FIC    C1928957   0.113   8.725   0.556 -0.1083 -0.0230  0.0773
    4FIC    C2028958   0.058   8.708   0.434 -0.0957  0.0560  0.0601
    4FIC    C2128959  -0.091   8.722   0.415 -0.1850 -0.6168  0.1952
    4FIC    C2228960  -0.117   8.697   0.272 -0.1447 -0.3335  0.1367
    4FIC    C2328961  -0.240   8.699   0.207 -0.1988 -0.7474  0.2193
    4FIC    C2428962  -0.240   8.672   0.071 -0.1443 -0.3547  0.1390
    4FIC    C2528963  -0.120   8.644   0.003 -0.0387  0.4280 -0.0191
    4FIC    C2628964   0.003   8.642   0.068  0.0157  0.8450 -0.1023
    4FIC    C2728965   0.005   8.669   0.205 -0.0384  0.4570 -0.0229
    4FIC    C2828966   0.117   8.674   0.302 -0.0040  0.7277 -0.0762
    4FIC    C2928967   0.250   8.652   0.275  0.0940  1.4601 -0.2238
    4FIC    C3028968   0.298   8.621   0.144  0.1781  2.0747 -0.3487
    4FIC    C3128969   0.351   8.660   0.375  0.1200  1.6685 -0.2647
    5FIC     F128970  -1.530   8.894   1.339  0.0131 -0.7725  0.0426
    5FIC     F228971  -1.619   8.853   1.593 -0.0110  0.0811  0.1803
    5FIC     O128972  -0.996   8.935   1.424  0.0434 -0.8805 -0.0962
    5FIC     N528973  -1.367   8.821   2.018 -0.0241  1.2314  0.2792
    5FIC     N628974  -0.932   8.861   2.033  0.0043  0.9749  0.1429
    5FIC    C1928975  -0.892   8.909   1.696  0.0311 -0.1031 -0.0140
    5FIC    C2028976  -1.023   8.900   1.665  0.0243 -0.1094  0.0155
    5FIC    C2128977  -1.069   8.915   1.523  0.0312 -0.5217 -0.0302
    5FIC    C2228978  -1.215   8.900   1.524  0.0215 -0.4144  0.0185
    5FIC    C2328979  -1.303   8.906   1.416  0.0231 -0.6924  0.0008
    5FIC    C2428980  -1.438   8.890   1.442  0.0121 -0.5164  0.0563
    5FIC    C2528981  -1.484   8.868   1.573 -0.0002 -0.0766  0.1272
    5FIC    C2628982  -1.397   8.862   1.681 -0.0019  0.2024  0.1452
    5FIC    C2728983  -1.260   8.879   1.657  0.0088  0.0303  0.0898
    5FIC    C2828984  -1.143   8.878   1.749  0.0103  0.2353  0.0907
    5FIC    C2928985  -1.147   8.860   1.885  0.0002  0.6630  0.1500
    5FIC    C3028986  -1.268   8.839   1.958 -0.0131  0.9739  0.2208
    5FIC    C3128987  -1.029   8.861   1.965  0.0024  0.8323  0.1458
    1BTD     S228988   2.425   5.577   4.056  0.4637  0.3470 -0.0607
    1BTD     N128989   2.521   5.538   3.908  0.5715  0.2342  0.0384
    1BTD     N228990   2.381   5.742   4.001  0.2891  0.2117 -0.3326
    1BTD     N328991   2.463   6.009   3.623  0.1276 -0.2673 -0.7082
    1BTD     N428992   2.635   5.757   3.509  0.4757 -0.2396 -0.2511
    1BTD     C528993   2.578   5.655   3.701  0.5174 -0.0134 -0.1181
    1BTD     C628994   2.515   5.645   3.830  0.4767  0.1081 -0.1278
    1BTD     C728995   2.437   5.759   3.882  0.3185  0.0957 -0.3355
    1BTD     C828996   2.426   5.879   3.802  0.2090 -0.0381 -0.5232
    1BTD    C1528997   2.490   5.885   3.677  0.2540 -0.1544 -0.5062
    1BTD    C1628998   2.565   5.774   3.627  0.4063 -0.1421 -0.3060
    1BTD    C4328999   2.589   5.806   3.379  0.1072 -0.7879  0.9198
    1BTD    C4429000   2.698   5.837   3.284 -0.0840 -0.0128 -0.3566
    1BTD    C4529001   2.792   5.952   3.354  0.9593 -1.7626  0.7232
    1BTD    C4629002   2.867   6.044   3.260 -1.3382 -0.1581  0.3598
    1BTD    C4729003   2.632   5.852   3.139 -0.1044 -0.3936  0.0307
    1BTD    C4829004   2.731   5.768   3.050  0.4297  0.0423 -0.0630
    1BTD    C4929005   2.809   5.853   2.966 -0.2580  0.9255 -1.4828
    1BTD    C5029006   2.775   5.862   2.825  0.3134 -0.1642  0.2494
    1BTD    C7529007   2.560   6.085   3.542 -0.9801  0.3008  0.8411
    1BTD    C7629008   2.525   6.194   3.440 -0.2947 -0.5357 -0.5046
    1BTD    C7729009   2.431   6.142   3.333  0.6738 -0.8485 -0.6503
    1BTD    C7829010   2.385   6.222   3.210 -0.6590  1.6275  0.8174
    1BTD    C7929011   2.654   6.277   3.400  1.5144 -0.3542 -0.1859
    1BTD    C8029012   2.637   6.423   3.354  0.7175 -0.6366  0.7743
    1BTD    C8129013   2.772   6.512   3.368  0.1900  0.8682  0.2745
    1BTD    C8229014   2.740   6.630   3.281  0.8213  0.5338  0.8813
    2TTP     S129015   2.704   5.392   3.638 -0.3179 -0.7240 -0.1851
    2TTP     S529016   2.766   5.525   3.234  0.3045  0.1144  0.1817
    2TTP     C129017   2.814   5.350   3.245 -0.1506 -0.0392 -0.2135
    2TTP     C229018   2.797   5.298   3.371 -0.3695 -0.3073 -0.3501
    2TTP     C329019   2.747   5.395   3.463 -0.1858 -0.4008 -0.1476
    2TTP     C429020   2.656   5.567   3.627  0.1371 -0.5704  0.2100
    2TTP    C1729021   2.672   5.618   3.502  0.3561 -0.3021  0.3466
    2TTP    C1829022   2.723   5.521   3.410  0.1724 -0.2087  0.1440
    2TTP    C3229023   2.846   5.162   3.425  1.3235 -1.1108  0.2265
    2TTP    C3329024   2.962   5.129   3.520  0.1630  0.2876  1.1490
    2TTP    C3429025   3.078   5.215   3.471  0.6782  0.7282 -1.5341
    2TTP    C3529026   3.201   5.147   3.515 -1.6832  0.2573 -0.8225
    2TTP    C3629027   3.321   5.155   3.431  0.8832  0.4036  0.4514
    2TTP    C3729028   3.339   5.046   3.333  1.1090 -0.2026  0.6328
    2TTP    C3829029   3.418   4.918   3.352  0.0315  0.5882  0.5079
    2TTP    C3929030   3.568   4.917   3.320  0.4103  1.3778 -0.6637
    2TTP    C4029031   3.672   5.027   3.349  0.4292 -0.3017  0.6496
    2TTP    C4129032   3.698   5.082   3.490 -0.5246 -0.5227 -0.3764
    2TTP    C4229033   3.798   5.182   3.475 -0.0704 -0.2564  1.2268
    3TTP     S129034   2.250   6.063   3.938 -0.4329 -0.1955  0.2108
    3TTP     S529035   2.367   6.373   3.663  0.5687 -0.6728  0.0870
    3TTP     C129036   2.257   6.445   3.789  0.6319 -0.3133 -0.0613
    3TTP     C229037   2.215   6.353   3.881  0.3265 -0.1446 -0.0319
    3TTP     C329038   2.267   6.223   3.856  0.0313 -0.2935  0.1090
    3TTP     C429039   2.360   5.990   3.812 -0.4962 -0.5553  0.3593
    3TTP    C1729040   2.402   6.082   3.720 -0.1907 -0.7236  0.3298
    3TTP    C1829041   2.350   6.212   3.745  0.1045 -0.5748  0.1889
    3TTP    C3229042   2.135   6.378   3.999  0.3477  0.6132  1.0293
    3TTP    C3329043   1.991   6.300   3.984  0.4218 -0.5280  0.9746
    3TTP    C3429044   1.878   6.309   4.085  0.5221  0.7332  0.8375
    3TTP    C3529045   1.810   6.447   4.105 -0.8492 -0.3812 -0.1762
    3TTP    C3629046   1.846   6.520   4.240  0.5595  0.8043  0.2329
    3TTP    C3729047   1.707   6.525   4.310  0.5269 -1.0680 -1.0516
    3TTP    C3829048   1.591   6.597   4.236 -2.1885 -0.5950  0.2354
    3TTP    C3929049   1.466   6.593   4.319 -0.5427 -0.4427 -0.7655
    3TTP    C4029050   1.457   6.744   4.372  1.3125  0.6477 -0.7659
    3TTP    C4129051   1.333   6.747   4.478 -0.8923  0.8195  0.1148
    3TTP    C4229052   1.304   6.847   4.591 -0.5556  1.4202 -0.6183
    4FIC     F129053   2.910   5.446   2.438 -0.5552  0.0852 -0.0686
    4FIC     F229054   3.016   5.196   2.426 -0.1585  0.2449  0.0743
    4FIC     O129055   2.799   5.485   2.967 -0.4623  0.2739 -0.0627
    4FIC     N529056   3.089   4.863   2.785  0.4779  0.6084  0.2843
    4FIC     N629057   2.981   4.944   3.201  0.4703  0.7236  0.2603
    4FIC    C1929058   2.860   5.259   3.143 -0.0505  0.4932  0.0762
    4FIC    C2029059   2.884   5.259   3.010 -0.0893  0.4395  0.0691
    4FIC    C2129060   2.850   5.379   2.926 -0.3053  0.3270 -0.0042
    4FIC    C2229061   2.888   5.346   2.788 -0.2927  0.2928  0.0076
    4FIC    C2329062   2.876   5.426   2.675 -0.4533  0.1945 -0.0443
    4FIC    C2429063   2.919   5.372   2.554 -0.4036  0.1806 -0.0203
    4FIC    C2529064   2.974   5.243   2.548 -0.1993  0.2629  0.0535
    4FIC    C2629065   2.987   5.163   2.661 -0.0381  0.3611  0.1055
    4FIC    C2729066   2.943   5.215   2.784 -0.0854  0.3767  0.0822
    4FIC    C2829067   2.943   5.157   2.920  0.0477  0.4703  0.1229
    4FIC    C2929068   2.988   5.032   2.956  0.2577  0.5666  0.1965
    4FIC    C3029069   3.044   4.940   2.862  0.3780  0.5893  0.2445
    4FIC    C3129070   2.984   4.984   3.090  0.3735  0.6526  0.2311
    5FIC     F129071   2.609   7.120   3.485 -0.0380  0.4636  0.1920
    5FIC     F229072   2.366   7.243   3.497 -0.3178 -0.0222 -0.3456
    5FIC     O129073   2.489   6.637   3.699  0.6442  0.5049  0.6707
    5FIC     N529074   1.933   7.076   3.668 -0.2337 -0.6912 -0.7772
    5FIC     N629075   1.889   6.674   3.833  0.3558 -0.5611 -0.2947
    5FIC    C1929076   2.216   6.583   3.788  0.6192  0.0554  0.3272
    5FIC    C2029077   2.255   6.700   3.733  0.4585  0.0639  0.2278
    5FIC    C2129078   2.398   6.720   3.690  0.4835  0.3021  0.4175
    5FIC    C2229079   2.406   6.857   3.636  0.2803  0.2464  0.2432
    5FIC    C2329080   2.518   6.921   3.584  0.2275  0.4088  0.3266
    5FIC    C2429081   2.502   7.050   3.538  0.0250  0.3132  0.1241
    5FIC    C2529082   2.377   7.114   3.544 -0.1189  0.0630 -0.1528
    5FIC    C2629083   2.265   7.051   3.596 -0.0671 -0.1001 -0.2374
    5FIC    C2729084   2.279   6.919   3.643  0.1371 -0.0068 -0.0353
    5FIC    C2829085   2.181   6.825   3.703  0.2409 -0.1290 -0.0558
    5FIC    C2929086   2.048   6.850   3.727  0.1521 -0.3738 -0.2924
    5FIC    C3029087   1.985   6.974   3.695 -0.0598 -0.5475 -0.5581
    5FIC    C3129088   1.961   6.753   3.785  0.2646 -0.4754 -0.2924
    1BTD     S229089   2.694   3.172   4.617  0.1144  0.1056 -0.2344
    1BTD     N129090   2.732   3.312   4.723  0.7191  0.0693 -0.3973
    1BTD     N229091   2.642   3.273   4.478 -0.4355  0.1549  0.0010
    1BTD     N329092   2.605   3.732   4.386 -0.4643  0.1900  0.1864
    1BTD     N429093   2.717   3.780   4.688  0.9584  0.0845 -0.3047
    1BTD     C529094   2.723   3.555   4.701  0.8269  0.0785 -0.3431
    1BTD     C629095   2.706   3.421   4.653  0.4917  0.0945 -0.2743
    1BTD     C729096   2.655   3.399   4.515 -0.1546  0.1425 -0.0514
    1BTD     C829097   2.624   3.513   4.433 -0.4333  0.1719  0.0919
    1BTD    C1529098   2.642   3.643   4.485 -0.0875  0.1546  0.0176
    1BTD    C1629099   2.691   3.664   4.617  0.5352  0.1086 -0.1973
    1BTD    C4329100   2.746   3.918   4.635 -0.8670  1.6838 -0.2384
    1BTD    C4429101   2.907   3.939   4.596  0.4113 -0.3021 -0.0318
    1BTD    C4529102   2.967   4.029   4.702 -0.0172  1.2815 -0.0769
    1BTD    C4629103   3.117   4.063   4.688 -0.3829  0.8552  1.3380
    1BTD    C4729104   2.883   4.008   4.460 -0.0672 -1.1294 -1.0280
    1BTD    C4829105   2.854   3.943   4.326  0.0508  1.8819 -0.6554
    1BTD    C4929106   2.840   4.016   4.211  0.4999 -0.6642  0.3224
    1BTD    C5029107   2.948   4.120   4.191  0.3805  1.0051  1.4034
    1BTD    C7529108   2.550   3.853   4.382  1.8967 -1.5059  1.6386
    1BTD    C7629109   2.390   3.895   4.377  0.1692 -1.1995 -0.6777
    1BTD    C7729110   2.325   3.927   4.523  0.0447  0.9106 -0.1670
    1BTD    C7829111   2.401   4.017   4.605  1.4434 -0.0557  0.5650
    1BTD    C7929112   2.285   3.813   4.302 -0.0635 -1.1182 -0.6001
    1BTD    C8029113   2.152   3.896   4.266  0.7992  0.7814  1.3675
    1BTD    C8129114   2.033   3.860   4.164  0.6570  0.9502 -0.9740
    1BTD    C8229115   2.079   3.825   4.018 -0.5110 -0.7099 -0.4436
    2TTP     S129116   2.818   3.545   4.984  0.0343 -0.3361 -0.2922
    2TTP     S529117   2.780   3.973   5.007 -0.4559 -0.3288 -1.1535
    2TTP     C129118   2.827   3.910   5.171 -0.8619  0.0065 -0.9042
    2TTP     C229119   2.841   3.774   5.173 -0.7344  0.0240 -0.6236
    2TTP     C329120   2.816   3.715   5.046 -0.3115 -0.2267 -0.5953
    2TTP     C429121   2.771   3.608   4.819  0.4403 -0.6713 -0.5416
    2TTP    C1729122   2.756   3.744   4.817  0.3128 -0.6887 -0.8222
    2TTP    C1829123   2.782   3.803   4.945 -0.1100 -0.4380 -0.8506
    2TTP    C3229124   2.878   3.672   5.276 -0.0268  0.2610 -0.7132
    2TTP    C3329125   3.006   3.587   5.277  0.9743 -0.9930 -0.3065
    2TTP    C3429126   2.979   3.448   5.308 -1.5911 -0.7191 -0.5732
    2TTP    C3529127   3.104   3.371   5.349 -0.2980 -0.2975 -0.2924
    2TTP    C3629128   3.076   3.226   5.383  0.1835  0.9355 -0.1151
    2TTP    C3729129   3.175   3.113   5.352 -0.1650 -0.7550  0.1889
    2TTP    C3829130   3.291   3.091   5.438  0.4437 -0.4011  1.3663
    2TTP    C3929131   3.266   3.056   5.592 -0.0003 -0.4761  1.5810
    2TTP    C4029132   3.409   3.052   5.648 -0.4448 -0.5620  1.1020
    2TTP    C4129133   3.498   2.942   5.573  0.5642  0.1261 -0.0045
    2TTP    C4229134   3.479   2.812   5.651 -0.3625  0.0450  0.2216
    3TTP     S129135   2.568   3.406   4.164 -0.7223  0.1099  0.4838
    3TTP     S529136   2.684   3.797   4.027  0.7119 -0.5894 -0.3486
    3TTP     C129137   2.688   3.683   3.886 -0.8705 -0.6689 -0.3657
    3TTP     C229138   2.653   3.555   3.919 -1.4066 -0.4576 -0.1096
    3TTP     C329139   2.621   3.543   4.058 -0.5870 -0.2254  0.1093
    3TTP     C429140   2.564   3.520   4.305  0.8601  0.1892  0.5007
    3TTP    C1729141   2.600   3.648   4.271  1.3962 -0.0219  0.2447
    3TTP    C1829142   2.632   3.660   4.132  0.5766 -0.2542  0.0259
    3TTP    C3229143   2.672   3.434   3.843  0.3421  2.3311  0.2523
    3TTP    C3329144   2.534   3.366   3.800 -2.2083  0.9727  1.1215
    3TTP    C3429145   2.492   3.374   3.651  0.3674  0.1169 -0.2822
    3TTP    C3529146   2.365   3.280   3.632 -0.5277 -0.7309 -0.7255
    3TTP    C3629147   2.346   3.141   3.696 -1.1084 -0.5438  0.9747
    3TTP    C3729148   2.253   3.050   3.617 -0.7228  1.0078 -0.4602
    3TTP    C3829149   2.331   2.919   3.615 -0.6171  0.8739 -0.7878
    3TTP    C3929150   2.276   2.844   3.495 -0.7804 -0.3012  0.2808
    3TTP    C4029151   2.159   2.767   3.523  0.3608 -0.4021 -1.0235
    3TTP    C4129152   2.156   2.629   3.477  1.2283  0.3335  0.3922
    3TTP    C4229153   2.028   2.548   3.506  0.8516  0.7555  0.3651
    4FIC     F129154   2.960   4.717   5.316  0.3527  0.0120 -0.6316
    4FIC     F229155   3.030   4.656   5.572  0.1933  0.3891 -0.4964
    4FIC     O129156   2.845   4.226   5.120  0.2087 -0.2486  0.1016
    4FIC     N529157   3.048   4.217   5.800 -0.1386  0.7454  0.2207
    4FIC     N629158   2.944   3.845   5.596 -0.2190  0.4658  0.7663
    4FIC    C1929159   2.871   3.992   5.295  0.0052  0.0190  0.4912
    4FIC    C2029160   2.897   4.119   5.334  0.0477  0.0699  0.3015
    4FIC    C2129161   2.881   4.233   5.239  0.1528 -0.0759  0.1082
    4FIC    C2229162   2.918   4.355   5.313  0.1753  0.0266 -0.0695
    4FIC    C2329163   2.919   4.486   5.266  0.2636 -0.0484 -0.2805
    4FIC    C2429164   2.957   4.585   5.356  0.2676  0.0767 -0.4205
    4FIC    C2529165   2.993   4.554   5.487  0.1853  0.2709 -0.3505
    4FIC    C2629166   2.992   4.423   5.535  0.0969  0.3470 -0.1403
    4FIC    C2729167   2.954   4.321   5.446  0.0916  0.2223  0.0038
    4FIC    C2829168   2.942   4.174   5.464  0.0098  0.2565  0.2347
    4FIC    C2929169   2.968   4.104   5.579 -0.0831  0.4286  0.3619
    4FIC    C3029170   3.012   4.167   5.700 -0.1132  0.6021  0.2838
    4FIC    C3129171   2.955   3.962   5.588 -0.1572  0.4480  0.5836
    5FIC     F129172   3.329   4.116   3.635  0.7419 -0.3783 -0.0168
    5FIC     F229173   3.271   4.048   3.379  0.6715 -0.3549 -0.0069
    5FIC     O129174   2.938   3.854   3.903  0.3544  0.2205  0.0057
    5FIC     N529175   2.907   3.763   3.200  0.2941  0.1060  0.0233
    5FIC     N629176   2.613   3.572   3.461  0.0056  0.5690  0.0389
    5FIC    C1929177   2.743   3.696   3.753  0.1496  0.4557  0.0230
    5FIC    C2029178   2.844   3.765   3.696  0.2498  0.3041  0.0170
    5FIC    C2129179   2.940   3.844   3.780  0.3513  0.1902  0.0082
    5FIC    C2229180   3.036   3.905   3.686  0.4455  0.0369  0.0033
    5FIC    C2329181   3.144   3.988   3.717  0.5565 -0.1047 -0.0051
    5FIC    C2429182   3.221   4.034   3.612  0.6308 -0.2345 -0.0085
    5FIC    C2529183   3.191   3.999   3.480  0.5944 -0.2222 -0.0033
    5FIC    C2629184   3.083   3.917   3.448  0.4836 -0.0812  0.0051
    5FIC    C2729185   3.004   3.869   3.553  0.4072  0.0515  0.0085
    5FIC    C2829186   2.884   3.781   3.554  0.2855  0.2162  0.0172
    5FIC    C2929187   2.823   3.725   3.444  0.2188  0.2758  0.0240
    5FIC    C3029188   2.870   3.746   3.310  0.2605  0.1822  0.0237
    5FIC    C3129189   2.708   3.641   3.454  0.1019  0.4368  0.0321
    1BTD     S229190   8.344   3.113   4.319  0.1516  0.1081 -0.1970
    1BTD     N129191   8.317   3.043   4.155  0.2041 -0.0481 -0.1390
    1BTD     N229192   8.425   3.262   4.258 -0.1729  0.2298 -0.3337
    1BTD     N329193   8.541   3.439   3.839 -0.7389  0.1960 -0.5074
    1BTD     N429194   8.409   3.169   3.712 -0.2744 -0.1464 -0.2675
    1BTD     C529195   8.367   3.112   3.925 -0.0513 -0.0953 -0.2089
    1BTD     C629196   8.368   3.130   4.068 -0.0119 -0.0038 -0.2202
    1BTD     C729197   8.428   3.252   4.126 -0.2224  0.1519 -0.3293
    1BTD     C829198   8.484   3.351   4.038 -0.4625  0.2080 -0.4214
    1BTD    C1529199   8.481   3.330   3.898 -0.4927  0.1144 -0.4066
    1BTD    C1629200   8.423   3.212   3.843 -0.2899 -0.0356 -0.3016
    1BTD    C4329201   8.393   3.252   3.597 -2.2915 -0.1923 -0.7540
    1BTD    C4429202   8.444   3.206   3.454  0.6123 -0.8226 -0.6415
    1BTD    C4529203   8.391   3.300   3.353  0.1899 -0.1040 -0.8148
    1BTD    C4629204   8.241   3.340   3.319 -0.3253  0.1763 -1.0118
    1BTD    C4729205   8.595   3.192   3.433 -0.6414 -0.8286  0.0693
    1BTD    C4829206   8.675   3.084   3.501 -1.1617 -0.6248 -0.4169
    1BTD    C4929207   8.643   2.945   3.486  0.0620 -0.2985  0.8353
    1BTD    C5029208   8.749   2.846   3.546  0.2705 -1.0218  0.3825
    1BTD    C7529209   8.643   3.421   3.716  0.9153  0.4616 -1.2138
    1BTD    C7629210   8.794   3.446   3.691  0.4977  0.1821  0.3093
    1BTD    C7729211   8.834   3.578   3.641 -0.0996 -1.0887 -0.1580
    1BTD    C7829212   8.924   3.575   3.516  0.5282  0.8535 -0.4474
    1BTD    C7929213   8.904   3.364   3.752  0.0009  0.7882  0.5122
    1BTD    C8029214   8.919   3.394   3.900 -1.5381 -0.4943  0.3327
    1BTD    C8129215   8.832   3.327   4.005  0.0293  0.3107  0.0252
    1BTD    C8229216   8.858   3.186   4.048 -0.4483  0.1869 -0.6867
    2TTP     S129217   8.251   2.840   3.853  0.4276  0.0214  0.1938
    2TTP     S529218   8.231   2.970   3.443  0.2391  0.0914  0.2249
    2TTP     C129219   8.152   2.806   3.456  0.4401 -0.0081  0.1930
    2TTP     C229220   8.154   2.756   3.583  0.5105 -0.0356  0.1816
    2TTP     C329221   8.217   2.846   3.675  0.4077  0.0209  0.1975
    2TTP     C429222   8.329   3.003   3.840  0.2263  0.1209  0.2257
    2TTP    C1729223   8.328   3.053   3.713  0.1561  0.1486  0.2372
    2TTP    C1829224   8.265   2.964   3.621  0.2587  0.0919  0.2212
    2TTP    C3229225   8.077   2.625   3.639 -0.0844 -0.0625 -0.7106
    2TTP    C3329226   7.935   2.589   3.578  1.0884 -0.6462 -0.8336
    2TTP    C3429227   7.844   2.467   3.641  0.8161 -0.2346 -1.3164
    2TTP    C3529228   7.748   2.413   3.532  0.4051 -1.5844  0.4802
    2TTP    C3629229   7.632   2.352   3.612  0.5743 -0.9778  0.6493
    2TTP    C3729230   7.568   2.221   3.596  0.4466  0.0538 -1.5427
    2TTP    C3829231   7.678   2.109   3.578 -1.0024 -0.3444 -0.6175
    2TTP    C3929232   7.660   2.016   3.448  1.6259  0.3389  0.3565
    2TTP    C4029233   7.783   1.946   3.398 -1.3745  0.4013  0.1375
    2TTP    C4129234   7.847   1.846   3.503 -0.6351  0.4515 -1.1294
    2TTP    C4229235   7.806   1.705   3.555 -0.2458 -0.7095  0.4539
    3TTP     S129236   8.503   3.598   4.197 -0.3324 -0.1750 -0.1947
    3TTP     S529237   8.532   3.822   3.831  0.2587  0.6436  0.3475
    3TTP     C129238   8.505   3.938   3.969  0.1869  0.3509  0.5831
    3TTP     C229239   8.494   3.876   4.090 -0.0002  0.0809  0.4296
    3TTP     C329240   8.507   3.734   4.078 -0.0932  0.0954  0.1203
    3TTP     C429241   8.531   3.481   4.060 -0.2608  0.1177 -0.4303
    3TTP    C1729242   8.541   3.544   3.939 -0.0740  0.3877 -0.2769
    3TTP    C1829243   8.528   3.686   3.950  0.0191  0.3732  0.0325
    3TTP    C3229244   8.473   3.934   4.228 -0.1409  0.4109 -0.6233
    3TTP    C3329245   8.568   3.952   4.346 -0.2362 -0.5958  0.5760
    3TTP    C3429246   8.713   4.002   4.311 -0.1435  0.3889 -1.2598
    3TTP    C3529247   8.819   3.929   4.392 -0.8073  1.5340 -0.9017
    3TTP    C3629248   8.893   3.797   4.360  0.1485 -0.0477  0.2225
    3TTP    C3729249   8.966   3.783   4.226 -1.0903  1.8870  0.1344
    3TTP    C3829250   9.113   3.736   4.221 -0.3042  0.5419  0.7651
    3TTP    C3929251   9.127   3.597   4.286  0.7996 -0.7539  0.4055
    3TTP    C4029252   9.261   3.562   4.296 -0.5481  0.1288 -0.0242
    3TTP    C4129253   9.329   3.647   4.404 -2.2090  0.0179  0.4601
    3TTP    C4229254   9.460   3.589   4.442  0.4694  0.7942  0.7538
    4FIC     F129255   7.760   3.166   2.838 -0.7617  0.1141  0.2347
    4FIC     F229256   7.713   2.920   2.733 -0.0703  0.1025 -0.0541
    4FIC     O129257   8.029   3.035   3.290 -0.4652  0.3345  0.1228
    4FIC     N529258   7.838   2.472   2.902  1.1353  0.2430 -0.5491
    4FIC     N629259   8.057   2.419   3.276  1.2279  0.4175 -0.5784
    4FIC    C1929260   8.080   2.752   3.349  0.3010  0.4016 -0.1930
    4FIC    C2029261   8.014   2.795   3.239  0.1993  0.3467 -0.1535
    4FIC    C2129262   7.991   2.942   3.216 -0.2003  0.3150  0.0113
    4FIC    C2229263   7.917   2.953   3.089 -0.2131  0.2567  0.0136
    4FIC    C2329264   7.874   3.069   3.026 -0.5233  0.2117  0.1405
    4FIC    C2429265   7.805   3.055   2.906 -0.4669  0.1604  0.1142
    4FIC    C2529266   7.782   2.928   2.852 -0.1107  0.1546 -0.0346
    4FIC    C2629267   7.825   2.812   2.914  0.2005  0.1991 -0.1618
    4FIC    C2729268   7.894   2.824   3.035  0.1488  0.2515 -0.1375
    4FIC    C2829269   7.952   2.722   3.126  0.4163  0.3067 -0.2462
    4FIC    C2929270   7.950   2.586   3.108  0.7933  0.3182 -0.4026
    4FIC    C3029271   7.888   2.524   2.995  0.9800  0.2769 -0.4826
    4FIC    C3129272   8.009   2.495   3.200  1.0302  0.3727 -0.4984
    5FIC     F129273   8.480   4.396   3.294 -0.8659  0.2317  0.2916
    5FIC     F229274   8.495   4.619   3.449  0.5293  0.0715  0.4044
    5FIC     O129275   8.468   4.008   3.670 -1.3261  0.0178  0.0585
    5FIC     N529276   8.510   4.662   3.942  2.2073 -0.3110  0.4003
    5FIC     N629277   8.498   4.313   4.205  1.5669 -0.4458  0.1954
    5FIC    C1929278   8.479   4.082   3.953 -0.1564 -0.2111  0.0834
    5FIC    C2029279   8.481   4.171   3.852 -0.0954 -0.1512  0.1376
    5FIC    C2129280   8.475   4.125   3.709 -0.7207 -0.0339  0.1205
    5FIC    C2229281   8.480   4.247   3.626 -0.4721  0.0068  0.1915
    5FIC    C2329282   8.477   4.255   3.487 -0.8626  0.1110  0.2035
    5FIC    C2429283   8.482   4.381   3.430 -0.5118  0.1304  0.2757
    5FIC    C2529284   8.490   4.496   3.511  0.2072  0.0479  0.3337
    5FIC    C2629285   8.493   4.489   3.650  0.6001 -0.0563  0.3222
    5FIC    C2729286   8.488   4.361   3.709  0.2542 -0.0775  0.2493
    5FIC    C2829287   8.489   4.320   3.851  0.5140 -0.1779  0.2186
    5FIC    C2929288   8.496   4.402   3.961  1.1909 -0.2766  0.2577
    5FIC    C3029289   8.504   4.545   3.950  1.7474 -0.2952  0.3359
    5FIC    C3129290   8.497   4.353   4.095  1.3936 -0.3691  0.2233
    1BTD     S229291   6.604   1.847   9.227 -0.1564  0.0282 -0.6109
    1BTD     N129292   6.602   2.006   9.144 -0.2187  0.0601 -0.5498
    1BTD     N229293   6.447   1.873   9.312 -0.0575  0.0272 -0.4261
    1BTD     N329294   6.125   2.214   9.333  0.0319  0.0827  0.0613
    1BTD     N429295   6.316   2.378   9.126 -0.1669  0.1234 -0.0911
    1BTD     C529296   6.450   2.198   9.137 -0.1893  0.0927 -0.3085
    1BTD     C629297   6.491   2.067   9.181 -0.1653  0.0680 -0.4022
    1BTD     C729298   6.404   1.993   9.275 -0.0750  0.0495 -0.3331
    1BTD     C829299   6.281   2.053   9.321 -0.0131  0.0568 -0.1733
    1BTD    C1529300   6.246   2.182   9.274 -0.0396  0.0811 -0.0860
    1BTD    C1629301   6.329   2.253   9.184 -0.1266  0.0987 -0.1526
    1BTD    C4329302   6.228   2.489   9.162 -0.2614 -0.7475  0.1214
    1BTD    C4429303   6.283   2.600   9.273  0.5173 -1.2138 -1.3086
    1BTD    C4529304   6.187   2.701   9.315 -0.6105 -0.6976  0.9334
    1BTD    C4629305   6.157   2.705   9.469  0.4844 -0.7777  0.2554
    1BTD    C4729306   6.423   2.641   9.290  0.6610 -0.4881  0.9540
    1BTD    C4829307   6.527   2.532   9.297  0.3580 -0.2389  0.0011
    1BTD    C4929308   6.672   2.550   9.263 -0.0385 -0.3437  0.5224
    1BTD    C5029309   6.740   2.461   9.168  0.5053 -0.3272 -0.5501
    1BTD    C7529310   6.016   2.288   9.273  0.0565 -0.5822 -1.0090
    1BTD    C7629311   5.908   2.227   9.177  1.0899  0.7047  0.4639
    1BTD    C7729312   5.780   2.154   9.239  0.2392  0.7508  0.1465
    1BTD    C7829313   5.677   2.251   9.289  1.0300  0.0285 -0.5488
    1BTD    C7929314   5.975   2.168   9.050  0.8115 -0.2850 -0.8414
    1BTD    C8029315   5.862   2.152   8.931 -0.0818 -1.5800 -0.1948
    1BTD    C8129316   5.918   2.124   8.797  0.9723  0.1056  0.6892
    1BTD    C8229317   6.022   2.202   8.719 -0.9789 -0.3336  0.6969
    2TTP     S129318   6.625   2.295   8.907 -0.6511 -0.1130  0.2654
    2TTP     S529319   6.382   2.648   8.877  0.4894  0.6710  0.1104
    2TTP     C129320   6.519   2.662   8.758  0.4465  0.0999 -0.0124
    2TTP     C229321   6.602   2.554   8.761  0.0918 -0.1757  0.0284
    2TTP     C329322   6.561   2.456   8.856 -0.1589  0.0540  0.1576
    2TTP     C429323   6.488   2.281   9.026 -0.6083  0.4580  0.3879
    2TTP    C1729324   6.405   2.389   9.023 -0.2535  0.7338  0.3472
    2TTP    C1829325   6.447   2.487   8.928 -0.0029  0.5040  0.2174
    2TTP    C3229326   6.712   2.532   8.672 -0.4540  0.6834  0.5259
    2TTP    C3329327   6.826   2.419   8.675 -0.3777  0.1335  0.3442
    2TTP    C3429328   6.926   2.408   8.787 -1.0559  0.0976 -0.7225
    2TTP    C3529329   6.942   2.283   8.853  0.1260  1.5750 -1.3143
    2TTP    C3629330   7.007   2.293   9.003 -0.3063  0.1638 -0.5040
    2TTP    C3729331   7.146   2.246   8.972  1.0041 -0.0207  0.6863
    2TTP    C3829332   7.262   2.324   9.036  0.5938  0.2596  0.4161
    2TTP    C3929333   7.395   2.268   9.051 -0.5894  0.1653  0.6886
    2TTP    C4029334   7.432   2.146   9.142 -0.1528 -0.3004  0.1550
    2TTP    C4129335   7.584   2.143   9.177  0.6276 -0.4801 -0.0710
    2TTP    C4229336   7.632   2.214   9.294 -0.1438  0.2254 -0.4139
    3TTP     S129337   6.171   1.876   9.531  0.3395 -0.1355  0.2116
    3TTP     S529338   5.875   2.172   9.629  0.3519 -0.1277  0.2260
    3TTP     C129339   5.864   2.037   9.750  0.2549 -0.1980  0.1385
    3TTP     C229340   5.955   1.937   9.726  0.2452 -0.2045  0.1287
    3TTP     C329341   6.036   1.965   9.612  0.3144 -0.1543  0.1905
    3TTP     C429342   6.183   2.012   9.410  0.4365 -0.0653  0.2992
    3TTP    C1729343   6.092   2.111   9.433  0.4461 -0.0588  0.3091
    3TTP    C1829344   6.010   2.084   9.547  0.3772 -0.1090  0.2475
    3TTP    C3229345   6.000   1.792   9.773  0.8826  0.1187 -0.3142
    3TTP    C3329346   6.027   1.767   9.925 -1.0993  0.5940  0.1334
    3TTP    C3429347   6.161   1.817   9.993 -0.3460  0.4026  0.0914
    3TTP    C3529348   6.180   1.955  10.033 -1.4341  0.5831  0.1930
    3TTP    C3629349   6.126   1.956  10.181 -0.5372 -0.9293 -0.1795
    3TTP    C3729350   6.110   2.090  10.265  0.2797  0.4927 -1.3250
    3TTP    C3829351   6.141   2.244  10.241 -1.4734  1.6961  0.0274
    3TTP    C3929352   6.143   2.286  10.110 -0.1254 -0.8264  0.6016
    3TTP    C4029353   6.217   2.418  10.076  0.2413  0.8541  0.4066
    3TTP    C4129354   6.230   2.457   9.927  0.5917 -0.7674  0.3801
    3TTP    C4229355   6.263   2.611   9.890 -1.1581  1.1405  0.0424
    4FIC     F129356   6.016   3.268   8.516 -0.2973 -0.1922 -0.3517
    4FIC     F229357   6.232   3.398   8.413 -0.1904  0.1477  0.2954
    4FIC     O129358   6.249   2.818   8.707 -0.2788 -0.1785 -0.3419
    4FIC     N529359   6.708   3.265   8.402 -0.0231  0.6462  1.2326
    4FIC     N629360   6.847   2.887   8.571 -0.0302  0.5884  1.1101
    4FIC    C1929361   6.538   2.782   8.676 -0.1699  0.1512  0.2798
    4FIC    C2029362   6.471   2.891   8.632 -0.1788  0.1344  0.2520
    4FIC    C2129363   6.322   2.902   8.652 -0.2359 -0.0395 -0.0763
    4FIC    C2229364   6.282   3.030   8.593 -0.2309 -0.0114 -0.0188
    4FIC    C2329365   6.154   3.085   8.586 -0.2729 -0.1345 -0.2496
    4FIC    C2429366   6.140   3.208   8.526 -0.2580 -0.0773 -0.1370
    4FIC    C2529367   6.251   3.275   8.473 -0.2027  0.0978  0.1968
    4FIC    C2629368   6.379   3.222   8.479 -0.1607  0.2214  0.4282
    4FIC    C2729369   6.395   3.097   8.540 -0.1750  0.1659  0.3190
    4FIC    C2829370   6.516   3.013   8.562 -0.1408  0.2626  0.4985
    4FIC    C2929371   6.645   3.044   8.525 -0.0844  0.4373  0.8299
    4FIC    C3029372   6.679   3.165   8.457 -0.0509  0.5516  1.0502
    4FIC    C3129373   6.755   2.957   8.551 -0.0548  0.5194  0.9820
    5FIC     F129374   5.509   2.618  10.218 -1.1762 -0.4521 -0.7844
    5FIC     F229375   5.406   2.418  10.371  1.2851 -0.4317  1.0197
    5FIC     O129376   5.801   2.333   9.862 -1.5175 -0.2391 -1.2367
    5FIC     N529377   5.466   1.928  10.338  4.5804 -0.2505  3.2911
    5FIC     N629378   5.715   1.746  10.029  3.8174 -0.0883  2.5744
    5FIC    C1929379   5.806   2.041   9.882  0.7127 -0.1441  0.3266
    5FIC    C2029380   5.737   2.120   9.966  0.7025 -0.1985  0.3695
    5FIC    C2129381   5.739   2.270   9.949 -0.4812 -0.2451 -0.4637
    5FIC    C2229382   5.654   2.325  10.056 -0.1645 -0.2984 -0.1788
    5FIC    C2329383   5.625   2.459  10.081 -0.9580 -0.3530 -0.7155
    5FIC    C2429384   5.542   2.487  10.188 -0.4445 -0.3970 -0.2941
    5FIC    C2529385   5.489   2.384  10.266  0.8238 -0.3864  0.6357
    5FIC    C2629386   5.517   2.251  10.242  1.6207 -0.3321  1.1749
    5FIC    C2729387   5.601   2.220  10.134  1.1181 -0.2869  0.7606
    5FIC    C2829388   5.650   2.090  10.082  1.7011 -0.2250  1.1344
    5FIC    C2929389   5.621   1.965  10.132  2.9317 -0.1977  2.0204
    5FIC    C3029390   5.536   1.945  10.245  3.8338 -0.2268  2.7161
    5FIC    C3129391   5.672   1.845  10.075  3.4119 -0.1376  2.3203
    1BTD     S229392  10.365   1.461   3.417  0.2993 -0.1064 -0.0870
    1BTD     N129393  10.521   1.476   3.506  0.3238  0.1758 -0.1767
    1BTD     N229394  10.341   1.638   3.399 -0.0868 -0.1447  0.0211
    1BTD     N329395  10.575   2.027   3.522 -0.8283  0.2869  0.0794
    1BTD     N429396  10.796   1.827   3.653 -0.3228  0.6818 -0.1644
    1BTD     C529397  10.662   1.661   3.581 -0.0200  0.4353 -0.1675
    1BTD     C629398  10.546   1.606   3.516  0.0567  0.2245 -0.1243
    1BTD     C729399  10.445   1.696   3.457 -0.1726  0.0451 -0.0135
    1BTD     C829400  10.466   1.839   3.465 -0.4678  0.0855  0.0486
    1BTD    C1529401  10.581   1.889   3.529 -0.5328  0.2944  0.0030
    1BTD    C1629402  10.677   1.801   3.586 -0.3115  0.4672 -0.1037
    1BTD    C4329403  10.838   1.939   3.742  0.6007  1.3890  0.2639
    1BTD    C4429404  10.816   1.891   3.895  1.1631  0.4586 -0.0732
    1BTD    C4529405  10.664   1.847   3.910  0.4397  0.9274  0.7161
    1BTD    C4629406  10.595   1.805   4.036  0.7074  0.8948  0.8434
    1BTD    C4729407  10.880   1.996   3.978  0.5522 -0.0663 -0.6642
    1BTD    C4829408  11.019   2.032   3.959  1.2604  1.7066  0.7840
    1BTD    C4929409  11.053   2.118   4.074 -0.2102 -0.2820  0.2777
    1BTD    C5029410  11.207   2.162   4.082 -0.0935  1.3412 -0.4974
    1BTD    C7529411  10.681   2.120   3.559 -0.7899  0.4313 -0.6045
    1BTD    C7629412  10.669   2.261   3.611  0.5028 -0.8491  0.7072
    1BTD    C7729413  10.790   2.351   3.593  0.2040 -0.0401  0.6943
    1BTD    C7829414  10.832   2.383   3.439  1.6056  0.2034 -0.4571
    1BTD    C7929415  10.618   2.289   3.756  0.1170 -0.5592  1.1809
    1BTD    C8029416  10.507   2.201   3.803  0.5906  0.2380 -0.2348
    1BTD    C8129417  10.440   2.246   3.925 -0.6553  0.4475 -0.4825
    1BTD    C8229418  10.336   2.160   3.995  0.4672 -1.0083  0.7077
    2TTP     S129419  10.833   1.435   3.694 -0.1699  0.1481  0.2471
    2TTP     S529420  11.148   1.723   3.743 -0.0579  0.1987 -0.7338
    2TTP     C129421  11.215   1.558   3.778 -0.0658  0.2662 -0.3903
    2TTP     C229422  11.122   1.459   3.765 -0.1011  0.2545 -0.0671
    2TTP     C329423  10.994   1.510   3.727 -0.1223  0.1919 -0.0792
    2TTP     C429424  10.766   1.600   3.659 -0.1616  0.0806 -0.0966
    2TTP    C1729425  10.859   1.699   3.672 -0.1265  0.0923 -0.4196
    2TTP    C1829426  10.987   1.647   3.710 -0.1047  0.1549 -0.4076
    2TTP    C3229427  11.129   1.308   3.771 -0.7605  0.3618 -0.1703
    2TTP    C3329428  11.248   1.244   3.842  0.4961 -0.1118  0.5309
    2TTP    C3429429  11.230   1.102   3.862  1.1159  0.7280  0.8313
    2TTP    C3529430  11.094   1.040   3.913  0.8525 -0.3485  0.0099
    2TTP    C3629431  11.048   1.068   4.056  0.8985  0.3123 -0.0818
    2TTP    C3729432  11.110   1.024   4.182 -0.7044  0.5793 -0.5190
    2TTP    C3829433  11.076   1.100   4.324 -0.0926 -0.5581  0.8442
    2TTP    C3929434  11.131   1.242   4.319 -0.9058 -0.6214  0.3354
    2TTP    C4029435  11.144   1.301   4.467 -0.2066 -1.0539  0.6635
    2TTP    C4129436  11.025   1.323   4.555  0.5545 -0.1369  0.0215
    2TTP    C4229437  10.944   1.450   4.506  0.3296  0.6714 -2.4533
    3TTP     S129438  10.222   1.987   3.375 -0.1983 -0.1187 -0.0474
    3TTP     S529439  10.433   2.357   3.434 -0.5114  0.0690 -0.1028
    3TTP     C129440  10.271   2.394   3.359 -0.4565 -0.0969 -0.3052
    3TTP     C229441  10.196   2.281   3.336 -0.3567 -0.1647 -0.2999
    3TTP     C329442  10.264   2.162   3.377 -0.3197 -0.0880 -0.1360
    3TTP     C429443  10.384   1.950   3.449 -0.2534  0.0472  0.1550
    3TTP    C1729444  10.458   2.062   3.472 -0.3529  0.1148  0.1497
    3TTP    C1829445  10.390   2.181   3.431 -0.3898  0.0382 -0.0142
    3TTP    C3229446  10.053   2.274   3.280 -0.0272 -1.1053 -0.7987
    3TTP    C3329447  10.045   2.286   3.127  1.3134  0.7382 -0.7599
    3TTP    C3429448   9.967   2.162   3.079  0.2293 -0.3764  0.8021
    3TTP    C3529449   9.827   2.165   3.026  0.5472  1.9249  0.0767
    3TTP    C3629450   9.813   2.167   2.867 -0.7869  0.6990 -0.5361
    3TTP    C3729451   9.670   2.126   2.838 -0.3718 -0.0095  0.3861
    3TTP    C3829452   9.617   2.208   2.722  0.6494  0.1610  1.4778
    3TTP    C3929453   9.547   2.345   2.736 -0.0644 -0.8323 -0.7317
    3TTP    C4029454   9.640   2.473   2.738 -0.2029 -0.1795  0.7085
    3TTP    C4129455   9.743   2.489   2.624 -1.0809 -0.4502 -1.3637
    3TTP    C4229456   9.842   2.597   2.653 -0.5912 -0.4517 -0.5999
    4FIC     F129457  11.826   2.001   4.101  0.6697 -0.3952 -0.2685
    4FIC     F229458  11.999   1.838   3.968  0.2785 -0.0860 -1.1775
    4FIC     O129459  11.352   1.772   3.975  0.3029 -0.2470  0.8242
    4FIC     N529460  11.909   1.440   3.688 -0.5454  0.4641 -1.7055
    4FIC     N629461  11.504   1.294   3.617 -0.7532  0.5175 -0.6684
    4FIC    C1929462  11.348   1.535   3.804 -0.2012  0.1010  0.3439
    4FIC    C2029463  11.461   1.599   3.841 -0.0936  0.0516  0.1046
    4FIC    C2129464  11.455   1.720   3.929  0.1663 -0.1296  0.3769
    4FIC    C2229465  11.594   1.765   3.949  0.2253 -0.1395  0.0090
    4FIC    C2329466  11.638   1.873   4.024  0.4451 -0.2816  0.0869
    4FIC    C2429467  11.775   1.896   4.029  0.4577 -0.2599 -0.3192
    4FIC    C2529468  11.864   1.811   3.960  0.2560 -0.1005 -0.7870
    4FIC    C2629469  11.820   1.703   3.886  0.0361  0.0419 -0.8674
    4FIC    C2729470  11.682   1.679   3.880  0.0198  0.0224 -0.4609
    4FIC    C2829471  11.604   1.573   3.810 -0.1842  0.1462 -0.4207
    4FIC    C2929472  11.655   1.472   3.733 -0.4132  0.3159 -0.7985
    4FIC    C3029473  11.794   1.454   3.709 -0.4851  0.3967 -1.2958
    4FIC    C3129474  11.571   1.374   3.669 -0.5989  0.4258 -0.7247
    5FIC     F129475  10.553   3.137   3.531 -0.2306  0.0293 -0.1088
    5FIC     F229476  10.355   3.241   3.376 -0.5152  0.0553  0.2695
    5FIC     O129477  10.444   2.608   3.491 -0.0393  0.0075 -0.3497
    5FIC     N529478   9.994   3.015   3.125 -0.7882  0.0775  0.6417
    5FIC     N629479   9.949   2.580   3.125 -0.5813  0.0553  0.3772
    5FIC    C1929480  10.217   2.520   3.329 -0.2432  0.0249 -0.0738
    5FIC    C2029481  10.252   2.649   3.345 -0.2804  0.0292 -0.0280
    5FIC    C2129482  10.370   2.686   3.430 -0.1693  0.0197 -0.1779
    5FIC    C2229483  10.380   2.833   3.426 -0.2451  0.0278 -0.0803
    5FIC    C2329484  10.474   2.914   3.490 -0.1874  0.0234 -0.1602
    5FIC    C2429485  10.463   3.051   3.471 -0.2807  0.0329 -0.0392
    5FIC    C2529486  10.361   3.105   3.391 -0.4275  0.0463  0.1557
    5FIC    C2629487  10.267   3.025   3.327 -0.4859  0.0508  0.2365
    5FIC    C2729488  10.276   2.886   3.345 -0.3929  0.0414  0.1162
    5FIC    C2829489  10.194   2.775   3.292 -0.4206  0.0427  0.1560
    5FIC    C2929490  10.084   2.786   3.210 -0.5507  0.0544  0.3302
    5FIC    C3029491  10.035   2.912   3.163 -0.6807  0.0671  0.5009
    5FIC    C3129492  10.010   2.673   3.164 -0.5670  0.0548  0.3550
    1BTD     S229493   9.970   8.402   1.444  0.4537 -0.3513  0.1926
    1BTD     N129494  10.141   8.354   1.472  0.5975  0.2747  0.4342
    1BTD     N229495   9.932   8.421   1.618  0.0648 -0.7267  0.1497
    1BTD     N329496  10.161   8.371   2.025 -0.4685 -0.3629  0.4986
    1BTD     N429497  10.420   8.288   1.844  0.1884  0.8717  0.8493
    1BTD     C529498  10.283   8.321   1.668  0.3757  0.5715  0.6467
    1BTD     C629499  10.160   8.354   1.603  0.3605  0.1764  0.4687
    1BTD     C729500  10.042   8.391   1.685  0.0622 -0.3846  0.3094
    1BTD     C829501  10.055   8.394   1.828 -0.2055 -0.5217  0.3361
    1BTD    C1529502  10.178   8.360   1.888 -0.1795 -0.1217  0.5128
    1BTD    C1629503  10.291   8.324   1.809  0.1079  0.4184  0.6663
    1BTD    C4329504  10.440   8.175   1.945  0.9589  0.1905  0.6058
    1BTD    C4429505  10.566   8.112   1.992  0.4765 -0.6930  0.1143
    1BTD    C4529506  10.627   8.198   2.106 -0.8141 -1.1486  0.5224
    1BTD    C4629507  10.751   8.131   2.148 -0.7691  0.0116 -0.7513
    1BTD    C4729508  10.531   7.957   2.016  0.2932  0.2713 -0.6596
    1BTD    C4829509  10.495   7.876   1.890  0.4333 -0.2983  0.0670
    1BTD    C4929510  10.584   7.883   1.755 -0.2652 -0.1436 -0.2707
    1BTD    C5029511  10.731   7.839   1.786  0.8317 -0.9562 -0.7497
    1BTD    C7529512  10.269   8.366   2.136 -0.1014 -0.3403  0.1508
    1BTD    C7629513  10.317   8.502   2.215  0.2083  0.6459  0.2429
    1BTD    C7729514  10.381   8.604   2.113  1.3985  0.4085 -0.0152
    1BTD    C7829515  10.515   8.580   2.033  0.3441  0.5039 -0.0132
    1BTD    C7929516  10.410   8.493   2.331 -0.2320  0.7980  1.0800
    1BTD    C8029517  10.389   8.375   2.426 -1.5071 -0.6747  0.1424
    1BTD    C8129518  10.481   8.402   2.550  0.0065 -0.2968 -1.3360
    1BTD    C8229519  10.494   8.287   2.648  0.3553  0.0058 -1.0836
    2TTP     S129520  10.494   8.255   1.459  0.1664  0.0611 -0.1103
    2TTP     S529521  10.793   8.279   1.767 -0.0269 -1.3661  0.1991
    2TTP     C129522  10.876   8.259   1.607  0.0639 -0.9560  0.1927
    2TTP     C229523  10.789   8.250   1.502  0.1285 -0.4911  0.0969
    2TTP     C329524  10.653   8.259   1.545  0.1097 -0.4420  0.0249
    2TTP     C429525  10.410   8.275   1.619  0.0758 -0.3495 -0.1040
    2TTP    C1729526  10.497   8.284   1.724  0.0109 -0.8141 -0.0081
    2TTP    C1829527  10.634   8.275   1.681  0.0303 -0.8633  0.0639
    2TTP    C3229528  10.816   8.212   1.365 -0.0205 -0.3999  0.1595
    2TTP    C3329529  10.821   8.307   1.239 -1.2090 -0.8733  0.2670
    2TTP    C3429530  10.812   8.243   1.095  0.8661 -0.3409  0.6752
    2TTP    C3529531  10.887   8.117   1.059 -1.3074  0.8654  1.5433
    2TTP    C3629532  10.830   7.989   1.119  0.6396 -0.4912 -1.1066
    2TTP    C3729533  10.897   7.850   1.088  0.1727  0.1215 -0.8680
    2TTP    C3829534  10.831   7.769   0.974 -0.6491  0.1233 -0.1864
    2TTP    C3929535  10.887   7.630   0.937  0.0903  0.3151 -0.6275
    2TTP    C4029536  10.854   7.521   1.049 -0.4997  0.9466  0.2938
    2TTP    C4129537  10.831   7.367   1.012 -0.9671  1.5624 -1.1188
    2TTP    C4229538  10.779   7.335   0.869 -1.0998 -0.4286 -0.5196
    3TTP     S129539   9.786   8.430   1.957  0.1918 -0.6313 -0.0590
    3TTP     S529540   9.956   8.367   2.347  0.0541  0.2449  0.1472
    3TTP     C129541   9.777   8.398   2.366  0.0398  0.2464  0.0098
    3TTP     C229542   9.714   8.420   2.247  0.0815 -0.0238 -0.0620
    3TTP     C329543   9.805   8.412   2.136  0.1264 -0.2420 -0.0111
    3TTP     C429544   9.964   8.398   1.938  0.2062 -0.6328  0.0784
    3TTP    C1729545  10.027   8.377   2.058  0.1646 -0.3622  0.1501
    3TTP    C1829546   9.937   8.385   2.168  0.1199 -0.1442  0.0992
    3TTP    C3229547   9.578   8.486   2.215  0.9624 -0.2003 -0.4642
    3TTP    C3329548   9.460   8.418   2.130  0.4042 -1.8100  1.0565
    3TTP    C3429549   9.321   8.434   2.192 -0.0717  0.4249  0.8991
    3TTP    C3529550   9.222   8.447   2.090  0.1190 -1.1467  1.1886
    3TTP    C3629551   9.109   8.362   2.115  0.6624 -0.1306  0.6796
    3TTP    C3729552   8.992   8.412   2.019  0.0268  1.4541 -0.3602
    3TTP    C3829553   8.874   8.466   2.089 -0.4783  0.6295 -0.1413
    3TTP    C3929554   8.872   8.580   2.185  1.0890 -0.2733  0.4859
    3TTP    C4029555   8.731   8.627   2.214 -0.2326  0.0043  1.1371
    3TTP    C4129556   8.652   8.703   2.096 -0.5741  1.3511  0.7376
    3TTP    C4229557   8.711   8.837   2.058 -0.3004  0.0114 -0.1491
    4FIC     F129558  11.501   8.067   2.104 -0.0784  0.6051 -0.0846
    4FIC     F229559  11.668   8.079   1.890 -0.2651 -0.1299 -0.2785
    4FIC     O129560  11.026   8.184   1.872 -0.1714  0.5093  0.0568
    4FIC     N529561  11.569   8.181   1.416 -0.6001 -1.2538 -0.4564
    4FIC     N629562  11.165   8.270   1.277 -0.6351 -1.1802 -0.3068
    4FIC    C1929563  11.017   8.238   1.585 -0.3832 -0.2265 -0.0781
    4FIC    C2029564  11.130   8.208   1.651 -0.3526 -0.1733 -0.1061
    4FIC    C2129565  11.127   8.182   1.799 -0.2422  0.2136 -0.0324
    4FIC    C2229566  11.265   8.152   1.840 -0.2353  0.1698 -0.0871
    4FIC    C2329567  11.312   8.122   1.967 -0.1485  0.4508 -0.0501
    4FIC    C2429568  11.448   8.098   1.981 -0.1609  0.3415 -0.1162
    4FIC    C2529569  11.534   8.104   1.870 -0.2574 -0.0368 -0.2161
    4FIC    C2629570  11.488   8.135   1.743 -0.3436 -0.3185 -0.2535
    4FIC    C2729571  11.351   8.159   1.727 -0.3331 -0.2136 -0.1877
    4FIC    C2829572  11.271   8.194   1.607 -0.4091 -0.4396 -0.2033
    4FIC    C2929573  11.318   8.209   1.479 -0.5119 -0.8225 -0.2912
    4FIC    C3029574  11.456   8.194   1.444 -0.5598 -1.0583 -0.3817
    4FIC    C3129575  11.234   8.243   1.369 -0.5794 -1.0173 -0.2992
    5FIC     F129576   9.944   8.145   3.139 -0.1638 -0.5970 -0.1487
    5FIC     F229577   9.724   8.283   3.222  0.1965 -0.1822  0.1190
    5FIC     O129578   9.920   8.227   2.604 -0.2835  0.0124 -0.0513
    5FIC     N529579   9.393   8.541   2.960  0.6297  0.8490  0.5736
    5FIC     N629580   9.418   8.577   2.526  0.4635  1.2412  0.5958
    5FIC    C1929581   9.702   8.388   2.493  0.0184  0.6254  0.2391
    5FIC    C2029582   9.717   8.362   2.625  0.0346  0.4559  0.2041
    5FIC    C2129583   9.831   8.279   2.674 -0.1271  0.1423  0.0523
    5FIC    C2229584   9.817   8.270   2.820 -0.0625  0.0229  0.0519
    5FIC    C2329585   9.900   8.203   2.910 -0.1631 -0.2592 -0.0644
    5FIC    C2429586   9.866   8.209   3.044 -0.0723 -0.3220 -0.0385
    5FIC    C2529587   9.753   8.280   3.087  0.1130 -0.1082  0.0995
    5FIC    C2629588   9.670   8.348   2.998  0.2146  0.1738  0.2159
    5FIC    C2729589   9.703   8.343   2.862  0.1249  0.2418  0.1920
    5FIC    C2829590   9.636   8.402   2.743  0.1922  0.5162  0.2910
    5FIC    C2929591   9.523   8.479   2.743  0.3667  0.7765  0.4357
    5FIC    C3029592   9.452   8.513   2.862  0.5107  0.8154  0.5110
    5FIC    C3129593   9.466   8.533   2.623  0.4191  1.0307  0.5229
    1BTD     S229594   7.190   1.943   7.072  1.0882 -0.0760  0.7576
    1BTD     N129595   7.240   1.771   7.086  0.6852 -0.2359  0.2800
    1BTD     N229596   7.014   1.908   7.087  1.0170  0.3133  0.8413
    1BTD     N329597   6.746   1.527   7.143  0.1440  0.8177  0.1502
    1BTD     N429598   7.024   1.357   7.141 -0.2648  0.1410 -0.5413
    1BTD     C529599   7.124   1.557   7.115  0.1942 -0.0310 -0.1404
    1BTD     C629600   7.129   1.700   7.100  0.5264 -0.0030  0.2114
    1BTD     C729601   7.002   1.777   7.101  0.7120  0.3044  0.5255
    1BTD     C829602   6.877   1.707   7.116  0.5562  0.5684  0.4722
    1BTD    C1529603   6.878   1.567   7.130  0.2304  0.5301  0.1229
    1BTD    C1629604   6.999   1.493   7.129  0.0515  0.2339 -0.1799
    1BTD    C4329605   6.926   1.248   7.127  1.0034 -0.1804  0.7878
    1BTD    C4429606   6.880   1.212   6.993 -0.7070 -0.2532 -0.0242
    1BTD    C4529607   6.798   1.087   6.998  1.0978  0.5276  1.0324
    1BTD    C4629608   6.847   0.943   7.031 -0.0805 -0.5206 -0.6126
    1BTD    C4729609   6.817   1.307   6.897  1.5546  0.1233 -0.0747
    1BTD    C4829610   6.898   1.425   6.847 -0.3896 -0.6028 -0.6371
    1BTD    C4929611   7.022   1.368   6.781 -0.4641 -0.5603  1.1033
    1BTD    C5029612   7.116   1.476   6.716  0.0172  0.7283 -0.0856
    1BTD    C7529613   6.698   1.433   7.256  0.1475 -0.3563 -0.3117
    1BTD    C7629614   6.567   1.352   7.290  1.1996 -0.3022  0.9334
    1BTD    C7729615   6.620   1.282   7.399 -0.4756  0.8764 -0.1203
    1BTD    C7829616   6.506   1.279   7.500 -0.5711 -0.0871  0.7048
    1BTD    C7929617   6.504   1.272   7.161 -1.1899 -0.7201 -1.2780
    1BTD    C8029618   6.431   1.142   7.186  0.8745  0.6425 -0.2123
    1BTD    C8129619   6.361   1.077   7.068 -0.2461  0.6767  0.4091
    1BTD    C8229620   6.248   1.159   6.990 -0.3084  1.1384 -0.1278
    2TTP     S129621   7.406   1.431   7.153 -0.2190 -0.0230 -0.2316
    2TTP     S529622   7.226   1.046   7.219 -0.3791  0.2109  0.7316
    2TTP     C129623   7.407   1.027   7.224 -0.3862  0.1348  0.7040
    2TTP     C229624   7.473   1.145   7.204 -0.3374  0.0580  0.4048
    2TTP     C329625   7.384   1.255   7.184 -0.2924  0.0567  0.1869
    2TTP     C429626   7.225   1.451   7.149 -0.2120  0.0532 -0.2038
    2TTP    C1729627   7.159   1.333   7.169 -0.2608  0.1299  0.0951
    2TTP    C1829628   7.249   1.223   7.188 -0.3059  0.1313  0.3132
    2TTP    C3229629   7.621   1.175   7.178  0.4678 -0.1550 -0.7060
    2TTP    C3329630   7.700   1.152   7.319  1.1381 -0.6849 -0.1475
    2TTP    C3429631   7.825   1.229   7.345  0.1422  0.1749  1.1095
    2TTP    C3529632   7.836   1.374   7.335 -0.4495  0.2686  0.4747
    2TTP    C3629633   7.990   1.406   7.345 -0.7578 -0.9461 -1.3478
    2TTP    C3729634   8.040   1.470   7.483 -1.2680 -0.0062 -0.1312
    2TTP    C3829635   8.191   1.499   7.492  0.3467  0.8843  0.6138
    2TTP    C3929636   8.220   1.562   7.627  0.8594  0.4096 -1.2624
    2TTP    C4029637   8.169   1.699   7.654  0.1323 -0.2597  1.8054
    2TTP    C4129638   8.208   1.755   7.784 -0.9644 -0.5184 -0.4009
    2TTP    C4229639   8.322   1.873   7.783 -0.7005 -0.4090  0.8276
    3TTP     S129640   6.662   1.874   7.012  0.3598  0.0425  0.3152
    3TTP     S529641   6.405   1.530   6.993 -0.4027  0.6314 -0.1547
    3TTP     C129642   6.327   1.666   6.901 -0.1283  0.9471  0.0722
    3TTP     C229643   6.402   1.780   6.901  0.1234  0.7838  0.2307
    3TTP     C329644   6.523   1.764   6.974  0.1085  0.4035  0.1787
    3TTP     C429645   6.740   1.738   7.104  0.0854 -0.2733  0.0885
    3TTP    C1729646   6.665   1.624   7.104 -0.1663 -0.1100 -0.0702
    3TTP    C1829647   6.544   1.639   7.031 -0.1514  0.2703 -0.0182
    3TTP    C3229648   6.369   1.915   6.840  0.8437 -0.7910  0.7497
    3TTP    C3329649   6.416   1.929   6.701  0.6051  1.0213  0.4262
    3TTP    C3429650   6.411   2.074   6.634 -0.8202 -0.5234 -0.9428
    3TTP    C3529651   6.504   2.166   6.719 -0.1249  0.8677 -0.5200
    3TTP    C3629652   6.493   2.311   6.709 -0.5767 -0.6986  0.7617
    3TTP    C3729653   6.494   2.392   6.572 -0.5943 -0.9908 -0.9496
    3TTP    C3829654   6.394   2.348   6.460  0.1610  0.2254  0.1813
    3TTP    C3929655   6.427   2.275   6.335 -0.1109  0.8399  0.4438
    3TTP    C4029656   6.559   2.291   6.259 -0.0112 -0.2806  0.6248
    3TTP    C4129657   6.598   2.435   6.233 -0.9008 -0.9430  1.5916
    3TTP    C4229658   6.660   2.423   6.089 -0.0755  0.1404 -0.7093
    4FIC     F129659   7.369   0.348   6.744 -0.5516  0.0483  0.6286
    4FIC     F229660   7.550   0.231   6.911  0.4233  0.3289 -0.2067
    4FIC     O129661   7.334   0.842   6.963 -0.4838 -0.0816  0.9333
    4FIC     N529662   7.783   0.414   7.307  1.8734  0.6397 -1.1904
    4FIC     N629663   7.719   0.823   7.444  1.7297  0.4816 -0.7837
    4FIC    C1929664   7.494   0.905   7.200  0.4717  0.1403  0.2436
    4FIC    C2029665   7.495   0.785   7.139  0.4165  0.1621  0.1996
    4FIC    C2129666   7.411   0.760   7.017 -0.0869  0.0426  0.5691
    4FIC    C2229667   7.436   0.621   6.976 -0.0143  0.1024  0.4125
    4FIC    C2329668   7.381   0.553   6.868 -0.3735  0.0322  0.6398
    4FIC    C2429669   7.421   0.422   6.849 -0.2157  0.1111  0.4232
    4FIC    C2529670   7.513   0.361   6.935  0.2869  0.2556 -0.0071
    4FIC    C2629671   7.569   0.429   7.042  0.6473  0.3263 -0.2358
    4FIC    C2729672   7.530   0.562   7.064  0.4947  0.2482 -0.0221
    4FIC    C2829673   7.570   0.660   7.167  0.7794  0.2906 -0.1701
    4FIC    C2929674   7.659   0.640   7.270  1.2828  0.4237 -0.5727
    4FIC    C3029675   7.727   0.515   7.290  1.6057  0.5420 -0.9110
    4FIC    C3129676   7.692   0.741   7.365  1.5258  0.4548 -0.6865
    5FIC     F129677   5.989   1.041   6.492 -0.1357  0.1090  0.0402
    5FIC     F229678   5.769   1.197   6.449  0.0110  0.3007 -0.0196
    5FIC     O129679   6.307   1.386   6.763  0.0911 -0.1684  0.1280
    5FIC     N529680   5.680   1.665   6.581  0.3834  0.3785 -0.0428
    5FIC     N629681   5.973   1.903   6.802  0.5310  0.1231  0.0378
    5FIC    C1929682   6.210   1.657   6.818  0.3117 -0.0838  0.1022
    5FIC    C2029683   6.138   1.564   6.752  0.2489 -0.0215  0.0824
    5FIC    C2129684   6.195   1.427   6.727  0.1363 -0.0709  0.0975
    5FIC    C2229685   6.092   1.352   6.653  0.0911  0.0188  0.0693
    5FIC    C2329686   6.099   1.220   6.607 -0.0112  0.0129  0.0708
    5FIC    C2429687   5.989   1.171   6.539 -0.0359  0.1091  0.0405
    5FIC    C2529688   5.876   1.251   6.518  0.0396  0.2076  0.0097
    5FIC    C2629689   5.868   1.382   6.562  0.1419  0.2142  0.0080
    5FIC    C2729690   5.979   1.434   6.632  0.1683  0.1177  0.0384
    5FIC    C2829691   6.003   1.568   6.692  0.2686  0.0969  0.0453
    5FIC    C2929692   5.916   1.674   6.692  0.3613  0.1728  0.0217
    5FIC    C3029693   5.787   1.669   6.631  0.3731  0.2856 -0.0137
    5FIC    C3129694   5.948   1.799   6.752  0.4541  0.1450  0.0309
    1BTD     S229695   3.892  10.872   8.289 -0.1189  0.4804  0.2742
    1BTD     N129696   4.068  10.862   8.252 -0.3200  0.1206 -0.6380
    1BTD     N229697   3.881  11.049   8.260  0.2385  0.6466  1.0853
    1BTD     N329698   4.177  11.392   8.133  0.6040  0.3355  1.0922
    1BTD     N429699   4.406  11.161   8.124 -0.0842 -0.3130 -1.0309
    1BTD     C529700   4.242  11.021   8.185 -0.1886 -0.0978 -0.8178
    1BTD     C629701   4.107  10.985   8.222 -0.1205  0.1416 -0.3076
    1BTD     C729702   4.003  11.089   8.226  0.1919  0.4361  0.6566
    1BTD     C829703   4.038  11.225   8.194  0.4212  0.4764  1.0629
    1BTD    C1529704   4.171  11.256   8.159  0.3442  0.2353  0.5378
    1BTD    C1629705   4.272  11.155   8.155  0.0429 -0.0483 -0.3915
    1BTD    C4329706   4.493  11.272   8.075  0.6699  0.2465  0.1147
    1BTD    C4429707   4.561  11.295   7.937  0.0216 -0.7794  0.1960
    1BTD    C4529708   4.578  11.171   7.853 -0.9293  0.5062 -0.4465
    1BTD    C4629709   4.480  11.068   7.800  1.0642 -0.5597  0.4501
    1BTD    C4729710   4.693  11.376   7.956 -0.2330  0.1437  0.7432
    1BTD    C4829711   4.704  11.472   8.081 -0.0725 -0.4144  0.5892
    1BTD    C4929712   4.817  11.569   8.030  0.3516  1.1516 -1.8111
    1BTD    C5029713   4.884  11.640   8.165  0.3597 -0.6337  0.2137
    1BTD    C7529714   4.298  11.484   8.178  0.7941  0.8187 -0.1715
    1BTD    C7629715   4.319  11.626   8.128  0.0363 -1.5276  0.8326
    1BTD    C7729716   4.391  11.712   8.224 -0.9108  0.0652  0.5977
    1BTD    C7829717   4.539  11.700   8.267  0.4059 -0.6623 -1.0035
    1BTD    C7929718   4.358  11.650   7.968 -1.1070  1.9936 -0.8480
    1BTD    C8029719   4.391  11.774   7.906  0.4575 -1.1175 -0.2569
    1BTD    C8129720   4.489  11.871   7.968 -0.8958  0.0324 -0.7840
    1BTD    C8229721   4.589  11.984   7.910  0.4063  0.3369 -0.2554
    2TTP     S129722   4.405  10.781   8.218  0.1034  0.1805  0.0929
    2TTP     S529723   4.761  10.998   8.115  0.1297 -0.1311 -0.4845
    2TTP     C129724   4.807  10.826   8.153  0.0561 -0.1412 -0.4383
    2TTP     C229725   4.700  10.749   8.187  0.0437 -0.0451 -0.2573
    2TTP     C329726   4.577  10.823   8.184  0.0918  0.0389 -0.1485
    2TTP     C429727   4.359  10.952   8.180  0.1770  0.1900  0.0467
    2TTP    C1729728   4.466  11.030   8.146  0.1894  0.0943 -0.1341
    2TTP    C1829729   4.589  10.956   8.149  0.1414  0.0095 -0.2427
    2TTP    C3229730   4.696  10.599   8.222 -0.3443 -0.3953  0.6298
    2TTP    C3329731   4.655  10.505   8.112 -0.7705  0.7663  0.3649
    2TTP    C3429732   4.613  10.556   7.966 -1.6550  0.1977  0.0853
    2TTP    C3529733   4.722  10.558   7.857  0.1668 -0.7389 -0.1417
    2TTP    C3629734   4.663  10.630   7.741 -0.4419 -1.2418 -0.1685
    2TTP    C3729735   4.773  10.663   7.655  0.2592 -0.1812  0.9148
    2TTP    C3829736   4.830  10.795   7.684 -0.6962 -0.4032 -0.1054
    2TTP    C3929737   4.976  10.837   7.643  0.5049 -0.8526 -0.8342
    2TTP    C4029738   5.016  10.978   7.685  0.1647  0.8971 -1.4793
    2TTP    C4129739   5.166  11.009   7.654  0.8359  0.8460  0.9325
    2TTP    C4229740   5.290  10.932   7.686  0.1545 -2.2902  0.3802
    3TTP     S129741   3.785  11.368   8.139 -0.1608 -0.2219 -0.2931
    3TTP     S529742   4.008  11.671   7.930 -0.1705  0.3208  0.4760
    3TTP     C129743   3.831  11.697   7.898 -0.1551  0.2202  0.3075
    3TTP     C229744   3.752  11.605   7.961 -0.1514  0.0467  0.0602
    3TTP     C329745   3.828  11.511   8.036 -0.1603 -0.0131 -0.0055
    3TTP     C429746   3.963  11.342   8.171 -0.1761 -0.1214 -0.1247
    3TTP    C1729747   4.042  11.434   8.108 -0.1798  0.0521  0.1231
    3TTP    C1829748   3.966  11.529   8.033 -0.1709  0.1119  0.1884
    3TTP    C3229749   3.598  11.600   7.990  0.3877  0.4039 -0.7066
    3TTP    C3329750   3.545  11.661   8.119 -1.7205  0.3836  0.2198
    3TTP    C3429751   3.586  11.802   8.149 -0.9866 -0.4302  0.6377
    3TTP    C3529752   3.490  11.902   8.092 -1.1951 -0.7537 -1.0982
    3TTP    C3629753   3.558  12.037   8.100  0.9394 -0.7042 -0.7656
    3TTP    C3729754   3.477  12.133   8.030  0.1395  0.0242 -0.2345
    3TTP    C3829755   3.579  12.239   7.979  0.1293 -0.9828 -0.3882
    3TTP    C3929756   3.560  12.380   8.043  1.2869  0.7810 -0.0272
    3TTP    C4029757   3.625  12.497   8.004  0.5943 -0.8052  0.6126
    3TTP    C4129758   3.704  12.571   8.117  0.8123  0.5117 -0.5503
    3TTP    C4229759   3.720  12.715   8.088  0.3878 -0.0159 -0.8402
    4FIC     F129760   5.566  11.096   7.945  0.1947 -0.0725  0.6934
    4FIC     F229761   5.668  10.860   8.036  0.0201 -0.4520 -0.0727
    4FIC     O129762   5.038  11.022   8.042  0.1665  0.1030  0.6735
    4FIC     N529763   5.439  10.470   8.237 -0.2509 -0.8724 -1.1890
    4FIC     N629764   5.006  10.460   8.294 -0.2378 -0.6588 -1.0500
    4FIC    C1929765   4.949  10.772   8.164 -0.0101 -0.1974 -0.0654
    4FIC    C2029766   5.077  10.799   8.136  0.0037 -0.2267 -0.0308
    4FIC    C2129767   5.116  10.930   8.073  0.0966 -0.0648  0.3591
    4FIC    C2229768   5.262  10.928   8.056  0.0879 -0.1454  0.2933
    4FIC    C2329769   5.343  11.027   8.003  0.1557 -0.0505  0.5684
    4FIC    C2429770   5.480  11.002   7.997  0.1309 -0.1572  0.4369
    4FIC    C2529771   5.532  10.880   8.044  0.0410 -0.3529  0.0419
    4FIC    C2629772   5.452  10.781   8.098 -0.0271 -0.4487 -0.2341
    4FIC    C2729773   5.313  10.805   8.104 -0.0035 -0.3428 -0.1066
    4FIC    C2829774   5.202  10.721   8.155 -0.0587 -0.4003 -0.3216
    4FIC    C2929775   5.212  10.595   8.209 -0.1502 -0.5803 -0.7143
    4FIC    C3029776   5.337  10.527   8.224 -0.2052 -0.7403 -0.9739
    4FIC    C3129777   5.099  10.522   8.256 -0.1979 -0.6227 -0.8969
    5FIC     F129778   4.009  12.392   7.508  0.3350 -0.3275 -0.4464
    5FIC     F229779   3.753  12.401   7.414  0.1495 -0.0489  0.0753
    5FIC     O129780   3.997  11.933   7.794  0.3760 -0.2412 -0.3055
    5FIC     N529781   3.378  12.086   7.483 -0.0881  0.4133  0.9259
    5FIC     N629782   3.420  11.725   7.725 -0.0187  0.4246  0.9307
    5FIC    C1929783   3.749  11.778   7.806  0.2133  0.0557  0.2429
    5FIC    C2029784   3.762  11.893   7.737  0.2102  0.0231  0.1872
    5FIC    C2129785   3.893  11.967   7.736  0.2969 -0.1322 -0.1001
    5FIC    C2229786   3.872  12.087   7.653  0.2691 -0.1288 -0.0883
    5FIC    C2329787   3.965  12.186   7.623  0.3254 -0.2465 -0.3040
    5FIC    C2429788   3.922  12.291   7.542  0.2833 -0.2163 -0.2429
    5FIC    C2529789   3.790  12.295   7.494  0.1878 -0.0726  0.0262
    5FIC    C2629790   3.697  12.196   7.524  0.1310  0.0452  0.2421
    5FIC    C2729791   3.739  12.090   7.605  0.1724  0.0169  0.1844
    5FIC    C2829792   3.666  11.971   7.655  0.1324  0.1160  0.3644
    5FIC    C2929793   3.535  11.939   7.630  0.0409  0.2652  0.6422
    5FIC    C3029794   3.449  12.020   7.549 -0.0297  0.3461  0.7970
    5FIC    C3129795   3.473  11.821   7.682  0.0086  0.3520  0.7994
    1BTD     S229796   4.658   6.572   8.227 -0.1653  0.1135 -0.3064
    1BTD     N129797   4.557   6.517   8.089  0.1383  0.5453 -0.7052
    1BTD     N229798   4.796   6.462   8.189 -0.3160 -0.1853 -0.0002
    1BTD     N329799   4.893   6.140   7.862 -0.0753 -0.0151 -0.0969
    1BTD     N429800   4.599   6.208   7.739  0.4843  0.8852 -0.9654
    1BTD     C529801   4.583   6.355   7.908  0.3122  0.7119 -0.8305
    1BTD     C629802   4.628   6.425   8.025  0.1129  0.4493 -0.5953
    1BTD     C729803   4.761   6.394   8.081 -0.1415  0.0403 -0.2005
    1BTD     C829804   4.843   6.295   8.017 -0.1837 -0.0856 -0.0613
    1BTD    C1529805   4.795   6.229   7.902  0.0172  0.1817 -0.3017
    1BTD    C1629806   4.666   6.259   7.848  0.2621  0.5758 -0.6818
    1BTD    C4329807   4.598   6.075   7.653  0.5691  0.3225 -0.6237
    1BTD    C4429808   4.517   5.968   7.733  0.0444 -0.0086 -1.2223
    1BTD    C4529809   4.541   5.916   7.877 -0.1708  0.1725  0.0616
    1BTD    C4629810   4.541   6.003   8.002 -0.2735  0.5938  0.9791
    1BTD    C4729811   4.475   5.841   7.671 -0.7671  1.1687 -1.0377
    1BTD    C4829812   4.442   5.825   7.527  0.0221  1.8153 -1.5249
    1BTD    C4929813   4.332   5.911   7.483  0.6448  0.8231  1.2382
    1BTD    C5029814   4.350   5.910   7.333 -0.0993 -0.1485  0.3742
    1BTD    C7529815   4.891   6.046   7.748  0.0860  0.8834  0.8787
    1BTD    C7629816   4.997   6.005   7.646 -0.4511 -0.2919 -1.2738
    1BTD    C7729817   4.942   5.899   7.556 -0.4527  0.4929  0.5135
    1BTD    C7829818   4.955   5.758   7.613 -0.0177  0.4921 -0.5116
    1BTD    C7929819   5.080   6.122   7.581 -0.2637  0.2771  0.1874
    1BTD    C8029820   5.227   6.080   7.544  0.6992  0.7114  0.2246
    1BTD    C8129821   5.313   6.162   7.456 -0.5230  0.8435 -0.8687
    1BTD    C8229822   5.465   6.126   7.465 -0.6903  0.7105  0.4541
    2TTP     S129823   4.362   6.508   7.791 -0.5476  0.0304 -0.0687
    2TTP     S529824   4.375   6.258   7.441  0.1280  0.2079 -0.1736
    2TTP     C129825   4.274   6.405   7.404 -0.1245  0.0349 -0.1681
    2TTP     C229826   4.264   6.490   7.510 -0.3480 -0.0302 -0.1355
    2TTP     C329827   4.336   6.444   7.624 -0.3279  0.0544 -0.1135
    2TTP     C429828   4.464   6.362   7.828 -0.2949  0.2036 -0.0743
    2TTP    C1729829   4.474   6.276   7.722 -0.0714  0.2686 -0.1068
    2TTP    C1829830   4.402   6.323   7.608 -0.0918  0.1839 -0.1289
    2TTP    C3229831   4.227   6.632   7.519  0.2835 -0.5629  0.6320
    2TTP    C3329832   4.320   6.758   7.514 -0.6187  1.8577 -0.2249
    2TTP    C3429833   4.376   6.814   7.648 -0.9060  0.2499  0.0340
    2TTP    C3529834   4.310   6.936   7.727  0.4097  1.1970  0.0517
    2TTP    C3629835   4.161   6.924   7.723  0.0813 -0.9999  0.1466
    2TTP    C3729836   4.094   6.811   7.794  0.5730 -0.3092  0.5685
    2TTP    C3829837   4.109   6.808   7.943 -0.9216  0.3271 -2.7718
    2TTP    C3929838   4.064   6.922   8.039  0.4785  0.1828  0.1979
    2TTP    C4029839   3.925   6.969   7.997  0.2571  0.1682 -0.4811
    2TTP    C4129840   3.820   6.939   8.106  1.1845  0.1719 -0.0371
    2TTP    C4229841   3.781   6.798   8.139 -0.3308  0.4397 -0.3555
    3TTP     S129842   5.101   6.253   8.182 -0.1701 -0.0546 -0.3603
    3TTP     S529843   5.218   5.947   7.904  0.4112  0.1221 -0.3128
    3TTP     C129844   5.337   5.948   8.042  0.3976  0.3556 -0.3036
    3TTP     C229845   5.308   6.043   8.136  0.2176  0.3148 -0.3181
    3TTP     C329846   5.191   6.118   8.103  0.0834  0.0978 -0.3364
    3TTP     C429847   4.982   6.252   8.044 -0.1566 -0.2881 -0.3695
    3TTP    C1729848   5.012   6.157   7.950  0.0235 -0.2474 -0.3553
    3TTP    C1829849   5.129   6.082   7.984  0.1576 -0.0300 -0.3366
    3TTP    C3229850   5.381   6.079   8.275 -0.1229 -1.2698 -0.3966
    3TTP    C3329851   5.319   6.136   8.408 -0.2089 -0.2603  0.9551
    3TTP    C3429852   5.408   6.200   8.525 -0.7259  0.6378  0.1526
    3TTP    C3529853   5.536   6.280   8.483 -1.0987 -0.4325 -0.0894
    3TTP    C3629854   5.663   6.227   8.423 -0.3243 -0.1593  0.6349
    3TTP    C3729855   5.746   6.342   8.363 -0.2778 -1.0123  0.6884
    3TTP    C3829856   5.809   6.307   8.223 -0.1186 -0.8555 -0.0500
    3TTP    C3929857   5.735   6.217   8.132  0.2872  0.5971 -0.3453
    3TTP    C4029858   5.789   6.222   7.993 -0.0602 -0.4970  0.7322
    3TTP    C4129859   5.758   6.103   7.889  0.3260  0.4002 -1.0844
    3TTP    C4229860   5.899   6.064   7.830 -0.0945 -1.1574  1.1754
    4FIC     F129861   4.319   6.180   6.616  0.1506  0.1684 -0.3202
    4FIC     F229862   4.110   6.346   6.563 -0.2974 -0.3308 -0.1277
    4FIC     O129863   4.381   6.259   7.148  0.4075  0.2589 -0.3631
    4FIC     N529864   3.853   6.640   6.867 -0.7586 -0.9840  0.1185
    4FIC     N629865   3.943   6.668   7.294 -0.4676 -0.8128  0.0461
    4FIC    C1929866   4.203   6.445   7.287  0.0706 -0.1858 -0.1944
    4FIC    C2029867   4.195   6.419   7.155  0.0234 -0.1892 -0.1912
    4FIC    C2129868   4.291   6.322   7.091  0.2059  0.0473 -0.2809
    4FIC    C2229869   4.255   6.317   6.948  0.0975 -0.0224 -0.2520
    4FIC    C2329870   4.315   6.241   6.848  0.1987  0.1339 -0.3105
    4FIC    C2429871   4.264   6.253   6.720  0.0617  0.0249 -0.2667
    4FIC    C2529872   4.156   6.338   6.693 -0.1692 -0.2324 -0.1673
    4FIC    C2629873   4.096   6.414   6.792 -0.2712 -0.3892 -0.1088
    4FIC    C2729874   4.146   6.403   6.923 -0.1352 -0.2825 -0.1516
    4FIC    C2829875   4.105   6.469   7.049 -0.1899 -0.3952 -0.1104
    4FIC    C2929876   4.003   6.560   7.064 -0.3985 -0.6430 -0.0155
    4FIC    C3029877   3.921   6.604   6.956 -0.5958 -0.8296  0.0579
    4FIC    C3129878   3.971   6.619   7.191 -0.4353 -0.7348  0.0178
    5FIC     F129879   5.794   5.578   7.480 -0.0178 -0.0582 -0.1848
    5FIC     F229880   5.910   5.431   7.678  0.3705  0.2004 -0.2180
    5FIC     O129881   5.456   5.889   7.768 -0.1918 -0.3912 -0.0279
    5FIC     N529882   5.836   5.442   8.167  0.8041  0.3345 -0.1535
    5FIC     N629883   5.549   5.715   8.352  0.5900  0.0223 -0.0243
    5FIC    C1929884   5.447   5.859   8.059  0.1171 -0.2625 -0.0039
    5FIC    C2029885   5.528   5.787   7.979  0.1457 -0.1887 -0.0420
    5FIC    C2129886   5.527   5.808   7.830 -0.0205 -0.2626 -0.0521
    5FIC    C2229887   5.625   5.713   7.774  0.0607 -0.1520 -0.0958
    5FIC    C2329888   5.659   5.696   7.640 -0.0376 -0.1692 -0.1191
    5FIC    C2429889   5.755   5.600   7.611  0.0704 -0.0486 -0.1599
    5FIC    C2529890   5.815   5.525   7.713  0.2701  0.0841 -0.1771
    5FIC    C2629891   5.781   5.542   7.847  0.3694  0.1022 -0.1540
    5FIC    C2729892   5.684   5.638   7.878  0.2625 -0.0186 -0.1124
    5FIC    C2829893   5.627   5.680   8.008  0.3227 -0.0359 -0.0799
    5FIC    C2929894   5.659   5.630   8.132  0.5072  0.0699 -0.0846
    5FIC    C3029895   5.756   5.527   8.151  0.6698  0.2151 -0.1223
    5FIC    C3129896   5.598   5.677   8.252  0.5516  0.0432 -0.0513
    1BTD     S229897   1.433   9.828   1.870  0.0502 -0.2791  0.0447
    1BTD     N129898   1.610   9.845   1.895  0.2382 -1.1771 -0.6087
    1BTD     N229899   1.407   9.729   2.018 -0.1006  0.7360  0.7215
    1BTD     N329900   1.675   9.556   2.363 -0.0681  1.1818  0.9211
    1BTD     N429901   1.925   9.699   2.211  0.3493 -1.1749 -0.7180
    1BTD     C529902   1.772   9.767   2.062  0.2912 -1.1473 -0.6459
    1BTD     C629903   1.640   9.779   2.006  0.1819 -0.6990 -0.3044
    1BTD     C729904   1.526   9.714   2.075 -0.0077  0.3717  0.4401
    1BTD     C829905   1.550   9.641   2.196 -0.0786  0.9406  0.8059
    1BTD    C1529906   1.681   9.632   2.247  0.0334  0.4701  0.4502
    1BTD    C1629907   1.790   9.694   2.181  0.2161 -0.5618 -0.2671
    1BTD    C4329908   1.991   9.683   2.337 -0.8845  0.9618  0.0806
    1BTD    C4429909   2.085   9.551   2.350 -0.2726 -0.6077  0.4671
    1BTD    C4529910   2.094   9.488   2.503  0.2875 -0.5181 -0.5307
    1BTD    C4629911   2.216   9.404   2.554  1.3867 -0.5141 -0.5275
    1BTD    C4729912   2.157   9.459   2.233  0.5484 -1.2976 -0.8814
    1BTD    C4829913   2.230   9.542   2.118  0.5698 -0.4776 -0.9673
    1BTD    C4929914   2.306   9.451   2.017  0.0039 -0.4382  0.0137
    1BTD    C5029915   2.343   9.543   1.889 -0.8937 -0.1255 -0.5114
    1BTD    C7529916   1.766   9.449   2.384  0.7418  0.2303  0.3395
    1BTD    C7629917   1.756   9.309   2.308 -0.4806  0.9604  0.2200
    1BTD    C7729918   1.863   9.196   2.341 -0.3251 -0.3404  0.5439
    1BTD    C7829919   1.913   9.161   2.490 -1.4956  0.0095 -0.1959
    1BTD    C7929920   1.709   9.303   2.162 -0.2385 -0.9886 -0.9165
    1BTD    C8029921   1.687   9.167   2.103  0.0413 -1.5429  0.9873
    1BTD    C8129922   1.566   9.100   2.150 -0.0947 -0.3540 -0.0818
    1BTD    C8229923   1.563   8.945   2.105  0.3086 -0.6367  0.3748
    2TTP     S129924   1.975   9.958   1.922  0.0115  0.3068  0.0925
    2TTP     S529925   2.261   9.849   2.224  0.6781 -0.6180 -0.8571
    2TTP     C129926   2.340   9.965   2.109  0.5577 -0.5948 -0.9164
    2TTP     C229927   2.257  10.006   2.009  0.3448 -0.3078 -0.6267
    2TTP     C329928   2.127   9.947   2.020  0.2691 -0.0958 -0.3474
    2TTP     C429929   1.896   9.842   2.037  0.1319  0.2837  0.1518
    2TTP    C1729930   1.980   9.801   2.138  0.3448 -0.0035 -0.1379
    2TTP    C1829931   2.109   9.861   2.127  0.4206 -0.2151 -0.4172
    2TTP    C3229932   2.273  10.092   1.890 -0.4170 -1.0096  1.0780
    2TTP    C3329933   2.321  10.036   1.755  0.3151  0.0882  0.5861
    2TTP    C3429934   2.436   9.934   1.774  0.5670 -1.5155 -1.0549
    2TTP    C3529935   2.557   9.936   1.676  0.0257 -1.8509 -0.5635
    2TTP    C3629936   2.649   9.829   1.716 -1.2489  0.5722 -0.6105
    2TTP    C3729937   2.671   9.742   1.591  0.2818 -1.1305  0.2261
    2TTP    C3829938   2.771   9.641   1.616  0.5868  0.5479  0.5119
    2TTP    C3929939   2.912   9.691   1.615 -0.0094 -1.6855  0.0704
    2TTP    C4029940   2.980   9.580   1.666  0.0265 -0.1017  0.3950
    2TTP    C4129941   3.113   9.610   1.736  0.4191 -0.2814  0.3584
    2TTP    C4229942   3.178   9.477   1.792  0.1454  0.2596  0.5529
    3TTP     S129943   1.285   9.589   2.343 -0.0586 -1.2531 -0.0260
    3TTP     S529944   1.504   9.462   2.690  0.1786  0.1323  0.3425
    3TTP     C129945   1.326   9.460   2.730  0.1245 -0.7954  0.1077
    3TTP     C229946   1.248   9.499   2.625  0.0481 -1.2777 -0.0199
    3TTP     C329947   1.326   9.532   2.509  0.0294 -0.9320  0.0631
    3TTP     C429948   1.463   9.590   2.303 -0.0046 -0.3252  0.2088
    3TTP    C1729949   1.541   9.551   2.408  0.0718  0.1570  0.3365
    3TTP    C1829950   1.463   9.518   2.524  0.0905 -0.1886  0.2534
    3TTP    C3229951   1.097   9.492   2.633  0.9603  0.3021 -0.5560
    3TTP    C3329952   1.018   9.387   2.552 -2.0920  1.3716 -1.6598
    3TTP    C3429953   1.073   9.338   2.434 -0.4168  0.9952  1.4861
    3TTP    C3529954   0.974   9.334   2.305  0.3390 -0.4386  0.1728
    3TTP    C3629955   0.935   9.462   2.223  0.2949 -0.1080  0.9115
    3TTP    C3729956   0.902   9.596   2.292 -0.1706 -0.3882 -1.2328
    3TTP    C3829957   0.745   9.630   2.332 -0.8890 -0.1467  0.1277
    3TTP    C3929958   0.655   9.527   2.384  0.0302 -0.2507 -0.6143
    3TTP    C4029959   0.533   9.570   2.472 -0.5718  0.1829  0.2810
    3TTP    C4129960   0.592   9.635   2.601  0.2542  0.0383  0.3146
    3TTP    C4229961   0.486   9.715   2.696  0.2191 -0.7638 -1.4422
    4FIC     F129962   2.990   9.593   2.419  0.2077 -0.2959 -0.4449
    4FIC     F229963   3.126   9.828   2.405 -0.1297 -0.0243  0.6030
    4FIC     O129964   2.514   9.737   2.203  0.3851 -0.3188 -0.8536
    4FIC     N529965   2.983  10.269   2.230 -0.4884  0.3490  1.8183
    4FIC     N629966   2.584  10.334   2.065 -0.2817  0.2761  1.2878
    4FIC    C1929967   2.475  10.013   2.113  0.1258 -0.0680  0.0025
    4FIC    C2029968   2.590   9.967   2.168  0.0944 -0.0730  0.0643
    4FIC    C2129969   2.602   9.824   2.212  0.2344 -0.2055 -0.3948
    4FIC    C2229970   2.738   9.809   2.266  0.1570 -0.1745 -0.1916
    4FIC    C2329971   2.796   9.694   2.320  0.2367 -0.2649 -0.4707
    4FIC    C2429972   2.926   9.703   2.365  0.1370 -0.2117 -0.1932
    4FIC    C2529973   2.996   9.824   2.358 -0.0367 -0.0721  0.3467
    4FIC    C2629974   2.939   9.940   2.305 -0.1171  0.0191  0.6276
    4FIC    C2729975   2.807   9.932   2.258 -0.0183 -0.0331  0.3535
    4FIC    C2829976   2.719  10.034   2.197 -0.0638  0.0348  0.5322
    4FIC    C2929977   2.751  10.166   2.173 -0.2221  0.1714  1.0352
    4FIC    C3029978   2.878  10.222   2.204 -0.3679  0.2687  1.4639
    4FIC    C3129979   2.659  10.257   2.113 -0.2539  0.2282  1.1712
    5FIC     F129980   1.690   9.417   3.461  0.7504 -0.1802 -0.1606
    5FIC     F229981   1.495   9.244   3.539  0.7648 -0.1981 -0.1642
    5FIC     O129982   1.526   9.536   2.959  0.4426  0.2427  0.0390
    5FIC     N529983   1.097   9.081   3.294  0.5662  0.0772 -0.0269
    5FIC     N629984   1.008   9.209   2.886  0.3228  0.4113  0.1298
    5FIC    C1929985   1.281   9.413   2.855  0.3470  0.3756  0.1066
    5FIC    C2029986   1.330   9.390   2.978  0.4239  0.2701  0.0564
    5FIC    C2129987   1.457   9.457   3.024  0.4691  0.2072  0.0243
    5FIC    C2229988   1.481   9.410   3.162  0.5503  0.0958 -0.0279
    5FIC    C2329989   1.586   9.445   3.246  0.6137  0.0079 -0.0710
    5FIC    C2429990   1.589   9.387   3.372  0.6852 -0.0898 -0.1164
    5FIC    C2529991   1.488   9.298   3.413  0.6925 -0.0992 -0.1182
    5FIC    C2629992   1.382   9.263   3.329  0.6295 -0.0119 -0.0752
    5FIC    C2729993   1.379   9.320   3.201  0.5566  0.0875 -0.0289
    5FIC    C2829994   1.282   9.305   3.090  0.4793  0.1945  0.0228
    5FIC    C2929995   1.169   9.226   3.090  0.4622  0.2189  0.0369
    5FIC    C3029996   1.130   9.146   3.202  0.5195  0.1409  0.0017
    5FIC    C3129997   1.081   9.217   2.978  0.3856  0.3245  0.0879
    1BTD     S229998   4.464   0.427   3.610  0.0382 -0.0118 -0.2902
    1BTD     N129999   4.313   0.525   3.611  0.0951  0.0760 -0.2974
    1BTD     N230000   4.495   0.452   3.434  0.0955  0.0236 -0.2750
    1BTD     N330001   4.287   0.678   3.080  0.3145  0.2546 -0.2565
    1BTD     N430002   4.062   0.768   3.298  0.3140  0.3192 -0.2841
    1BTD     C530003   4.185   0.651   3.445  0.2093  0.2022 -0.2901
    1BTD     C630004   4.295   0.568   3.488  0.1508  0.1248 -0.2884
    1BTD     C730005   4.397   0.527   3.388  0.1510  0.0955 -0.2758
    1BTD     C830006   4.384   0.571   3.252  0.2097  0.1450 -0.2656
    1BTD    C1530007   4.274   0.652   3.215  0.2659  0.2204 -0.2678
    1BTD    C1630008   4.176   0.691   3.310  0.2657  0.2486 -0.2798
    1BTD    C4330009   3.968   0.773   3.170 -1.0673 -0.7118 -0.6417
    1BTD    C4430010   3.896   0.659   3.148  1.2117  0.6809 -0.5708
    1BTD    C4530011   3.917   0.585   3.022 -0.7125  1.5753 -0.2935
    1BTD    C4630012   3.865   0.656   2.889  0.2006 -0.2818 -0.6723
    1BTD    C4730013   3.740   0.666   3.201 -0.0522 -1.0211 -0.4448
    1BTD    C4830014   3.684   0.521   3.199  0.8699  0.0959 -0.6728
    1BTD    C4930015   3.557   0.508   3.285 -0.1185  0.7663  0.1352
    1BTD    C5030016   3.438   0.420   3.236 -0.6191  0.2555  1.7036
    1BTD    C7530017   4.252   0.799   2.985 -0.1779  0.9268 -0.1325
    1BTD    C7630018   4.347   0.914   2.975 -0.8071  0.4003  0.0889
    1BTD    C7730019   4.266   1.004   2.886 -0.4886 -0.9266  0.0999
    1BTD    C7830020   4.134   1.065   2.942  0.6270  0.1239 -0.4969
    1BTD    C7930021   4.421   0.981   3.095  0.4483  0.1897  0.3215
    1BTD    C8030022   4.552   1.067   3.051  0.3983  1.1807  0.2372
    1BTD    C8130023   4.607   1.168   3.149  1.3398  0.9070 -0.0516
    1BTD    C8230024   4.710   1.253   3.098 -0.9502 -0.6891  0.6874
    2TTP     S130025   4.003   0.712   3.682 -0.0729 -0.0814 -0.0304
    2TTP     S530026   3.809   1.012   3.443  0.0145  0.3902  0.4841
    2TTP     C130027   3.740   1.018   3.611 -0.0140  0.0923  0.4844
    2TTP     C230028   3.795   0.926   3.695 -0.0426 -0.0709  0.3256
    2TTP     C330029   3.895   0.847   3.629 -0.0432  0.0335  0.1978
    2TTP     C430030   4.073   0.706   3.514 -0.0446  0.2165 -0.0307
    2TTP    C1730031   4.017   0.798   3.431 -0.0159  0.3797  0.1281
    2TTP    C1830032   3.917   0.877   3.496 -0.0153  0.2753  0.2559
    2TTP    C3230033   3.766   0.889   3.841  0.1457 -1.2492  1.0056
    2TTP    C3330034   3.671   0.769   3.868 -0.2135  0.2085 -0.1865
    2TTP    C3430035   3.531   0.771   3.847 -0.6579 -0.4604  0.7089
    2TTP    C3530036   3.477   0.649   3.769 -0.1685  0.7089 -0.5085
    2TTP    C3630037   3.358   0.690   3.682 -0.2067  0.3903 -1.1322
    2TTP    C3730038   3.271   0.579   3.697  0.0644  1.3563 -0.2148
    2TTP    C3830039   3.124   0.609   3.653  0.6253  0.6571 -1.1862
    2TTP    C3930040   3.075   0.478   3.574 -0.9634  0.2009  0.4885
    2TTP    C4030041   2.932   0.430   3.589 -0.4527 -0.8278 -0.3534
    2TTP    C4130042   2.852   0.474   3.720  0.6221  0.9604  0.3080
    2TTP    C4230043   2.719   0.418   3.713  0.3224 -0.0370 -0.1277
    3TTP     S130044   4.582   0.421   3.067 -0.0497 -0.0898 -0.3770
    3TTP     S530045   4.438   0.651   2.733  0.0216  0.2699 -0.1623
    3TTP     C130046   4.574   0.544   2.676  0.0493  0.3484 -0.2425
    3TTP     C230047   4.627   0.467   2.776  0.0290  0.2419 -0.3135
    3TTP     C330048   4.562   0.489   2.901 -0.0094  0.0945 -0.3073
    3TTP     C430049   4.446   0.528   3.124 -0.0776 -0.1684 -0.2970
    3TTP    C1730050   4.393   0.605   3.024 -0.0572 -0.0619 -0.2259
    3TTP    C1830051   4.459   0.583   2.899 -0.0190  0.0855 -0.2322
    3TTP    C3230052   4.733   0.358   2.758  0.8861  1.0522 -0.6981
    3TTP    C3330053   4.894   0.374   2.740 -0.1276 -0.4650  1.5350
    3TTP    C3430054   4.989   0.408   2.857  1.8305  0.7084  0.2963
    3TTP    C3530055   5.134   0.422   2.821 -0.0266  0.3528  0.7657
    3TTP    C3630056   5.219   0.360   2.924 -0.0132  1.0500 -0.8471
    3TTP    C3730057   5.249   0.211   2.949 -0.8167  0.3622  1.4909
    3TTP    C3830058   5.138   0.105   2.965  0.6315  0.3648  0.4042
    3TTP    C3930059   5.085   0.042   3.091  0.0270 -0.3812 -0.5492
    3TTP    C4030060   5.052   0.142   3.217 -0.3544 -0.8583  0.6808
    3TTP    C4130061   5.120   0.117   3.359  0.1255 -0.3469  0.4251
    3TTP    C4230062   5.081  -0.013   3.427  0.4940  0.6403  0.4687
    4FIC     F130063   3.024   1.118   3.229 -0.5203 -0.1656  0.4479
    4FIC     F230064   2.938   1.272   3.436 -0.0570  0.8794 -0.1218
    4FIC     O130065   3.520   0.985   3.402 -0.7150 -0.5758  0.6948
    4FIC     N530066   3.166   1.399   3.856  0.4705  2.0895 -0.7650
    4FIC     N630067   3.571   1.264   3.949  0.2251  1.5584 -0.4572
    4FIC    C1930068   3.613   1.085   3.660 -0.3415  0.2769  0.2382
    4FIC    C2030069   3.492   1.113   3.609 -0.3105  0.3393  0.1983
    4FIC    C2130070   3.451   1.057   3.475 -0.5112 -0.1181  0.4437
    4FIC    C2230071   3.315   1.106   3.450 -0.4177  0.0853  0.3269
    4FIC    C2330072   3.235   1.081   3.338 -0.5381 -0.1926  0.4731
    4FIC    C2430073   3.108   1.138   3.336 -0.4122  0.0848  0.3167
    4FIC    C2530074   3.064   1.218   3.443 -0.1735  0.6232  0.0231
    4FIC    C2630075   3.143   1.243   3.554 -0.0524  0.9029 -0.1242
    4FIC    C2730076   3.271   1.186   3.558 -0.1767  0.6289  0.0306
    4FIC    C2830077   3.378   1.193   3.660 -0.1014  0.8063 -0.0600
    4FIC    C2930078   3.373   1.261   3.780  0.1200  1.3077 -0.3314
    4FIC    C3030079   3.259   1.337   3.821  0.3119  1.7358 -0.5688
    4FIC    C3130080   3.482   1.263   3.872  0.1765  1.4427 -0.3991
    5FIC     F130081   4.564   1.032   2.027  0.3883 -0.2216 -0.1173
    5FIC     F230082   4.608   0.815   1.868 -0.3678 -0.4294 -0.0535
    5FIC     O130083   4.569   0.803   2.518  0.6380  0.0790  0.0207
    5FIC     N530084   4.676   0.340   1.991 -1.2770 -0.5138  0.1366
    5FIC     N630085   4.671   0.205   2.407 -0.9295 -0.2370  0.2315
    5FIC    C1930086   4.613   0.515   2.541  0.0042 -0.0127  0.1306
    5FIC    C2030087   4.610   0.581   2.424 -0.0292 -0.0802  0.0935
    5FIC    C2130088   4.587   0.729   2.420  0.3099 -0.0266  0.0377
    5FIC    C2230089   4.590   0.769   2.278  0.1750 -0.1239  0.0077
    5FIC    C2330090   4.573   0.896   2.224  0.3866 -0.1175 -0.0454
    5FIC    C2430091   4.579   0.908   2.086  0.1964 -0.2217 -0.0650
    5FIC    C2530092   4.602   0.797   2.005 -0.1931 -0.3286 -0.0320
    5FIC    C2630093   4.619   0.669   2.058 -0.4059 -0.3357  0.0211
    5FIC    C2730094   4.613   0.654   2.197 -0.2184 -0.2311  0.0415
    5FIC    C2830095   4.626   0.535   2.284 -0.3593 -0.2085  0.0955
    5FIC    C2930096   4.650   0.406   2.242 -0.7259 -0.2908  0.1391
    5FIC    C3030097   4.664   0.370   2.104 -1.0275 -0.4132  0.1376
    5FIC    C3130098   4.661   0.296   2.333 -0.8358 -0.2607  0.1897
    1BTD     S230099   8.954   1.167  10.717  0.2258 -0.4261  0.3303
    1BTD     N130100   8.934   1.229  10.885 -0.2728 -0.6951  0.3724
    1BTD     N230101   9.109   1.082  10.751  0.5505  0.2022  0.4466
    1BTD     N330102   9.388   1.021  11.124  0.3116  0.9969  0.7591
    1BTD     N430103   9.172   1.201  11.288 -0.7026 -0.1089  0.6680
    1BTD     C530104   9.061   1.212  11.093 -0.4847 -0.3757  0.5279
    1BTD     C630105   9.038   1.185  10.954 -0.1764 -0.3221  0.4659
    1BTD     C730106   9.136   1.103  10.879  0.2842  0.1802  0.5074
    1BTD     C830107   9.252   1.052  10.948  0.4134  0.6037  0.6082
    1BTD    C1530108   9.270   1.081  11.085  0.1004  0.5334  0.6662
    1BTD    C1630109   9.175   1.160  11.157 -0.3435  0.0495  0.6263
    1BTD    C4330110   9.280   1.228  11.380 -0.3786 -1.0624  0.5413
    1BTD    C4430111   9.261   1.185  11.530  0.5892 -1.7151  1.0954
    1BTD    C4530112   9.343   1.252  11.644 -0.0773 -0.3225  1.2860
    1BTD    C4630113   9.499   1.224  11.667 -0.7214  0.1231  0.4432
    1BTD    C4730114   9.215   1.057  11.563 -1.5527  0.4466 -0.1455
    1BTD    C4830115   9.299   0.928  11.598 -0.8481 -0.1213 -0.5298
    1BTD    C4930116   9.342   0.917  11.751  0.1860  0.3163 -0.7410
    1BTD    C5030117   9.221   0.891  11.850 -1.6706  1.5766 -0.4096
    1BTD    C7530118   9.426   0.967  11.261  0.9926 -0.1393  2.2486
    1BTD    C7630119   9.572   0.980  11.321 -0.4988  0.5970 -0.5239
    1BTD    C7730120   9.613   1.127  11.319  1.3507  0.1657  1.4981
    1BTD    C7830121   9.760   1.154  11.310 -0.7405  1.3309 -1.2143
    1BTD    C7930122   9.618   0.903  11.447 -0.2872  0.5636  1.1952
    1BTD    C8030123   9.584   0.760  11.443  0.5391 -0.7106 -0.2110
    1BTD    C8130124   9.640   0.672  11.553 -0.1785 -0.0260 -1.7214
    1BTD    C8230125   9.666   0.544  11.487 -0.9826  0.0103 -0.0548
    2TTP     S130126   8.857   1.402  11.188 -0.4134  0.4217 -0.4800
    2TTP     S530127   9.139   1.525  11.488 -0.3383  0.1786 -0.4504
    2TTP     C130128   9.008   1.650  11.478 -0.0918  0.4248 -0.6488
    2TTP     C230129   8.913   1.620  11.384 -0.1001  0.5143 -0.6696
    2TTP     C330130   8.941   1.496  11.317 -0.3018  0.3918 -0.5296
    2TTP     C430131   8.989   1.277  11.198 -0.6599  0.1755 -0.2816
    2TTP    C1730132   9.084   1.308  11.291 -0.6513  0.0859 -0.2608
    2TTP    C1830133   9.056   1.431  11.358 -0.4497  0.2085 -0.4007
    2TTP    C3230134   8.797   1.697  11.362  0.6301 -1.1560 -0.5881
    2TTP    C3330135   8.657   1.659  11.411 -0.7872  0.9084 -0.2616
    2TTP    C3430136   8.570   1.553  11.328 -1.0786 -0.0515  1.0506
    2TTP    C3530137   8.497   1.615  11.204 -0.8631 -0.2214  0.7305
    2TTP    C3630138   8.435   1.763  11.213 -0.3687  0.0452  2.0447
    2TTP    C3730139   8.535   1.868  11.165  0.5839 -1.4000  1.0738
    2TTP    C3830140   8.530   1.901  11.011 -0.1588  0.3348 -0.8125
    2TTP    C3930141   8.419   1.973  10.957 -0.7538  0.1458 -0.9023
    2TTP    C4030142   8.403   2.119  10.988  0.2565 -0.5681 -0.9403
    2TTP    C4130143   8.448   2.237  10.892  1.0427 -0.8060  0.9922
    2TTP    C4230144   8.432   2.202  10.737  1.4420  0.7031  0.3185
    3TTP     S130145   9.430   0.911  10.748  0.4586  0.2056 -0.0574
    3TTP     S530146   9.692   0.791  11.068 -0.2553 -0.3166  0.3366
    3TTP     C130147   9.749   0.712  10.914 -0.0615 -0.2681  0.3828
    3TTP     C230148   9.671   0.745  10.806  0.1702 -0.1040  0.2639
    3TTP     C330149   9.564   0.833  10.841  0.2031 -0.0106  0.1318
    3TTP     C430150   9.373   0.989  10.902  0.2649  0.1571 -0.1037
    3TTP    C1730151   9.451   0.957  11.010  0.0328 -0.0070  0.0153
    3TTP    C1830152   9.558   0.869  10.975 -0.0002 -0.1004  0.1473
    3TTP    C3230153   9.714   0.711  10.661 -0.4254 -0.3248 -0.2803
    3TTP    C3330154   9.809   0.807  10.587 -0.5194  0.2173 -1.6645
    3TTP    C3430155   9.872   0.758  10.458  1.5056  0.2715  0.8278
    3TTP    C3530156   9.999   0.820  10.414 -1.1289 -0.0323 -0.6092
    3TTP    C3630157  10.014   0.925  10.309  1.5475 -0.4989  0.5602
    3TTP    C3730158   9.967   1.080  10.322 -1.7403  0.5324 -0.7809
    3TTP    C3830159  10.003   1.140  10.451  0.1527 -0.0135  0.3794
    3TTP    C3930160  10.044   1.288  10.429  1.5804  0.1950 -0.1399
    3TTP    C4030161   9.937   1.391  10.479 -0.0225  0.1040 -0.9372
    3TTP    C4130162   9.986   1.534  10.519  0.0462  0.1856  0.2268
    3TTP    C4230163   9.871   1.636  10.518  0.8940 -0.9578  1.0126
    4FIC     F130164   9.607   2.078  11.830  0.1059 -0.4890  0.2402
    4FIC     F230165   9.419   2.220  11.966  0.1340  0.1446 -0.3705
    4FIC     O130166   9.293   1.759  11.524  0.0319 -0.5135  0.3419
    4FIC     N530167   8.925   2.196  11.944  0.1218  1.0384 -1.1762
    4FIC     N630168   8.718   1.918  11.678  0.0584  0.8916 -0.9736
    4FIC    C1930169   9.002   1.781  11.546  0.0322  0.0833 -0.2055
    4FIC    C2030170   9.089   1.856  11.617  0.0498  0.0647 -0.2072
    4FIC    C2130171   9.237   1.838  11.601  0.0482 -0.2509  0.0836
    4FIC    C2230172   9.301   1.934  11.693  0.0701 -0.1858  0.0006
    4FIC    C2330173   9.437   1.955  11.712  0.0768 -0.4043  0.1937
    4FIC    C2430174   9.474   2.052  11.805  0.0983 -0.2863  0.0625
    4FIC    C2530175   9.377   2.125  11.875  0.1129  0.0403 -0.2522
    4FIC    C2630176   9.241   2.105  11.856  0.1063  0.2595 -0.4462
    4FIC    C2730177   9.201   2.007  11.762  0.0844  0.1446 -0.3176
    4FIC    C2830178   9.067   1.962  11.719  0.0725  0.3116 -0.4578
    4FIC    C2930179   8.946   2.009  11.764  0.0813  0.6334 -0.7618
    4FIC    C3030180   8.935   2.112  11.863  0.1035  0.8549 -0.9886
    4FIC    C3130181   8.821   1.959  11.716  0.0687  0.7736 -0.8766
    5FIC     F130182  10.169   0.230  11.439 -0.2391 -0.2090 -0.2306
    5FIC     F230183  10.283   0.104  11.225  0.2151  0.2531 -0.2646
    5FIC     O130184   9.856   0.594  11.189 -0.3211 -0.2016 -0.1171
    5FIC     N530185  10.222   0.183  10.741  0.8099  0.9227 -0.2325
    5FIC     N630186   9.955   0.493  10.589  0.6542  0.8353 -0.1366
    5FIC    C1930187   9.853   0.603  10.896  0.0836  0.2425 -0.1088
    5FIC    C2030188   9.927   0.517  10.968  0.0865  0.2226 -0.1361
    5FIC    C2130189   9.924   0.518  11.118 -0.1287 -0.0118 -0.1385
    5FIC    C2230190  10.016   0.412  11.163 -0.0653  0.0291 -0.1712
    5FIC    C2330191  10.045   0.375  11.294 -0.2074 -0.1358 -0.1845
    5FIC    C2430192  10.136   0.271  11.312 -0.1084 -0.0554 -0.2159
    5FIC    C2530193  10.194   0.207  11.202  0.1256  0.1827 -0.2335
    5FIC    C2630194  10.165   0.243  11.071  0.2687  0.3482 -0.2203
    5FIC    C2730195  10.073   0.348  11.051  0.1714  0.2701 -0.1884
    5FIC    C2830196  10.022   0.410  10.926  0.2739  0.3985 -0.1676
    5FIC    C2930197  10.055   0.374  10.797  0.4995  0.6352 -0.1757
    5FIC    C3030198  10.147   0.269  10.767  0.6695  0.7925 -0.2069
    5FIC    C3130199   9.999   0.440  10.683  0.5834  0.7440 -0.1543
    1BTD     S230200   1.849   9.412   7.732 -0.3230  0.6022  0.0885
    1BTD     N130201   1.896   9.245   7.780 -0.4256  0.4778 -0.2325
    1BTD     N230202   1.685   9.402   7.806 -0.2168  0.6707  0.3324
    1BTD     N330203   1.438   9.083   8.045 -0.1857  0.5848  0.2503
    1BTD     N430204   1.698   8.889   8.013 -0.4430  0.3474 -0.4461
    1BTD     C530205   1.790   9.061   7.902 -0.4316  0.4125 -0.3356
    1BTD     C630206   1.793   9.194   7.846 -0.3779  0.4926 -0.1458
    1BTD     C730207   1.675   9.282   7.860 -0.2610  0.6006  0.1705
    1BTD     C830208   1.559   9.233   7.930 -0.2036  0.6227  0.2812
    1BTD    C1530209   1.560   9.103   7.984 -0.2595  0.5418  0.0873
    1BTD    C1630210   1.674   9.018   7.970 -0.3722  0.4380 -0.2177
    1BTD    C4330211   1.601   8.805   8.073  0.6198  1.5211 -0.6468
    1BTD    C4430212   1.629   8.648   8.062 -0.1005  0.1192  0.1735
    1BTD    C4530213   1.658   8.599   7.907 -0.6994  1.0546 -0.8656
    1BTD    C4630214   1.697   8.472   7.855  1.1870  0.7896  1.0009
    1BTD    C4730215   1.506   8.600   8.133  0.9912  0.2631  0.2649
    1BTD    C4830216   1.483   8.634   8.296  0.2937 -0.3647  1.5488
    1BTD    C4930217   1.613   8.617   8.369 -0.0590 -1.3359  0.3168
    1BTD    C5030218   1.592   8.707   8.495 -0.0073 -0.2429 -0.4548
    1BTD    C7530219   1.398   9.027   8.187 -0.2909  0.1966  0.3596
    1BTD    C7630220   1.425   9.099   8.315  0.0129  0.2847  0.0765
    1BTD    C7730221   1.314   9.170   8.391  0.5420 -1.0912  0.2568
    1BTD    C7830222   1.168   9.153   8.353 -0.2818 -0.3066  0.0745
    1BTD    C7930223   1.573   9.119   8.342 -0.3821  0.0776 -0.3062
    1BTD    C8030224   1.629   9.095   8.491 -0.8732 -0.1985  0.3449
    1BTD    C8130225   1.775   9.142   8.521  0.8709 -0.1448 -0.1348
    1BTD    C8230226   1.832   9.078   8.650 -0.8613  0.3821  0.1049
    2TTP     S130227   2.068   8.966   7.942 -0.0154  0.1548  0.1779
    2TTP     S530228   1.917   8.684   8.229  0.1503  0.3295  0.4373
    2TTP     C130229   2.098   8.697   8.250  0.1727  0.2853  0.2740
    2TTP     C230230   2.155   8.785   8.163  0.1228  0.2284  0.1843
    2TTP     C330231   2.058   8.845   8.076  0.0652  0.2184  0.2413
    2TTP     C430232   1.888   8.953   7.922 -0.0378  0.1991  0.3413
    2TTP    C1730233   1.831   8.865   8.009  0.0120  0.2557  0.4310
    2TTP    C1830234   1.927   8.805   8.096  0.0698  0.2658  0.3741
    2TTP    C3230235   2.301   8.808   8.124  0.6215  0.3207 -0.6310
    2TTP    C3330236   2.373   8.885   8.233 -0.2362  0.1980  0.3740
    2TTP    C3430237   2.470   8.996   8.209 -1.4014  0.0986 -0.6497
    2TTP    C3530238   2.575   9.016   8.092  1.1867  0.2625  0.0348
    2TTP    C3630239   2.660   8.916   8.054 -1.4844 -0.0132  0.5284
    2TTP    C3730240   2.791   8.885   8.131  0.6261  0.6457 -0.3526
    2TTP    C3830241   2.910   8.991   8.107  0.4413 -1.2962  0.2290
    2TTP    C3930242   2.937   9.092   8.219  0.1255  0.5423  0.4118
    2TTP    C4030243   3.036   9.042   8.312  0.1206 -0.9737 -0.6262
    2TTP    C4130244   3.093   9.161   8.393  0.7271 -0.5501  0.0889
    2TTP    C4230245   3.238   9.129   8.404 -0.0574 -1.0150  1.2326
    3TTP     S130246   1.315   9.410   7.872  0.3864  0.1529  0.4465
    3TTP     S530247   1.064   9.085   7.998  0.1114  0.2046  0.0340
    3TTP     C130248   0.960   9.210   7.917  0.2846  0.1770 -0.2338
    3TTP     C230249   1.032   9.318   7.873  0.3797  0.1595 -0.1221
    3TTP     C330250   1.171   9.306   7.902  0.3193  0.1671  0.1787
    3TTP     C430251   1.419   9.285   7.953  0.2132  0.1805  0.7142
    3TTP    C1730252   1.348   9.177   7.996  0.1181  0.1979  0.6025
    3TTP    C1830253   1.208   9.189   7.967  0.1786  0.1903  0.3015
    3TTP    C3230254   0.991   9.419   7.771  0.5923  0.4262 -1.0296
    3TTP    C3330255   0.965   9.559   7.832  0.3355  1.4350 -0.9532
    3TTP    C3430256   0.854   9.627   7.752 -0.1872 -1.3241 -0.1441
    3TTP    C3530257   0.802   9.746   7.842  0.2666  1.7002  1.1058
    3TTP    C3630258   0.687   9.714   7.939 -0.6205  1.2260 -0.4971
    3TTP    C3730259   0.719   9.792   8.071  0.1586 -1.1175  0.9340
    3TTP    C3830260   0.819   9.719   8.161 -0.4394  0.4729 -0.7831
    3TTP    C3930261   0.807   9.753   8.306  0.8731 -1.2242  0.1972
    3TTP    C4030262   0.910   9.729   8.397 -0.4104 -2.1117 -1.1312
    3TTP    C4130263   0.879   9.599   8.465  0.1047 -0.2457 -1.0452
    3TTP    C4230264   0.849   9.600   8.611 -2.3209 -0.4666 -0.6434
    4FIC     F130265   1.975   8.345   8.973  0.0549  0.7088  0.1919
    4FIC     F230266   2.217   8.222   8.950 -0.4927 -0.3245 -0.1743
    4FIC     O130267   1.965   8.638   8.518  0.7027  0.9172  0.3092
    4FIC     N530268   2.557   8.254   8.592 -0.8181 -1.6618 -0.6170
    4FIC     N630269   2.501   8.508   8.241 -0.2016 -1.2906 -0.4518
    4FIC    C1930270   2.192   8.625   8.334  0.4097  0.0038  0.0011
    4FIC    C2030271   2.186   8.556   8.450  0.2681 -0.0083 -0.0138
    4FIC    C2130272   2.065   8.568   8.539  0.4340  0.4778  0.1504
    4FIC    C2230273   2.090   8.480   8.655  0.2151  0.3278  0.0861
    4FIC    C2330274   2.007   8.458   8.764  0.2643  0.6466  0.1895
    4FIC    C2430275   2.053   8.371   8.862  0.0220  0.4165  0.0982
    4FIC    C2530276   2.177   8.308   8.850 -0.2599 -0.1157 -0.0906
    4FIC    C2630277   2.261   8.329   8.741 -0.3107 -0.4363 -0.1943
    4FIC    C2730278   2.216   8.417   8.641 -0.0681 -0.2103 -0.1044
    4FIC    C2830279   2.280   8.461   8.514 -0.0467 -0.4382 -0.1736
    4FIC    C2930280   2.403   8.422   8.466 -0.2750 -0.9494 -0.3512
    4FIC    C3030281   2.487   8.330   8.535 -0.5729 -1.3392 -0.4966
    4FIC    C3130282   2.456   8.470   8.343 -0.2332 -1.1342 -0.4055
    5FIC     F130283   0.371   8.917   8.408 -0.4830  0.9091  0.0331
    5FIC     F230284   0.187   8.985   8.220 -0.1643  0.2396 -0.5267
    5FIC     O130285   0.826   9.103   8.181 -0.1844  0.6876  0.4451
    5FIC     N530286   0.247   9.216   7.786  0.5067 -0.8812 -1.0377
    5FIC     N630287   0.639   9.347   7.646  0.6758 -0.9189 -0.6031
    5FIC    C1930288   0.811   9.234   7.919  0.2262 -0.0307  0.0566
    5FIC    C2030289   0.704   9.185   7.984  0.1386  0.0513 -0.0253
    5FIC    C2130290   0.720   9.119   8.118 -0.0731  0.4268  0.1872
    5FIC    C2230291   0.584   9.077   8.160 -0.1211  0.4222  0.0279
    5FIC    C2330292   0.548   9.011   8.277 -0.3001  0.7081  0.1340
    5FIC    C2430293   0.414   8.982   8.295 -0.3104  0.6387 -0.0574
    5FIC    C2530294   0.319   9.017   8.197 -0.1460  0.2934 -0.3456
    5FIC    C2630295   0.355   9.082   8.080  0.0331  0.0069 -0.4530
    5FIC    C2730296   0.490   9.113   8.060  0.0463  0.0720 -0.2623
    5FIC    C2830297   0.560   9.181   7.949  0.2125 -0.1698 -0.3065
    5FIC    C2930298   0.502   9.230   7.834  0.3990 -0.5295 -0.5598
    5FIC    C3030299   0.362   9.222   7.808  0.4576 -0.7215 -0.8218
    5FIC    C3130300   0.578   9.295   7.731  0.5502 -0.7417 -0.5821
    1BTD     S230301   6.556   8.975   7.579  0.4858  0.2185  0.3568
    1BTD     N130302   6.455   8.826   7.577  0.1835  0.4232  0.2532
    1BTD     N230303   6.657   8.922   7.718  0.5434 -0.1915  0.1625
    1BTD     N330304   6.681   8.547   7.998  0.1146 -0.6566 -0.4197
    1BTD     N430305   6.432   8.428   7.825 -0.3289  0.1006 -0.3083
    1BTD     C530306   6.446   8.620   7.709 -0.0787  0.2456 -0.0414
    1BTD     C630307   6.500   8.749   7.675  0.1431  0.1879  0.0877
    1BTD     C730308   6.613   8.803   7.754  0.3444 -0.1562  0.0371
    1BTD     C830309   6.667   8.725   7.862  0.3141 -0.4251 -0.1402
    1BTD    C1530310   6.611   8.599   7.891  0.0939 -0.3568 -0.2620
    1BTD    C1630311   6.502   8.547   7.815 -0.1004 -0.0251 -0.2132
    1BTD    C4330312   6.476   8.306   7.893  0.3207  0.3854  1.4878
    1BTD    C4430313   6.601   8.244   7.863 -0.5833  0.4248  0.9100
    1BTD    C4530314   6.624   8.163   7.732 -0.0919 -0.7598 -0.0011
    1BTD    C4630315   6.517   8.072   7.673  1.8084  0.3589  0.4036
    1BTD    C4730316   6.653   8.162   7.972 -0.1018  0.6089  0.2508
    1BTD    C4830317   6.606   8.029   8.028  0.4250  1.3654 -0.1255
    1BTD    C4930318   6.542   8.009   8.170 -0.0197 -1.5441 -0.2367
    1BTD    C5030319   6.475   7.892   8.189  0.3190 -0.2321 -0.1491
    1BTD    C7530320   6.653   8.473   8.123 -1.3524 -0.4056 -0.2666
    1BTD    C7630321   6.530   8.487   8.224  1.1264  0.4301  2.6528
    1BTD    C7730322   6.545   8.387   8.337  0.1279 -0.7531  0.1267
    1BTD    C7830323   6.444   8.372   8.430  0.3061 -0.4974 -1.0159
    1BTD    C7930324   6.413   8.604   8.220  0.0417  0.0190 -0.3148
    1BTD    C8030325   6.339   8.635   8.096  0.3500  1.1258 -0.3729
    1BTD    C8130326   6.254   8.771   8.100  0.3005  0.4967  0.0381
    1BTD    C8230327   6.307   8.907   8.153  0.9085 -0.0664 -0.0749
    2TTP     S130328   6.194   8.557   7.532 -0.0249 -0.2386 -0.1090
    2TTP     S530329   6.130   8.224   7.797 -0.4275  0.1302  0.2607
    2TTP     C130330   5.988   8.237   7.685 -0.3392  0.0821  0.1435
    2TTP     C230331   5.999   8.340   7.596 -0.2098 -0.0348  0.0225
    2TTP     C330332   6.120   8.414   7.614 -0.1755 -0.0904  0.0178
    2TTP     C430333   6.336   8.545   7.645 -0.1132 -0.1903  0.0081
    2TTP    C1730334   6.325   8.441   7.734 -0.2428 -0.0735  0.1292
    2TTP    C1830335   6.203   8.368   7.716 -0.2768 -0.0179  0.1338
    2TTP    C3230336   5.893   8.367   7.475 -1.0591 -0.5019 -0.4008
    2TTP    C3330337   5.940   8.299   7.346 -0.3314 -0.0822 -0.2282
    2TTP    C3430338   5.939   8.398   7.233  0.6962  0.1836 -0.3875
    2TTP    C3530339   6.054   8.386   7.125 -0.3388  0.8698 -0.7077
    2TTP    C3630340   5.992   8.339   6.984 -0.3832  0.2849  0.1002
    2TTP    C3730341   6.082   8.317   6.864  1.7082 -0.7612 -0.1930
    2TTP    C3830342   6.017   8.202   6.777  0.8503  0.7943  1.0573
    2TTP    C3930343   6.061   8.212   6.628  0.5727  0.3066  1.1444
    2TTP    C4030344   5.976   8.137   6.549  0.3308 -0.7477  0.8005
    2TTP    C4130345   6.044   8.098   6.414 -1.0320 -0.2475 -1.3355
    2TTP    C4230346   5.934   8.081   6.313  0.4134  0.1139  1.3919
    3TTP     S130347   6.867   8.896   8.009  0.1759 -0.3709 -0.2304
    3TTP     S530348   6.893   8.589   8.309 -0.9228  0.4921  0.7672
    3TTP     C130349   6.985   8.735   8.367 -0.8886  0.5569  0.5526
    3TTP     C230350   6.982   8.838   8.278 -0.5475  0.2944  0.2317
    3TTP     C330351   6.908   8.806   8.160 -0.3006  0.0322  0.1438
    3TTP     C430352   6.775   8.751   7.950  0.1417 -0.4358 -0.0162
    3TTP    C1730353   6.777   8.647   8.040 -0.1996 -0.1734  0.3046
    3TTP    C1830354   6.852   8.679   8.157 -0.4463  0.0887  0.3927
    3TTP    C3230355   7.060   8.970   8.283 -1.6709  0.3099  0.5536
    3TTP    C3330356   7.176   8.997   8.181 -0.1324  1.3647  0.3090
    3TTP    C3430357   7.323   8.928   8.201  0.2433  0.3348 -0.1015
    3TTP    C3530358   7.413   8.967   8.088 -1.1337  0.4282 -0.4917
    3TTP    C3630359   7.546   8.908   8.102  1.6010  1.9856  0.2444
    3TTP    C3730360   7.566   8.778   8.021  0.1099 -0.3675  0.0367
    3TTP    C3830361   7.699   8.720   8.059  0.2178 -0.3649 -0.7177
    3TTP    C3930362   7.771   8.624   7.962  1.1222  0.6293  0.0193
    3TTP    C4030363   7.805   8.684   7.828  1.0390 -0.9953  0.3784
    3TTP    C4130364   7.901   8.615   7.739 -0.5523 -0.5301  0.1695
    3TTP    C4230365   7.993   8.728   7.685  0.1920  0.2071 -0.7294
    4FIC     F130366   5.854   7.511   8.042  0.1657  0.2514  0.3262
    4FIC     F230367   5.592   7.533   7.973  0.4004 -0.6094 -0.8969
    4FIC     O130368   6.055   7.964   7.825 -0.1866  0.5848  0.6925
    4FIC     N530369   5.358   7.887   7.718  0.4866 -1.6094 -2.3948
    4FIC     N630370   5.568   8.237   7.563  0.1640 -1.1754 -1.8619
    4FIC    C1930371   5.876   8.146   7.682 -0.0876 -0.1192 -0.3464
    4FIC    C2030372   5.836   8.031   7.739 -0.0081 -0.1695 -0.3905
    4FIC    C2130373   5.934   7.943   7.811 -0.0666  0.2080  0.1644
    4FIC    C2230374   5.857   7.827   7.861  0.0468  0.0417 -0.0442
    4FIC    C2330375   5.905   7.718   7.934  0.0423  0.2716  0.3065
    4FIC    C2430376   5.813   7.621   7.970  0.1630  0.0441  0.0073
    4FIC    C2530377   5.678   7.632   7.934  0.2835 -0.3994 -0.6228
    4FIC    C2630378   5.630   7.740   7.861  0.2888 -0.6307 -0.9756
    4FIC    C2730379   5.721   7.840   7.824  0.1677 -0.4060 -0.6808
    4FIC    C2830380   5.703   7.966   7.747  0.1388 -0.5535 -0.9187
    4FIC    C2930381   5.585   8.013   7.695  0.2309 -0.9668 -1.5147
    4FIC    C3030382   5.461   7.944   7.708  0.3712 -1.3187 -1.9964
    4FIC    C3130383   5.576   8.136   7.622  0.1935 -1.0793 -1.7023
    5FIC     F130384   7.085   8.287   9.042  0.8553 -0.0312  0.3343
    5FIC     F230385   7.169   8.510   9.173 -0.3310  0.3924  0.3977
    5FIC     O130386   6.994   8.486   8.547  0.8858 -0.6247  0.0882
    5FIC     N530387   7.225   8.973   9.008 -2.0146  0.5779  0.3138
    5FIC     N630388   7.136   9.084   8.595 -1.7514  0.0286  0.1087
    5FIC    C1930389   7.041   8.770   8.496 -0.2367 -0.4313  0.0610
    5FIC    C2030390   7.061   8.712   8.615 -0.1980 -0.2985  0.1206
    5FIC    C2130391   7.034   8.565   8.634  0.3953 -0.4108  0.1307
    5FIC    C2230392   7.066   8.534   8.774  0.2774 -0.2177  0.2005
    5FIC    C2330393   7.056   8.410   8.838  0.6896 -0.2348  0.2327
    5FIC    C2430394   7.092   8.405   8.972  0.4723 -0.0266  0.2994
    5FIC    C2530395   7.135   8.521   9.039 -0.1391  0.1912  0.3320
    5FIC    C2630396   7.144   8.644   8.976 -0.5529  0.2098  0.2999
    5FIC    C2730397   7.109   8.651   8.841 -0.3411  0.0012  0.2329
    5FIC    C2830398   7.108   8.765   8.746 -0.6577 -0.0398  0.1848
    5FIC    C2930399   7.144   8.895   8.773 -1.2614  0.1292  0.1979
    5FIC    C3030400   7.188   8.938   8.902 -1.6735  0.3753  0.2618
    5FIC    C3130401   7.140   8.998   8.675 -1.5275  0.0727  0.1485
    1BTD     S230402   6.763   1.741  10.873 -0.2119 -0.2625 -0.1477
    1BTD     N130403   6.841   1.668  11.018 -0.0324  0.1110 -0.0510
    1BTD     N230404   6.897   1.698  10.761 -0.3841 -0.6155 -0.2174
    1BTD     N330405   7.309   1.475  10.794 -0.4113 -0.6607 -0.1860
    1BTD     N430406   7.240   1.439  11.110  0.0221  0.2345  0.0188
    1BTD     C530407   7.050   1.549  11.062 -0.0093  0.1647 -0.0169
    1BTD     C630408   6.956   1.617  10.977 -0.1065 -0.0389 -0.0751
    1BTD     C730409   6.988   1.634  10.833 -0.3034 -0.4457 -0.1678
    1BTD     C830410   7.111   1.581  10.782 -0.3930 -0.6284 -0.1986
    1BTD    C1530411   7.200   1.515  10.869 -0.2924 -0.4177 -0.1396
    1BTD    C1630412   7.170   1.499  11.007 -0.1029 -0.0258 -0.0499
    1BTD    C4330413   7.379   1.453  11.140  0.5846 -0.0374  1.0172
    1BTD    C4430414   7.460   1.357  11.217  0.2859  1.9856  0.3417
    1BTD    C4530415   7.441   1.205  11.193 -0.6674 -0.0824  0.5297
    1BTD    C4630416   7.565   1.129  11.150  0.3365 -0.8210  2.0633
    1BTD    C4730417   7.555   1.404  11.323  0.0593  0.5089 -1.3726
    1BTD    C4830418   7.491   1.459  11.460  0.0543 -0.2204 -1.0343
    1BTD    C4930419   7.381   1.558  11.464  1.3498  0.8461  0.2916
    1BTD    C5030420   7.420   1.665  11.554  1.3164 -0.3433  0.2690
    1BTD    C7530421   7.395   1.363  10.839 -1.1682  0.0220 -1.5153
    1BTD    C7630422   7.533   1.337  10.775  1.0503 -0.6566  1.2442
    1BTD    C7730423   7.640   1.433  10.832  0.5540 -0.2550 -0.3868
    1BTD    C7830424   7.643   1.591  10.856  0.1937 -0.0024  0.4044
    1BTD    C7930425   7.570   1.200  10.746  0.1971 -0.0936 -0.0855
    1BTD    C8030426   7.719   1.180  10.678  0.7477 -0.2449  0.1891
    1BTD    C8130427   7.844   1.155  10.765  1.1156  0.5067 -0.2134
    1BTD    C8230428   7.855   1.011  10.784 -0.1172  0.9354  1.7163
    2TTP     S130429   6.919   1.522  11.300  0.5780  0.1576 -0.5364
    2TTP     S530430   7.202   1.222  11.422  0.1678  0.1658  0.4537
    2TTP     C130431   7.059   1.216  11.533 -0.1937  0.2080 -0.0020
    2TTP     C230432   6.963   1.308  11.502 -0.0882  0.2079 -0.3347
    2TTP     C330433   6.999   1.387  11.389  0.2817  0.1746 -0.2416
    2TTP     C430434   7.063   1.529  11.188  0.9395  0.1155 -0.0806
    2TTP    C1730435   7.159   1.437  11.219  0.8342  0.1155  0.2520
    2TTP    C1830436   7.122   1.358  11.332  0.4641  0.1488  0.1589
    2TTP    C3230437   6.828   1.315  11.563  0.0822  1.1212 -0.4801
    2TTP    C3330438   6.695   1.260  11.495  0.0693 -0.0890 -0.9365
    2TTP    C3430439   6.640   1.111  11.494 -0.7255 -0.3940 -1.2917
    2TTP    C3530440   6.749   1.013  11.473 -0.4198  0.1269  0.3096
    2TTP    C3630441   6.721   0.866  11.436 -0.4680  1.2595  0.4909
    2TTP    C3730442   6.640   0.774  11.525  1.3475 -0.0467  2.2984
    2TTP    C3830443   6.668   0.748  11.666  0.2981 -0.1236 -0.9427
    2TTP    C3930444   6.578   0.663  11.745  0.4579  0.0637 -0.2908
    2TTP    C4030445   6.552   0.533  11.669  0.1889  0.1248  0.6495
    2TTP    C4130446   6.405   0.472  11.690 -0.3414  0.6683 -1.1075
    2TTP    C4230447   6.396   0.335  11.617 -0.0436 -0.6202 -1.3652
    3TTP     S130448   7.141   1.658  10.502 -0.3186 -0.6156 -0.6802
    3TTP     S530449   7.542   1.502  10.504  0.3376  1.0172  0.9835
    3TTP     C130450   7.516   1.594  10.349  0.4837  0.6217  0.7205
    3TTP     C230451   7.391   1.648  10.340  0.2898  0.0942  0.1912
    3TTP     C330452   7.311   1.618  10.454  0.0186 -0.0167 -0.0257
    3TTP     C430453   7.167   1.566  10.657 -0.4648 -0.2201 -0.4172
    3TTP    C1730454   7.292   1.512  10.667 -0.2706  0.3075  0.1122
    3TTP    C1830455   7.372   1.542  10.552  0.0005  0.4183  0.3288
    3TTP    C3230456   7.343   1.737  10.225 -0.1155 -0.8974 -0.2676
    3TTP    C3330457   7.368   1.897  10.233  0.7776  0.0831 -1.3489
    3TTP    C3430458   7.393   1.962  10.373  0.9399  2.7700  0.7265
    3TTP    C3530459   7.541   1.974  10.393 -1.0593  0.2449  0.8441
    3TTP    C3630460   7.609   2.007  10.525  0.1659  1.1272  0.4051
    3TTP    C3730461   7.596   2.142  10.600  0.5251  0.8484  0.0520
    3TTP    C3830462   7.614   2.255  10.499 -0.0983 -1.1308  0.8761
    3TTP    C3930463   7.569   2.398  10.540 -0.4163 -0.0176 -0.6734
    3TTP    C4030464   7.560   2.505  10.414 -0.0791  1.4017 -0.7902
    3TTP    C4130465   7.694   2.538  10.358  1.3137 -1.2738 -1.7414
    3TTP    C4230466   7.667   2.695  10.321 -0.1543  1.1545  0.1159
    4FIC     F130467   7.425   0.521  11.748 -0.3170 -0.3331  0.1166
    4FIC     F230468   7.381   0.585  12.009 -0.1643 -0.0601  0.0760
    4FIC     O130469   7.189   0.940  11.499 -0.0963 -0.3807 -0.1740
    4FIC     N530470   7.151   0.976  12.207  0.2126  0.2986 -0.1897
    4FIC     N630471   6.975   1.290  11.960  0.3542  0.2063 -0.4085
    4FIC    C1930472   7.064   1.150  11.660  0.1281 -0.1368 -0.3161
    4FIC    C2030473   7.125   1.042  11.713  0.0665 -0.1355 -0.2414
    4FIC    C2130474   7.187   0.938  11.624 -0.0483 -0.2651 -0.1713
    4FIC    C2230475   7.244   0.836  11.712 -0.0913 -0.2275 -0.0996
    4FIC    C2330476   7.312   0.720  11.676 -0.1944 -0.3133 -0.0206
    4FIC    C2430477   7.357   0.637  11.778 -0.2167 -0.2541  0.0372
    4FIC    C2530478   7.334   0.670  11.912 -0.1377 -0.1134  0.0161
    4FIC    C2630479   7.267   0.786  11.949 -0.0349 -0.0272 -0.0626
    4FIC    C2730480   7.220   0.871  11.847 -0.0108 -0.0852 -0.1220
    4FIC    C2830481   7.146   0.999  11.853  0.0893 -0.0231 -0.2099
    4FIC    C2930482   7.105   1.065  11.967  0.1849  0.1126 -0.2538
    4FIC    C3030483   7.130   1.015  12.098  0.1998  0.2144 -0.2183
    4FIC    C3130484   7.034   1.188  11.962  0.2774  0.1633 -0.3387
    5FIC     F130485   8.335   1.604  10.385  0.2420  0.5360  0.0114
    5FIC     F230486   8.340   1.644  10.116  0.1166 -0.2520 -0.1152
    5FIC     O130487   7.801   1.593  10.476  0.2801  0.3210  0.2155
    5FIC     N530488   7.968   1.695   9.794 -0.0365 -1.5382 -0.1516
    5FIC     N630489   7.550   1.679   9.919  0.0188 -1.5475  0.0329
    5FIC    C1930490   7.617   1.628  10.251  0.1741 -0.5083  0.1667
    5FIC    C2030491   7.751   1.629  10.238  0.1693 -0.4235  0.1204
    5FIC    C2130492   7.839   1.610  10.359  0.2260  0.0109  0.1497
    5FIC    C2230493   7.978   1.617  10.310  0.2044 -0.0064  0.0851
    5FIC    C2330494   8.095   1.605  10.385  0.2401  0.3198  0.0844
    5FIC    C2430495   8.215   1.614  10.317  0.2093  0.2281  0.0165
    5FIC    C2530496   8.218   1.635  10.178  0.1448 -0.1781 -0.0488
    5FIC    C2630497   8.102   1.647  10.103  0.1087 -0.5051 -0.0486
    5FIC    C2730498   7.979   1.638  10.170  0.1392 -0.4183  0.0198
    5FIC    C2830499   7.839   1.646  10.121  0.1150 -0.6908  0.0393
    5FIC    C2930500   7.800   1.666   9.990  0.0539 -1.1105 -0.0093
    5FIC    C3030501   7.893   1.682   9.883  0.0044 -1.3442 -0.0873
    5FIC    C3130502   7.663   1.673   9.952  0.0350 -1.3485  0.0143
    1BTD     S230503   1.621   4.440   5.637 -0.3399  0.4092 -0.1017
    1BTD     N130504   1.755   4.547   5.692 -0.2538  0.2730 -0.0482
    1BTD     N230505   1.622   4.338   5.785 -0.3870  0.3016 -0.1756
    1BTD     N330506   1.864   4.322   6.186 -0.3276 -0.1634 -0.2288
    1BTD     N430507   2.029   4.579   6.072 -0.1635 -0.1986 -0.0715
    1BTD     C530508   1.896   4.560   5.892 -0.2086  0.0272 -0.0622
    1BTD     C630509   1.792   4.503   5.812 -0.2641  0.1603 -0.0858
    1BTD     C730510   1.717   4.386   5.864 -0.3386  0.1763 -0.1572
    1BTD     C830511   1.750   4.333   5.993 -0.3540  0.0584 -0.2015
    1BTD    C1530512   1.854   4.393   6.068 -0.2980 -0.0699 -0.1761
    1BTD    C1630513   1.926   4.505   6.018 -0.2261 -0.0852 -0.1073
    1BTD    C4330514   2.049   4.600   6.206 -1.9642 -0.5260 -0.5098
    1BTD    C4430515   1.971   4.691   6.282  0.3714 -0.7878 -0.7009
    1BTD    C4530516   1.827   4.669   6.323 -0.0194  1.2393  0.3240
    1BTD    C4630517   1.738   4.741   6.417  0.8564 -1.7847  0.3494
    1BTD    C4730518   2.066   4.745   6.392 -1.6648  0.0509 -0.4847
    1BTD    C4830519   2.065   4.688   6.534 -0.1386 -0.1693 -0.8421
    1BTD    C4930520   2.113   4.795   6.636  0.1113 -0.5470  0.2629
    1BTD    C5030521   2.231   4.751   6.708 -1.3099  0.4318  0.6348
    1BTD    C7530522   1.991   4.296   6.264  1.1360  0.6033  0.4197
    1BTD    C7630523   2.031   4.259   6.399 -1.7442  0.0437 -0.7409
    1BTD    C7730524   1.972   4.317   6.532  1.7693  1.0346  2.2148
    1BTD    C7830525   1.851   4.395   6.499 -0.3449 -0.6489 -1.0571
    1BTD    C7930526   2.167   4.181   6.411  0.1901  1.1671 -0.4148
    1BTD    C8030527   2.274   4.281   6.378 -1.1728  0.8333 -0.9237
    1BTD    C8130528   2.373   4.300   6.504  0.9152  0.5830  0.2533
    1BTD    C8230529   2.396   4.437   6.534  0.6699 -0.8705  1.3401
    2TTP     S130530   2.030   4.777   5.728 -0.2511 -0.2720  0.3809
    2TTP     S530531   2.313   4.839   6.045  0.2252  0.2298 -0.1359
    2TTP     C130532   2.352   4.954   5.910 -0.2939  0.3770 -0.1644
    2TTP     C230533   2.267   4.942   5.804 -0.4717  0.2309 -0.0064
    2TTP     C330534   2.168   4.841   5.826 -0.2042 -0.0029  0.1427
    2TTP     C430535   1.991   4.662   5.863  0.2680 -0.4193  0.4091
    2TTP    C1730536   2.076   4.675   5.969  0.4457 -0.2731  0.2513
    2TTP    C1830537   2.175   4.775   5.947  0.1783 -0.0393  0.1023
    2TTP    C3230538   2.264   5.027   5.681 -0.3959 -0.0679  0.9056
    2TTP    C3330539   2.135   5.093   5.644 -1.2826 -0.2909 -0.1679
    2TTP    C3430540   2.136   5.184   5.522 -0.4498  0.0602  0.1540
    2TTP    C3530541   2.015   5.139   5.434 -0.6563 -0.1670 -0.3551
    2TTP    C3630542   2.030   5.165   5.282  0.2325 -0.7555  0.5932
    2TTP    C3730543   1.931   5.278   5.238 -0.9871 -0.3918 -0.8829
    2TTP    C3830544   1.790   5.223   5.208  0.1928 -0.0976  0.4266
    2TTP    C3930545   1.715   5.111   5.293 -1.4458  0.7491 -0.8871
    2TTP    C4030546   1.579   5.065   5.250 -0.8535 -0.7128  1.4097
    2TTP    C4130547   1.512   4.945   5.309 -0.8212 -0.3339  0.8468
    2TTP    C4230548   1.566   4.818   5.234  0.3101 -0.5617 -0.3938
    3TTP     S130549   1.543   4.122   6.059  0.2533 -0.2843 -0.6687
    3TTP     S530550   1.696   4.112   6.460 -0.6363  0.4810 -0.2997
    3TTP     C130551   1.553   4.000   6.450 -0.4621  0.2699 -0.4728
    3TTP     C230552   1.497   3.997   6.326 -0.1772  0.0212 -0.5970
    3TTP     C330553   1.565   4.082   6.234 -0.0861 -0.0118 -0.5599
    3TTP     C430554   1.686   4.234   6.069  0.0792 -0.0733 -0.4956
    3TTP    C1730555   1.742   4.237   6.193 -0.2058  0.1756 -0.3716
    3TTP    C1830556   1.674   4.152   6.285 -0.2969  0.2084 -0.4085
    3TTP    C3230557   1.390   3.904   6.263  0.2492 -0.8648 -0.4204
    3TTP    C3330558   1.272   3.997   6.211  0.0496  1.0768 -0.5458
    3TTP    C3430559   1.140   3.964   6.280  0.3585 -0.3869  0.5976
    3TTP    C3530560   1.077   4.102   6.314 -0.5140  0.3499  0.8800
    3TTP    C3630561   1.045   4.195   6.189  1.3391  1.2803 -0.0762
    3TTP    C3730562   1.017   4.345   6.221 -1.3475 -0.2008 -0.9616
    3TTP    C3830563   1.008   4.437   6.097 -1.4587  0.3702  0.7846
    3TTP    C3930564   1.036   4.595   6.128 -0.6394  1.6800 -0.4892
    3TTP    C4030565   1.152   4.639   6.032 -0.4307 -0.7962 -0.1794
    3TTP    C4130566   1.125   4.621   5.894  0.7209  0.5457  0.8112
    3TTP    C4230567   1.220   4.643   5.771 -0.7912 -0.2290 -0.1253
    4FIC     F130568   2.959   5.170   6.419  0.2093 -0.0198 -0.2180
    4FIC     F230569   2.993   5.397   6.272  0.3950 -0.2028 -0.4578
    4FIC     O130570   2.554   4.933   6.148 -0.2624  0.2220  0.2728
    4FIC     N530571   2.755   5.554   5.868  0.3259 -0.2935 -0.4525
    4FIC     N630572   2.431   5.323   5.686 -0.0800 -0.0678 -0.0207
    4FIC    C1930573   2.443   5.066   5.912 -0.2524  0.1330  0.2182
    4FIC    C2030574   2.544   5.116   5.986 -0.1410  0.0794  0.1040
    4FIC    C2130575   2.595   5.043   6.106 -0.1544  0.1305  0.1413
    4FIC    C2230576   2.704   5.125   6.163 -0.0147  0.0507 -0.0085
    4FIC    C2330577   2.782   5.098   6.275  0.0246  0.0616 -0.0328
    4FIC    C2430578   2.878   5.191   6.309  0.1632 -0.0251 -0.1855
    4FIC    C2530579   2.896   5.307   6.233  0.2587 -0.1191 -0.3087
    4FIC    C2630580   2.819   5.335   6.121  0.2202 -0.1307 -0.2850
    4FIC    C2730581   2.720   5.242   6.085  0.0804 -0.0437 -0.1314
    4FIC    C2830582   2.622   5.242   5.973  0.0065 -0.0298 -0.0674
    4FIC    C2930583   2.608   5.339   5.877  0.0640 -0.1041 -0.1509
    4FIC    C3030584   2.689   5.456   5.872  0.2078 -0.2080 -0.3166
    4FIC    C3130585   2.511   5.329   5.773 -0.0156 -0.0836 -0.0788
    5FIC     F130586   1.916   3.564   7.050 -0.5289  0.3098  0.7732
    5FIC     F230587   1.692   3.411   7.068 -0.1993 -0.2717  0.0322
    5FIC     O130588   1.773   3.907   6.657 -0.3128  0.2693  0.6593
    5FIC     N530589   1.268   3.435   6.813  0.4289 -1.1365 -1.1142
    5FIC     N630590   1.202   3.734   6.502  0.5314 -1.0509 -1.0540
    5FIC    C1930591   1.509   3.883   6.534  0.0791 -0.3007 -0.0891
    5FIC    C2030592   1.553   3.803   6.632  0.0118 -0.2677 -0.0315
    5FIC    C2130593   1.691   3.821   6.690 -0.1915  0.0325  0.3619
    5FIC    C2230594   1.707   3.718   6.794 -0.2171 -0.0108  0.3227
    5FIC    C2330595   1.818   3.696   6.875 -0.3816  0.2036  0.6098
    5FIC    C2430596   1.810   3.592   6.967 -0.3715  0.1094  0.5037
    5FIC    C2530597   1.694   3.513   6.976 -0.2014 -0.1903  0.1218
    5FIC    C2630598   1.583   3.534   6.895 -0.0367 -0.4054 -0.1661
    5FIC    C2730599   1.589   3.639   6.802 -0.0442 -0.3144 -0.0643
    5FIC    C2830600   1.490   3.688   6.703  0.1031 -0.4842 -0.2971
    5FIC    C2930601   1.365   3.637   6.681  0.2888 -0.7845 -0.6849
    5FIC    C3030602   1.312   3.526   6.754  0.3652 -0.9772 -0.9195
    5FIC    C3130603   1.276   3.691   6.583  0.4212 -0.9294 -0.8855
    1BTD     S230604   8.502   0.535   6.604  1.1724  0.0210  0.4459
    1BTD     N130605   8.423   0.693   6.572  0.8917 -0.1724  0.1742
    1BTD     N230606   8.510   0.559   6.782  1.0831  0.3186  0.4109
    1BTD     N330607   8.385   0.894   7.086  0.3948  0.5755 -0.1510
    1BTD     N430608   8.277   1.059   6.827  0.1590 -0.0295 -0.4427
    1BTD     C530609   8.348   0.882   6.708  0.5119 -0.0905 -0.1444
    1BTD     C630610   8.408   0.753   6.689  0.7534 -0.0135  0.0765
    1BTD     C730611   8.457   0.678   6.807  0.8605  0.2613  0.2089
    1BTD     C830612   8.444   0.736   6.938  0.7207  0.4454  0.1140
    1BTD    C1530613   8.385   0.863   6.952  0.4854  0.3612 -0.1029
    1BTD    C1630614   8.337   0.935   6.838  0.3823  0.0964 -0.2305
    1BTD    C4330615   8.173   1.108   6.917 -0.0195  0.3720  0.0725
    1BTD    C4430616   8.145   1.256   6.946  0.2123 -1.1130 -0.7202
    1BTD    C4530617   8.240   1.349   7.039  0.8938  0.5255  0.3092
    1BTD    C4630618   8.254   1.493   6.994  0.2037 -0.1421 -0.1007
    1BTD    C4730619   7.992   1.286   6.996  0.0169  1.1049 -1.2693
    1BTD    C4830620   7.883   1.181   6.945  0.6726  0.0757 -0.1785
    1BTD    C4930621   7.810   1.242   6.811  0.7256 -0.4577  0.0297
    1BTD    C5030622   7.789   1.131   6.712  1.1948  0.4816  1.5924
    1BTD    C7530623   8.328   1.001   7.162 -0.5915  1.1035  1.3416
    1BTD    C7630624   8.244   0.984   7.288 -0.2666 -1.0859  0.1563
    1BTD    C7730625   8.125   0.890   7.274  0.2741  1.4508 -0.8845
    1BTD    C7830626   8.052   0.831   7.399 -0.1885 -0.2496  0.6643
    1BTD    C7930627   8.215   1.130   7.337 -2.1689 -0.0418 -1.9264
    1BTD    C8030628   8.202   1.133   7.491  1.2087  0.3238  0.3655
    1BTD    C8130629   8.311   1.065   7.573  0.3149  0.7382 -0.0397
    1BTD    C8230630   8.367   1.128   7.697 -0.7930  0.6980  0.1618
    2TTP     S130631   8.285   1.024   6.441  0.4108 -0.2838 -0.0892
    2TTP     S530632   8.201   1.386   6.658 -0.6378 -0.6969  0.2050
    2TTP     C130633   8.180   1.419   6.480 -0.3560 -0.5133  0.2048
    2TTP     C230634   8.205   1.309   6.402 -0.0153 -0.3749  0.1137
    2TTP     C330635   8.241   1.195   6.481  0.0350 -0.4089  0.0412
    2TTP     C430636   8.306   0.991   6.618  0.1292 -0.4674 -0.0888
    2TTP    C1730637   8.281   1.101   6.696 -0.2115 -0.6058  0.0021
    2TTP    C1830638   8.245   1.215   6.618 -0.2620 -0.5718  0.0747
    2TTP    C3230639   8.236   1.323   6.250  1.5257  1.2770  0.3521
    2TTP    C3330640   8.121   1.356   6.139  0.3939  0.3296 -0.9681
    2TTP    C3430641   8.029   1.245   6.119 -0.6346 -0.2091 -0.9635
    2TTP    C3530642   7.929   1.199   6.238 -0.0663 -1.6745  0.8163
    2TTP    C3630643   7.822   1.110   6.185  0.2326  1.2096 -0.6500
    2TTP    C3730644   7.763   0.993   6.283 -0.5348 -0.5104 -0.9446
    2TTP    C3830645   7.673   1.052   6.392 -0.6472  0.0450 -0.2642
    2TTP    C3930646   7.540   1.120   6.364 -0.2914 -0.3994  0.0589
    2TTP    C4030647   7.461   1.182   6.475  0.5385 -0.8263 -0.1964
    2TTP    C4130648   7.413   1.077   6.587  1.0533 -0.1781  0.3147
    2TTP    C4230649   7.255   1.046   6.595 -0.4972  0.9076  0.3639
    3TTP     S130650   8.549   0.544   7.146  0.4344 -0.0410 -0.4967
    3TTP     S530651   8.511   0.861   7.435  0.4413 -0.8720  0.4255
    3TTP     C130652   8.581   0.715   7.518  0.6051 -1.0596 -0.0372
    3TTP     C230653   8.597   0.608   7.433  0.6127 -0.8140 -0.3492
    3TTP     C330654   8.554   0.638   7.300  0.4892 -0.4689 -0.2344
    3TTP     C430655   8.479   0.690   7.063  0.2711  0.1466 -0.0341
    3TTP    C1730656   8.463   0.796   7.147  0.2631 -0.0990  0.2778
    3TTP    C1830657   8.505   0.766   7.281  0.3862 -0.4441  0.1628
    3TTP    C3230658   8.631   0.465   7.455 -0.4548  0.3359 -0.5364
    3TTP    C3330659   8.641   0.424   7.608  1.1647  0.4728  1.0181
    3TTP    C3430660   8.686   0.277   7.617 -0.2867  0.2698  0.1822
    3TTP    C3530661   8.794   0.248   7.724 -0.1879 -0.7215 -0.2128
    3TTP    C3630662   8.932   0.258   7.688 -1.2537  0.3533 -0.0627
    3TTP    C3730663   8.995   0.136   7.617  1.3540 -0.3044 -0.6834
    3TTP    C3830664   8.940  -0.001   7.682  0.0903  0.5223  0.5645
    3TTP    C3930665   9.020  -0.014   7.812 -0.2093  0.4058  1.0097
    3TTP    C4030666   9.096  -0.151   7.826  0.9789 -0.0100  0.7965
    3TTP    C4130667   9.113  -0.211   7.961 -0.1250 -0.2749 -0.4382
    3TTP    C4230668   9.045  -0.343   7.985 -1.1729 -0.2941  1.0337
    4FIC     F130669   7.852   2.093   6.820 -0.2863  0.0882 -0.0576
    4FIC     F230670   7.901   2.226   6.587  0.0423  0.0841  0.0097
    4FIC     O130671   8.016   1.594   6.688 -0.4237  0.0088  0.0714
    4FIC     N530672   8.090   2.062   6.160  0.4172  0.0216  0.1981
    4FIC     N630673   8.208   1.645   6.105  0.2437 -0.0395  0.2854
    4FIC    C1930674   8.122   1.544   6.420 -0.1582 -0.0233  0.1814
    4FIC    C2030675   8.078   1.664   6.462 -0.1366 -0.0032  0.1463
    4FIC    C2130676   8.025   1.682   6.602 -0.2789  0.0124  0.0905
    4FIC    C2230677   7.987   1.824   6.614 -0.2129  0.0326  0.0632
    4FIC    C2330678   7.933   1.888   6.725 -0.2986  0.0518  0.0107
    4FIC    C2430679   7.905   2.023   6.713 -0.2093  0.0688 -0.0062
    4FIC    C2530680   7.931   2.092   6.594 -0.0401  0.0666  0.0285
    4FIC    C2630681   7.985   2.028   6.482  0.0460  0.0476  0.0808
    4FIC    C2730682   8.014   1.891   6.493 -0.0420  0.0302  0.0987
    4FIC    C2830683   8.071   1.796   6.394  0.0119  0.0081  0.1512
    4FIC    C2930684   8.109   1.824   6.265  0.1688 -0.0003  0.1959
    4FIC    C3030685   8.098   1.955   6.208  0.3047  0.0118  0.1968
    4FIC    C3130686   8.163   1.725   6.178  0.2091 -0.0218  0.2447
    5FIC     F130687   8.045   0.928   8.109  0.1614  0.0057  0.1578
    5FIC     F230688   8.257   0.970   8.273  0.2077 -0.0798  0.1214
    5FIC     O130689   8.294   0.739   7.667  0.0420  0.2758 -0.0257
    5FIC     N530690   8.740   0.895   8.195  0.1893 -0.0102 -0.0618
    5FIC     N630691   8.892   0.739   7.817  0.0863  0.2181 -0.1980
    5FIC    C1930692   8.586   0.712   7.667  0.0437  0.2901 -0.1258
    5FIC    C2030693   8.515   0.758   7.772  0.0720  0.2255 -0.0782
    5FIC    C2130694   8.365   0.769   7.764  0.0689  0.2225 -0.0286
    5FIC    C2230695   8.320   0.822   7.894  0.1040  0.1445  0.0157
    5FIC    C2330696   8.190   0.849   7.934  0.1144  0.1146  0.0695
    5FIC    C2430697   8.171   0.899   8.062  0.1496  0.0389  0.1043
    5FIC    C2530698   8.281   0.920   8.147  0.1731 -0.0050  0.0851
    5FIC    C2630699   8.412   0.893   8.108  0.1633  0.0245  0.0319
    5FIC    C2730700   8.432   0.843   7.978  0.1280  0.1009 -0.0039
    5FIC    C2830701   8.556   0.804   7.907  0.1092  0.1490 -0.0623
    5FIC    C2930702   8.684   0.811   7.956  0.1235  0.1267 -0.0955
    5FIC    C3030703   8.715   0.857   8.087  0.1595  0.0515 -0.0770
    5FIC    C3130704   8.798   0.771   7.879  0.1028  0.1771 -0.1518
    1BTD     S230705   6.625   4.304   6.668 -0.2190  0.3260  0.3119
    1BTD     N130706   6.631   4.283   6.490 -0.2863  0.1000  0.3364
    1BTD     N230707   6.529   4.456   6.661 -0.1711  0.3495  0.1543
    1BTD     N330708   6.344   4.726   6.324 -0.1950 -0.0111 -0.1229
    1BTD     N430709   6.470   4.512   6.113 -0.3370 -0.3186  0.1017
    1BTD     C530710   6.545   4.405   6.296 -0.3109 -0.1148  0.2110
    1BTD     C630711   6.565   4.384   6.437 -0.2704  0.0559  0.2313
    1BTD     C730712   6.507   4.481   6.533 -0.2059  0.1955  0.1293
    1BTD     C830713   6.434   4.594   6.483 -0.1853  0.1575  0.0124
    1BTD    C1530714   6.417   4.611   6.344 -0.2268 -0.0117 -0.0033
    1BTD    C1630715   6.473   4.517   6.251 -0.2889 -0.1461  0.0951
    1BTD    C4330716   6.364   4.558   6.012  0.6379  0.7738 -1.0212
    1BTD    C4430717   6.336   4.490   5.862  1.2034 -0.2952 -1.2768
    1BTD    C4530718   6.283   4.596   5.754 -0.0114 -0.3638  0.1612
    1BTD    C4630719   6.139   4.612   5.751  0.4864 -0.3130  0.0739
    1BTD    C4730720   6.274   4.356   5.889  1.0263  0.7451  0.2284
    1BTD    C4830721   6.274   4.260   5.778 -0.1039  0.0864 -0.4398
    1BTD    C4930722   6.419   4.222   5.745 -1.0525  0.3910 -0.1445
    1BTD    C5030723   6.471   4.258   5.608  1.0465 -0.6081  1.0339
    1BTD    C7530724   6.356   4.815   6.220  0.1723  0.8971  0.6568
    1BTD    C7630725   6.226   4.855   6.137  0.3068  0.0499 -0.1642
    1BTD    C7730726   6.266   4.963   6.037 -0.6401 -1.6638  0.8553
    1BTD    C7830727   6.307   4.907   5.888 -0.4823 -1.6356  0.1254
    1BTD    C7930728   6.095   4.756   6.120 -1.0638 -0.1286 -0.2985
    1BTD    C8030729   5.958   4.811   6.134 -0.9125  0.3637  0.7908
    1BTD    C8130730   5.901   4.886   6.257  0.0225 -0.7043  0.9377
    1BTD    C8230731   5.798   4.990   6.237  0.6842 -0.7697 -0.2095
    2TTP     S130732   6.758   4.269   6.164  0.1718 -0.0087  0.1733
    2TTP     S530733   6.711   4.537   5.831  0.3104  0.0429  0.1948
    2TTP     C130734   6.874   4.458   5.819  0.2656 -0.0484  0.1829
    2TTP     C230735   6.899   4.370   5.921  0.2199 -0.0697  0.1756
    2TTP     C330736   6.789   4.363   6.012  0.2190 -0.0147  0.1792
    2TTP     C430737   6.595   4.348   6.176  0.2167  0.0826  0.1853
    2TTP    C1730738   6.571   4.436   6.074  0.2622  0.1039  0.1926
    2TTP    C1830739   6.680   4.443   5.982  0.2632  0.0491  0.1889
    2TTP    C3230740   7.014   4.272   5.947  1.2968  0.9637 -2.1243
    2TTP    C3330741   7.066   4.176   5.850 -0.0429  0.0355  0.0642
    2TTP    C3430742   6.988   4.045   5.838  0.5463 -1.1429 -0.0776
    2TTP    C3530743   6.845   4.040   5.775 -1.5540  0.2366  0.3970
    2TTP    C3630744   6.757   3.913   5.794 -0.0166 -0.8901  0.4257
    2TTP    C3730745   6.724   3.869   5.928 -1.4541 -0.6889 -0.6119
    2TTP    C3830746   6.837   3.786   6.012 -0.6528  0.0122  0.1608
    2TTP    C3930747   6.920   3.864   6.123  0.8528  0.8938  0.8483
    2TTP    C4030748   7.056   3.808   6.142  1.4338  0.6426 -0.0967
    2TTP    C4130749   7.107   3.824   6.286 -0.0675 -0.3720  0.3847
    2TTP    C4230750   7.097   3.711   6.403 -0.1983 -1.5213  1.1853
    3TTP     S130751   6.320   4.756   6.710 -0.2555 -0.2547 -0.0299
    3TTP     S530752   6.180   5.044   6.423  0.5794 -0.0994 -0.2879
    3TTP     C130753   6.138   5.103   6.590  0.5143  0.0428 -0.3544
    3TTP     C230754   6.179   5.017   6.688  0.2525  0.0033 -0.2786
    3TTP     C330755   6.245   4.902   6.635  0.0941 -0.1408 -0.1655
    3TTP     C430756   6.363   4.697   6.543 -0.1904 -0.3968  0.0366
    3TTP    C1730757   6.322   4.783   6.445  0.0715 -0.3573 -0.0393
    3TTP    C1830758   6.256   4.898   6.497  0.2298 -0.2133 -0.1526
    3TTP    C3230759   6.166   5.046   6.828 -0.4605  0.3591  0.0054
    3TTP    C3330760   6.067   4.971   6.906  0.1583  0.4172  0.3028
    3TTP    C3430761   6.102   4.943   7.055  0.2155  0.0094  1.5933
    3TTP    C3530762   5.980   4.933   7.124  0.4110 -0.3470 -1.1677
    3TTP    C3630763   5.996   4.965   7.279  1.3733  0.8335 -0.5276
    3TTP    C3730764   5.878   4.917   7.369 -0.9868  0.4540 -0.0924
    3TTP    C3830765   5.878   4.964   7.508  0.0108  0.3333 -0.6539
    3TTP    C3930766   6.008   4.938   7.603  0.2991  0.4176  0.2252
    3TTP    C4030767   5.970   4.989   7.746  1.1145 -0.5634  0.4746
    3TTP    C4130768   6.088   4.950   7.839 -0.4814 -0.6559 -0.0410
    3TTP    C4230769   6.175   5.074   7.883 -0.3040 -0.1184 -1.1032
    4FIC     F130770   7.009   5.125   5.349 -0.1172 -0.3092 -0.3002
    4FIC     F230771   7.275   5.095   5.400 -0.0503 -0.6064 -0.8168
    4FIC     O130772   6.806   4.693   5.604 -0.1349  0.0538  0.3058
    4FIC     N530773   7.512   4.743   5.654  0.0333 -0.7749 -1.1277
    4FIC     N630774   7.300   4.411   5.843  0.0058 -0.4315 -0.5503
    4FIC    C1930775   6.988   4.510   5.743 -0.0774 -0.1013  0.0273
    4FIC    C2030776   7.029   4.620   5.677 -0.0755 -0.1811 -0.1049
    4FIC    C2130777   6.929   4.709   5.608 -0.1062 -0.0929  0.0525
    4FIC    C2230778   7.007   4.819   5.546 -0.0955 -0.2146 -0.1526
    4FIC    C2330779   6.958   4.926   5.472 -0.1152 -0.1905 -0.1050
    4FIC    C2430780   7.050   5.017   5.424 -0.0991 -0.3245 -0.3324
    4FIC    C2530781   7.187   5.001   5.450 -0.0648 -0.4775 -0.5984
    4FIC    C2630782   7.237   4.895   5.524 -0.0451 -0.5025 -0.6474
    4FIC    C2730783   7.144   4.801   5.574 -0.0607 -0.3682 -0.4197
    4FIC    C2830784   7.163   4.679   5.655 -0.0470 -0.3536 -0.4010
    4FIC    C2930785   7.283   4.629   5.701 -0.0143 -0.4767 -0.6170
    4FIC    C3030786   7.409   4.692   5.675  0.0117 -0.6402 -0.8970
    4FIC    C3130787   7.292   4.509   5.779 -0.0033 -0.4511 -0.5790
    5FIC     F130788   5.788   5.713   6.171  0.0578 -0.0437  0.1360
    5FIC     F230789   5.716   5.828   6.407 -0.1347 -0.1945  0.1510
    5FIC     O130790   6.054   5.276   6.347  0.3456  0.1062  0.0757
    5FIC     N530791   5.802   5.681   6.872 -0.2065 -0.3042  0.1297
    5FIC     N630792   6.024   5.316   6.962  0.0571 -0.1566  0.0796
    5FIC    C1930793   6.080   5.230   6.635  0.2638  0.0157  0.0687
    5FIC    C2030794   6.016   5.335   6.582  0.1991 -0.0163  0.0833
    5FIC    C2130795   6.007   5.352   6.433  0.2471  0.0343  0.0859
    5FIC    C2230796   5.931   5.476   6.409  0.1545 -0.0187  0.1030
    5FIC    C2330797   5.897   5.533   6.286  0.1583  0.0011  0.1111
    5FIC    C2430798   5.825   5.652   6.289  0.0598 -0.0593  0.1272
    5FIC    C2530799   5.788   5.711   6.410 -0.0391 -0.1369  0.1349
    5FIC    C2630800   5.821   5.654   6.533 -0.0437 -0.1570  0.1270
    5FIC    C2730801   5.895   5.535   6.533  0.0551 -0.0967  0.1106
    5FIC    C2830802   5.945   5.450   6.644  0.0786 -0.0983  0.0988
    5FIC    C2930803   5.929   5.474   6.778  0.0030 -0.1634  0.1018
    5FIC    C3030804   5.860   5.588   6.829 -0.1119 -0.2408  0.1171
    5FIC    C3130805   5.982   5.387   6.878  0.0333 -0.1593  0.0895
    1BTD     S230806  10.497  10.585  10.481  0.3216 -0.0755 -0.2137
    1BTD     N130807  10.510  10.437  10.583  0.2487 -0.0994 -0.2387
    1BTD     N230808  10.347  10.532  10.398  0.3376 -0.0205 -0.2782
    1BTD     N330809  10.063  10.158  10.411  0.2384  0.0479 -0.4549
    1BTD     N430810  10.265  10.041  10.639  0.1290 -0.0489 -0.4065
    1BTD     C530811  10.380  10.232  10.609  0.1876 -0.0720 -0.3266
    1BTD     C630812  10.407  10.360  10.551  0.2403 -0.0670 -0.2911
    1BTD     C730813  10.315  10.413  10.447  0.2904 -0.0226 -0.3130
    1BTD     C830814  10.201  10.336  10.408  0.2847  0.0143 -0.3700
    1BTD    C1530815  10.178  10.210  10.468  0.2320  0.0073 -0.4031
    1BTD    C1630816  10.267  10.159  10.567  0.1835 -0.0346 -0.3819
    1BTD    C4330817  10.142   9.976  10.694  0.7994  0.5474  0.2795
    1BTD    C4430818  10.136   9.914  10.824 -0.2298 -0.2704 -1.2547
    1BTD    C4530819  10.140  10.017  10.954 -0.0700 -0.1226 -0.2665
    1BTD    C4630820  10.254  10.116  10.989  0.4695 -0.8788 -1.1641
    1BTD    C4730821  10.151   9.779  10.871 -0.6400  1.0467  0.9451
    1BTD    C4830822  10.102   9.664  10.780 -0.6722  0.7698  0.2527
    1BTD    C4930823  10.093   9.533  10.854  0.0296  0.5916  0.1677
    1BTD    C5030824  10.088   9.430  10.759  0.6772  0.8223  0.8065
    1BTD    C7530825   9.987  10.026  10.434 -0.5015 -1.7863  0.1981
    1BTD    C7630826  10.008   9.906  10.328  0.9819 -0.1457 -0.5593
    1BTD    C7730827  10.149   9.878  10.279  0.4967 -0.5741 -0.9045
    1BTD    C7830828  10.262   9.824  10.371  1.0401  1.0528  0.5200
    1BTD    C7930829   9.914   9.777  10.345 -0.5453 -0.2620  0.9280
    1BTD    C8030830   9.895   9.737  10.488 -0.4975  0.1956 -0.1625
    1BTD    C8130831   9.753   9.756  10.527 -0.0134  0.0006 -0.0679
    1BTD    C8230832   9.718   9.699  10.659 -1.0654 -0.0941 -0.0530
    2TTP     S130833  10.616  10.143  10.765  0.1054  0.4631  0.2670
    2TTP     S530834  10.455   9.744  10.779 -0.3014  0.6099 -0.1695
    2TTP     C130835  10.619   9.743  10.858 -0.4173  0.4122  0.0728
    2TTP     C230836  10.679   9.866  10.858 -0.2987  0.3552  0.2220
    2TTP     C330837  10.597   9.966  10.796 -0.1118  0.4656  0.1500
    2TTP     C430838  10.452  10.143  10.687  0.2215  0.6607  0.0246
    2TTP    C1730839  10.393  10.020  10.686  0.1024  0.7178 -0.1250
    2TTP    C1830840  10.475   9.921  10.748 -0.0844  0.6075 -0.0527
    2TTP    C3230841  10.821   9.912  10.889  0.0579 -1.5791 -0.2598
    2TTP    C3330842  10.856   9.935  11.035  1.3493 -0.3178  0.4742
    2TTP    C3430843  10.753  10.021  11.113 -0.1715  0.4173 -0.3146
    2TTP    C3530844  10.829  10.128  11.174  0.4683  0.1656  0.3042
    2TTP    C3630845  10.766  10.201  11.279 -0.4828 -0.2764 -1.9409
    2TTP    C3730846  10.707  10.333  11.251  0.6410 -0.0295  0.4466
    2TTP    C3830847  10.631  10.373  11.372  1.0332 -0.0726 -1.2938
    2TTP    C3930848  10.573  10.520  11.356 -0.3559 -0.2547  0.7113
    2TTP    C4030849  10.619  10.618  11.460 -0.8089  0.0218  0.1888
    2TTP    C4130850  10.583  10.591  11.604  0.8311 -1.6888 -0.9857
    2TTP    C4230851  10.666  10.634  11.724 -0.0591 -1.0245  0.0307
    3TTP     S130852  10.048  10.494  10.203  0.1263  0.2420  0.5232
    3TTP     S530853   9.760  10.175  10.193  0.3841  0.0226  0.0758
    3TTP     C130854   9.708  10.304  10.075  0.3472  0.0869  0.1630
    3TTP     C230855   9.794  10.410  10.072  0.2654  0.1588  0.3064
    3TTP     C330856   9.904  10.393  10.162  0.2289  0.1652  0.3524
    3TTP     C430857  10.100  10.365  10.321  0.1631  0.1781  0.4361
    3TTP    C1730858  10.014  10.258  10.324  0.2453  0.1058  0.2929
    3TTP    C1830859   9.904  10.275  10.234  0.2813  0.0997  0.2465
    3TTP    C3230860   9.800  10.536   9.979  0.0222  0.9784  0.1910
    3TTP    C3330861   9.919  10.559   9.900  1.0724  1.1125  0.9158
    3TTP    C3430862   9.905  10.695   9.849  0.4225 -0.1261  0.4473
    3TTP    C3530863  10.030  10.756   9.767  0.4755  0.4102  1.2612
    3TTP    C3630864  10.140  10.779   9.852  1.7204 -0.4687  0.1398
    3TTP    C3730865  10.241  10.873   9.788 -0.9558 -0.5333  0.9792
    3TTP    C3830866  10.319  10.955   9.896 -0.4139 -0.1478  0.0306
    3TTP    C3930867  10.404  10.884  10.002 -1.5466 -0.0712 -0.1710
    3TTP    C4030868  10.415  11.004  10.107  0.0112  0.8300  0.0552
    3TTP    C4130869  10.527  10.981  10.200 -0.5598  0.5294 -1.4532
    3TTP    C4230870  10.655  11.061  10.149  0.0020 -0.5545  0.0195
    4FIC     F130871  10.410   8.965  10.959 -0.7610  0.3712  0.3252
    4FIC     F230872  10.633   8.928  11.110 -0.5372 -0.0834 -0.1094
    4FIC     O130873  10.470   9.483  10.814 -0.3235  0.4399  0.7460
    4FIC     N530874  10.996   9.243  11.225  0.0956 -0.6890 -0.4349
    4FIC     N630875  10.999   9.655  11.081  0.3920 -0.5436 -0.0184
    4FIC    C1930876  10.705   9.631  10.907  0.0449  0.0290  0.4802
    4FIC    C2030877  10.681   9.503  10.937 -0.0734  0.0298  0.3912
    4FIC    C2130878  10.558   9.433  10.886 -0.2611  0.2480  0.5391
    4FIC    C2230879  10.563   9.295  10.937 -0.3536  0.1879  0.3893
    4FIC    C2330880  10.471   9.193  10.916 -0.5300  0.3331  0.4494
    4FIC    C2430881  10.497   9.070  10.976 -0.5880  0.2373  0.2777
    4FIC    C2530882  10.612   9.051  11.054 -0.4729  0.0030  0.0544
    4FIC    C2630883  10.704   9.153  11.075 -0.2966 -0.1433 -0.0069
    4FIC    C2730884  10.680   9.278  11.016 -0.2356 -0.0494  0.1643
    4FIC    C2830885  10.757   9.404  11.019 -0.0587 -0.1554  0.1562
    4FIC    C2930886  10.875   9.426  11.085  0.0904 -0.3824 -0.0324
    4FIC    C3030887  10.941   9.325  11.162  0.0925 -0.5503 -0.2532
    4FIC    C3130888  10.943   9.552  11.082  0.2553 -0.4699 -0.0238
    5FIC     F130889   9.025   9.872  10.118 -0.2205  0.5260 -0.0188
    5FIC     F230890   9.003   9.891   9.847  0.1087  0.2258 -0.0679
    5FIC     O130891   9.464  10.176  10.207 -0.0298  0.2112  0.1214
    5FIC     N530892   9.284  10.135   9.521  0.7179 -0.4306 -0.0389
    5FIC     N630893   9.631  10.369   9.645  0.8008 -0.6163  0.0803
    5FIC    C1930894   9.598  10.302   9.980  0.3526 -0.1874  0.1240
    5FIC    C2030895   9.489  10.225   9.968  0.2916 -0.0968  0.0906
    5FIC    C2130896   9.425  10.164  10.089  0.0932  0.1087  0.0918
    5FIC    C2230897   9.309  10.086  10.041  0.0741  0.1624  0.0510
    5FIC    C2330898   9.219  10.012  10.117 -0.0849  0.3388  0.0370
    5FIC    C2430899   9.117   9.947  10.049 -0.0693  0.3559 -0.0031
    5FIC    C2530900   9.106   9.957   9.910  0.1007  0.2007 -0.0284
    5FIC    C2630901   9.195  10.031   9.833  0.2594  0.0248 -0.0150
    5FIC    C2730902   9.299  10.098   9.900  0.2463  0.0050  0.0255
    5FIC    C2830903   9.409  10.183   9.850  0.3872 -0.1607  0.0491
    5FIC    C2930904   9.433  10.217   9.719  0.5705 -0.3393  0.0350
    5FIC    C3030905   9.351  10.172   9.611  0.6511 -0.3889 -0.0055
    5FIC    C3130906   9.542  10.300   9.679  0.6962 -0.4907  0.0601
    1BTD     S230907   8.041   0.869   5.143 -0.3459 -0.2990 -0.4430
    1BTD     N130908   8.205   0.941   5.153 -0.3977 -0.2086 -0.2383
    1BTD     N230909   7.999   0.950   4.988 -0.3105 -0.0857 -0.3411
    1BTD     N330910   8.210   1.247   4.692 -0.3326  0.5122  0.2367
    1BTD     N430911   8.465   1.236   4.895 -0.4401  0.3608  0.3635
    1BTD     C530912   8.338   1.095   5.016 -0.4187  0.0905  0.0743
    1BTD     C630913   8.220   1.018   5.047 -0.3870 -0.0331 -0.1109
    1BTD     C730914   8.104   1.024   4.954 -0.3378  0.0356 -0.1683
    1BTD     C830915   8.113   1.105   4.836 -0.3233  0.2246 -0.0377
    1BTD    C1530916   8.230   1.178   4.810 -0.3559  0.3408  0.1421
    1BTD    C1630917   8.341   1.174   4.899 -0.4028  0.2745  0.1976
    1BTD    C4330918   8.489   1.373   4.849  0.8077  0.1589 -0.2005
    1BTD    C4430919   8.614   1.451   4.913 -1.2418  0.4687 -1.1742
    1BTD    C4530920   8.583   1.476   5.068  0.4660 -0.0489 -0.7254
    1BTD    C4630921   8.710   1.533   5.131 -0.0757 -0.1808 -0.4234
    1BTD    C4730922   8.682   1.560   4.817  0.2383  0.3265  0.7439
    1BTD    C4830923   8.722   1.499   4.691  0.6973 -0.2979  0.5418
    1BTD    C4930924   8.799   1.584   4.597 -0.9816  0.2640  0.9195
    1BTD    C5030925   8.804   1.520   4.450 -0.3529  0.2201  0.0917
    1BTD    C7530926   8.305   1.310   4.605 -0.3513 -0.7092  0.4379
    1BTD    C7630927   8.326   1.252   4.460  0.2928 -0.9210  0.2970
    1BTD    C7730928   8.293   1.356   4.335 -1.6151 -0.3253  0.1746
    1BTD    C7830929   8.429   1.428   4.278  0.9133  1.1345  0.5524
    1BTD    C7930930   8.375   1.117   4.427 -0.4006  0.4662  0.6088
    1BTD    C8030931   8.291   1.004   4.443  1.3299  0.3249  0.4147
    1BTD    C8130932   8.169   1.009   4.342  1.0264 -0.8233  0.4419
    1BTD    C8230933   8.035   0.942   4.387  0.2189  0.0783 -0.2569
    2TTP     S130934   8.559   1.018   5.207 -0.0289 -0.0398  0.1410
    2TTP     S530935   8.831   1.204   4.931 -0.4613 -0.0185 -0.2739
    2TTP     C130936   8.927   1.108   5.052 -0.2807 -0.2090 -0.5649
    2TTP     C230937   8.849   1.045   5.145 -0.1364 -0.2269 -0.4541
    2TTP     C330938   8.710   1.070   5.123 -0.1633 -0.0906 -0.1352
    2TTP     C430939   8.462   1.113   5.086 -0.2093  0.1507  0.4319
    2TTP    C1730940   8.541   1.176   4.994 -0.3537  0.1686  0.3210
    2TTP    C1830941   8.680   1.151   5.015 -0.3269  0.0323  0.0021
    2TTP    C3230942   8.895   0.970   5.276 -0.4964 -0.5895  0.5158
    2TTP    C3330943   8.958   0.840   5.254  1.3835 -0.6396  0.0247
    2TTP    C3430944   8.844   0.744   5.250  0.5851 -0.2022  1.1175
    2TTP    C3530945   8.907   0.662   5.129  0.4711  0.5994 -0.5618
    2TTP    C3630946   8.846   0.521   5.090  0.5718 -0.9521  0.8648
    2TTP    C3730947   8.740   0.542   4.983 -0.2798 -1.2264 -0.3762
    2TTP    C3830948   8.594   0.575   5.031 -0.8365  0.7145  1.1502
    2TTP    C3930949   8.486   0.462   4.987  0.8160 -0.8704 -0.7598
    2TTP    C4030950   8.496   0.369   4.874 -0.1927 -0.3844 -0.3565
    2TTP    C4130951   8.370   0.292   4.847 -0.4387 -0.2503  1.0589
    2TTP    C4230952   8.361   0.163   4.913 -0.8324 -0.3735 -0.7202
    3TTP     S130953   7.847   1.113   4.725 -0.0984 -0.0582 -0.3256
    3TTP     S530954   7.969   1.419   4.449  0.0646  0.1572 -0.0165
    3TTP     C130955   7.791   1.391   4.429  0.1572 -0.1488 -0.4601
    3TTP     C230956   7.742   1.295   4.514  0.1124 -0.2333 -0.5817
    3TTP     C330957   7.845   1.240   4.597  0.0033 -0.0594 -0.3290
    3TTP     C430958   8.026   1.141   4.745 -0.1910  0.2478  0.1181
    3TTP    C1730959   8.074   1.237   4.661 -0.1464  0.3324  0.2396
    3TTP    C1830960   7.972   1.292   4.578 -0.0370  0.1586 -0.0134
    3TTP    C3230961   7.587   1.245   4.542 -0.8526 -0.1171 -0.1310
    3TTP    C3330962   7.517   1.186   4.422 -0.1061 -0.4181 -0.8893
    3TTP    C3430963   7.364   1.160   4.443 -0.6488  0.6631  0.8607
    3TTP    C3530964   7.328   1.064   4.330 -0.8749  0.1962 -0.5520
    3TTP    C3630965   7.183   1.020   4.364  0.1159  1.0976  0.5886
    3TTP    C3730966   7.091   0.940   4.263 -0.0993 -0.8278 -0.0505
    3TTP    C3830967   7.161   0.804   4.231  0.7499 -0.3066 -1.1180
    3TTP    C3930968   7.252   0.797   4.104  1.9266  0.0992  0.0824
    3TTP    C4030969   7.240   0.669   4.038 -0.2435  0.7251  0.1009
    3TTP    C4130970   7.292   0.667   3.892  0.8492  0.7786 -1.1137
    3TTP    C4230971   7.211   0.569   3.837  0.2916  1.2723  0.2143
    4FIC     F130972   9.459   1.601   4.682  0.0374 -0.2907 -0.5096
    4FIC     F230973   9.630   1.389   4.664  0.1338 -0.2480 -0.1138
    4FIC     O130974   9.057   1.384   4.972  0.1738  0.0896 -0.0324
    4FIC     N530975   9.588   0.931   4.845  0.3700  0.0843  0.7958
    4FIC     N630976   9.239   0.803   5.075  0.4570  0.3728  1.0890
    4FIC    C1930977   9.076   1.104   5.058  0.3146  0.2653  0.5156
    4FIC    C2030978   9.171   1.167   4.985  0.2763  0.1680  0.3798
    4FIC    C2130979   9.154   1.311   4.945  0.2043  0.0817  0.0987
    4FIC    C2230980   9.274   1.348   4.868  0.1779 -0.0130  0.0116
    4FIC    C2330981   9.303   1.471   4.810  0.1132 -0.1127 -0.2346
    4FIC    C2430982   9.424   1.482   4.742  0.1001 -0.1903 -0.2713
    4FIC    C2530983   9.511   1.373   4.733  0.1500 -0.1681 -0.0667
    4FIC    C2630984   9.483   1.250   4.791  0.2143 -0.0688  0.1793
    4FIC    C2730985   9.361   1.237   4.860  0.2289  0.0107  0.2201
    4FIC    C2830986   9.302   1.121   4.932  0.2913  0.1228  0.4545
    4FIC    C2930987   9.357   0.996   4.945  0.3517  0.1748  0.6946
    4FIC    C3030988   9.483   0.961   4.890  0.3617  0.1248  0.7493
    4FIC    C3130989   9.291   0.891   5.017  0.4091  0.2834  0.9103
    5FIC     F130990   7.875   2.114   4.063  0.1237  0.0918 -0.3811
    5FIC     F230991   7.732   2.015   3.854 -0.1739  0.0292 -0.1485
    5FIC     O130992   7.855   1.697   4.407  0.1904  0.3789 -0.0284
    5FIC     N530993   7.512   1.575   3.799 -0.5546  0.1438  0.4373
    5FIC     N630994   7.525   1.269   4.110 -0.4427  0.3807  0.6660
    5FIC    C1930995   7.712   1.454   4.330 -0.0706  0.4210  0.3192
    5FIC    C2030996   7.722   1.563   4.251 -0.0758  0.3513  0.2211
    5FIC    C2130997   7.798   1.684   4.298  0.0633  0.3339  0.0437
    5FIC    C2230998   7.789   1.783   4.189  0.0182  0.2536 -0.0262
    5FIC    C2330999   7.844   1.911   4.187  0.1088  0.2118 -0.1869
    5FIC    C2431000   7.823   1.987   4.072  0.0410  0.1364 -0.2247
    5FIC    C2531001   7.749   1.935   3.965 -0.1124  0.1043 -0.1046
    5FIC    C2631002   7.694   1.808   3.967 -0.2031  0.1456  0.0560
    5FIC    C2731003   7.715   1.730   4.082 -0.1366  0.2220  0.0964
    5FIC    C2831004   7.670   1.592   4.116 -0.2005  0.2808  0.2533
    5FIC    C2931005   7.595   1.509   4.036 -0.3475  0.2716  0.4001
    5FIC    C3031006   7.550   1.545   3.906 -0.4609  0.2013  0.4200
    5FIC    C3131007   7.557   1.377   4.077 -0.3990  0.3316  0.5456
    1BTD     S231008   2.063   0.158   1.921 -0.1919  0.0286  0.1925
    1BTD     N131009   2.099   0.280   1.794 -0.5743 -0.0424  0.0121
    1BTD     N231010   2.174   0.033   1.853  0.1823  0.2652  0.3644
    1BTD     N331011   2.465  -0.000   1.487  0.2544  0.6193  0.3888
    1BTD     N431012   2.373   0.304   1.413 -0.6780  0.2402 -0.0453
    1BTD     C531013   2.243   0.289   1.596 -0.6172  0.1097 -0.0127
    1BTD     C631014   2.187   0.224   1.712 -0.4118  0.1062  0.0854
    1BTD     C731015   2.229   0.086   1.745  0.0118  0.2784  0.2826
    1BTD     C831016   2.325   0.019   1.661  0.2087  0.4455  0.3719
    1BTD    C1531017   2.377   0.086   1.549 -0.0043  0.4424  0.2704
    1BTD    C1631018   2.337   0.219   1.516 -0.4123  0.2764  0.0804
    1BTD    C4331019   2.512   0.301   1.369 -1.0028 -0.2941 -0.9574
    1BTD    C4431020   2.633   0.385   1.402 -0.5435  0.1672 -0.2904
    1BTD    C4531021   2.631   0.530   1.343  0.3396 -0.5423 -0.3748
    1BTD    C4631022   2.760   0.611   1.357  0.6611 -0.0682  0.4062
    1BTD    C4731023   2.672   0.383   1.561 -0.0566  0.1667  0.7755
    1BTD    C4831024   2.775   0.290   1.615  0.4229 -0.0209 -0.1804
    1BTD    C4931025   2.752   0.294   1.763 -0.1845  0.0599  1.6027
    1BTD    C5031026   2.870   0.349   1.843 -0.4577  1.1877  1.4933
    1BTD    C7531027   2.525  -0.011   1.346  0.3682 -0.6932 -0.2442
    1BTD    C7631028   2.425  -0.020   1.223 -0.6091 -1.2190  0.6881
    1BTD    C7731029   2.268  -0.025   1.223  0.4338 -0.3603 -0.4688
    1BTD    C7831030   2.201  -0.070   1.093  0.1244 -0.7808  0.2135
    1BTD    C7931031   2.511   0.026   1.101 -0.5707 -0.0916  0.6214
    1BTD    C8031032   2.592   0.152   1.076  0.9539  0.4199  0.1411
    1BTD    C8131033   2.514   0.274   1.024 -1.4322  0.0059  0.2559
    1BTD    C8231034   2.403   0.249   0.929 -1.1083 -0.5881  0.3185
    2TTP     S131035   2.091   0.536   1.531 -0.3135 -0.1978 -0.2492
    2TTP     S531036   2.256   0.534   1.134  0.4218 -0.2169  0.0540
    2TTP     C131037   2.126   0.661   1.142  0.0428 -0.5752 -0.3397
    2TTP     C231038   2.067   0.669   1.265 -0.2065 -0.5904 -0.4565
    2TTP     C331039   2.123   0.575   1.358 -0.1073 -0.3196 -0.2393
    2TTP     C431040   2.221   0.409   1.523  0.0654  0.1605  0.1446
    2TTP    C1731041   2.280   0.401   1.400  0.3148  0.1757  0.2613
    2TTP    C1831042   2.224   0.495   1.308  0.2156 -0.0951  0.0441
    2TTP    C3231043   1.952   0.771   1.301 -0.5685  0.0415 -0.6212
    2TTP    C3331044   1.956   0.852   1.434  0.1293 -0.3533 -0.1943
    2TTP    C3431045   1.997   1.000   1.414 -0.3271  0.5625 -1.6796
    2TTP    C3531046   2.029   1.055   1.565  0.3034 -0.2173  0.4986
    2TTP    C3631047   2.047   1.210   1.595 -0.8060  0.5283  1.4238
    2TTP    C3731048   2.035   1.254   1.743  0.1425  1.0906  0.7758
    2TTP    C3831049   1.968   1.387   1.764  0.3569 -1.1519  0.5468
    2TTP    C3931050   1.866   1.433   1.659 -0.6439  0.2580  0.3297
    2TTP    C4031051   1.845   1.567   1.643 -0.7416 -1.0460 -0.4242
    2TTP    C4131052   1.943   1.676   1.709  0.0114 -0.0904 -0.5557
    2TTP    C4231053   1.841   1.805   1.704 -0.9275  1.1562  0.2355
    3TTP     S131054   2.381  -0.246   1.779  0.0433 -0.1111  0.3341
    3TTP     S531055   2.674  -0.314   1.472 -0.5333  0.0277 -0.2545
    3TTP     C131056   2.691  -0.444   1.599 -0.1028  0.1375 -0.1960
    3TTP     C231057   2.602  -0.430   1.701  0.1007  0.1011 -0.0108
    3TTP     C331058   2.516  -0.317   1.683 -0.0761 -0.0150  0.0916
    3TTP     C431059   2.364  -0.116   1.652 -0.3873 -0.2208  0.2756
    3TTP    C1731060   2.454  -0.130   1.550 -0.5906 -0.1847  0.0904
    3TTP    C1831061   2.539  -0.243   1.568 -0.4138 -0.0687 -0.0120
    3TTP    C3231062   2.624  -0.476   1.844  0.6414 -0.4455  1.1038
    3TTP    C3331063   2.651  -0.378   1.951  0.9639  1.3952  0.1559
    3TTP    C3431064   2.800  -0.347   1.995 -0.1185 -1.2140  0.1631
    3TTP    C3531065   2.877  -0.242   1.919  0.2596  0.9992  0.7411
    3TTP    C3631066   2.958  -0.285   1.796 -0.5537 -1.4212  0.4182
    3TTP    C3731067   3.056  -0.405   1.830 -0.0414  0.7778 -0.3763
    3TTP    C3831068   3.140  -0.445   1.701  0.1044 -0.7969  0.4961
    3TTP    C3931069   3.250  -0.550   1.721 -0.8333 -0.0832  0.6228
    3TTP    C4031070   3.300  -0.613   1.586  1.3641 -0.9749  0.3927
    3TTP    C4131071   3.200  -0.613   1.483 -1.1475  1.4661  0.3900
    3TTP    C4231072   3.264  -0.648   1.331  0.4303 -0.2707 -0.7266
    4FIC     F131073   2.171   0.654   0.314 -0.3172 -0.3770  0.1671
    4FIC     F231074   2.065   0.905   0.311  0.4926 -0.0284  0.0997
    4FIC     O131075   2.179   0.555   0.847 -0.5503 -0.2234  0.1999
    4FIC     N531076   1.918   1.194   0.684  1.4908  0.5824  0.0261
    4FIC     N631077   1.946   1.066   1.101  1.1454  0.6321  0.0652
    4FIC    C1931078   2.081   0.759   1.032  0.1406  0.1643  0.1471
    4FIC    C2031079   2.083   0.774   0.898  0.1676  0.1120  0.1415
    4FIC    C2131080   2.135   0.665   0.809 -0.2013 -0.0901  0.1699
    4FIC    C2231081   2.123   0.714   0.671 -0.0657 -0.0977  0.1552
    4FIC    C2331082   2.159   0.647   0.554 -0.2999 -0.2550  0.1717
    4FIC    C2431083   2.138   0.714   0.434 -0.1039 -0.2275  0.1524
    4FIC    C2531084   2.083   0.843   0.432  0.3133 -0.0478  0.1177
    4FIC    C2631085   2.047   0.910   0.549  0.5488  0.1098  0.1010
    4FIC    C2731086   2.068   0.844   0.671  0.3558  0.0848  0.1201
    4FIC    C2831087   2.041   0.886   0.811  0.5158  0.2208  0.1104
    4FIC    C2931088   1.987   1.007   0.851  0.9111  0.4111  0.0785
    4FIC    C3031089   1.949   1.109   0.759  1.2284  0.5046  0.0498
    4FIC    C3131090   1.965   1.039   0.988  1.0377  0.5316  0.0714
    5FIC     F131091   2.988  -0.884   0.976  0.0544  0.6464 -0.3996
    5FIC     F231092   3.093  -1.059   1.156 -0.5004  0.0427 -0.6587
    5FIC     O131093   2.742  -0.534   1.309  0.4057  0.4380  0.0824
    5FIC     N531094   3.069  -1.063   1.650 -1.0477 -0.9732 -0.6877
    5FIC     N631095   2.855  -0.755   1.873 -0.6613 -1.0142 -0.2588
    5FIC    C1931096   2.755  -0.578   1.598  0.0005 -0.2124  0.0060
    5FIC    C2031097   2.813  -0.659   1.507 -0.0662 -0.1364 -0.1051
    5FIC    C2131098   2.802  -0.630   1.360  0.1538  0.2036 -0.0565
    5FIC    C2231099   2.875  -0.737   1.291  0.0110  0.2017 -0.2056
    5FIC    C2331100   2.893  -0.752   1.153  0.1289  0.4613 -0.2214
    5FIC    C2431101   2.967  -0.862   1.111 -0.0483  0.4008 -0.3753
    5FIC    C2531102   3.021  -0.952   1.203 -0.3340  0.0895 -0.5086
    5FIC    C2631103   3.003  -0.937   1.340 -0.4528 -0.1707 -0.4938
    5FIC    C2731104   2.929  -0.827   1.385 -0.2769 -0.1140 -0.3389
    5FIC    C2831105   2.893  -0.783   1.522 -0.3358 -0.3343 -0.2824
    5FIC    C2931106   2.927  -0.845   1.640 -0.5914 -0.6590 -0.3766
    5FIC    C3031107   3.005  -0.965   1.645 -0.8413 -0.8304 -0.5474
    5FIC    C3131108   2.887  -0.795   1.768 -0.6284 -0.8523 -0.3113
    1BTD     S231109   0.593   4.734  10.004 -0.3143  0.2457  0.1960
    1BTD     N131110   0.732   4.832   9.945 -0.0953 -0.1882 -0.0181
    1BTD     N231111   0.680   4.670  10.148 -0.4738  0.4073  0.3643
    1BTD     N331112   1.108   4.718  10.336 -0.4036 -0.0468  0.3221
    1BTD     N431113   1.172   4.917  10.085  0.0629 -0.7807 -0.1495
    1BTD     C531114   0.961   4.874  10.021 -0.0183 -0.4889 -0.0811
    1BTD     C631115   0.831   4.813  10.032 -0.1496 -0.1904  0.0443
    1BTD     C731116   0.802   4.723  10.145 -0.3614  0.1432  0.2580
    1BTD     C831117   0.904   4.698  10.243 -0.4315  0.1613  0.3366
    1BTD    C1531118   1.030   4.759  10.229 -0.2977 -0.1375  0.2087
    1BTD    C1631119   1.058   4.846  10.120 -0.0935 -0.4588  0.0024
    1BTD    C4331120   1.290   4.965  10.170 -0.4179  0.2562 -0.2092
    1BTD    C4431121   1.402   5.070  10.145  0.7695  0.0511 -0.0981
    1BTD    C4531122   1.317   5.212  10.158 -0.8353 -0.0712  0.3031
    1BTD    C4631123   1.257   5.265  10.285 -0.0095  0.4982  0.5568
    1BTD    C4731124   1.521   5.097  10.250  0.1380 -0.4980  0.2813
    1BTD    C4831125   1.646   5.020  10.232 -0.1318 -0.1363 -0.6644
    1BTD    C4931126   1.680   4.976  10.092  0.0592 -0.1652 -0.4344
    1BTD    C5031127   1.802   5.007  10.028 -1.0928 -0.2298  0.6616
    1BTD    C7531128   1.260   4.702  10.331  0.1517 -0.4403 -0.9789
    1BTD    C7631129   1.327   4.578  10.270 -0.6770  0.3633  0.1381
    1BTD    C7731130   1.475   4.553  10.295 -0.9111 -0.5041  0.4068
    1BTD    C7831131   1.534   4.490  10.426 -0.3628 -0.3008 -0.1814
    1BTD    C7931132   1.275   4.536  10.136  0.0212  0.1288  2.2427
    1BTD    C8031133   1.346   4.590  10.007  0.9287  0.0611  0.0153
    1BTD    C8131134   1.457   4.503   9.949  0.2579 -0.5008 -0.8788
    1BTD    C8231135   1.444   4.374   9.890  0.4718  0.3780 -1.2372
    2TTP     S131136   1.004   4.946   9.736  0.2437 -0.1114 -0.4185
    2TTP     S531137   1.424   4.976   9.821  0.0053 -0.1025  0.7935
    2TTP     C131138   1.402   4.972   9.641  0.5480 -0.4443  0.7277
    2TTP     C231139   1.271   4.963   9.604  0.6536 -0.4672  0.3495
    2TTP     C331140   1.183   4.958   9.717  0.3097 -0.2154  0.0982
    2TTP     C431141   1.026   4.950   9.917 -0.2990  0.2304 -0.3526
    2TTP    C1731142   1.158   4.959   9.954 -0.4046  0.2534  0.0252
    2TTP    C1831143   1.245   4.964   9.841 -0.0607  0.0019  0.2770
    2TTP    C3231144   1.208   4.970   9.465 -0.2092 -0.5100  1.1741
    2TTP    C3331145   1.087   4.903   9.415 -0.1524 -0.2099 -1.0522
    2TTP    C3431146   1.079   4.829   9.276  1.1384 -0.6876 -0.8344
    2TTP    C3531147   0.995   4.924   9.187 -0.3660 -0.6288 -0.3150
    2TTP    C3631148   0.916   4.845   9.077  0.1555 -1.0612 -0.5870
    2TTP    C3731149   0.792   4.805   9.150 -0.0347  0.4572  0.0181
    2TTP    C3831150   0.702   4.730   9.047  0.8412  0.9544 -0.4477
    2TTP    C3931151   0.554   4.699   9.089  0.7228  1.5674  0.4816
    2TTP    C4031152   0.459   4.814   9.079  0.3783 -0.9165  0.9329
    2TTP    C4131153   0.310   4.785   9.086  1.2207  0.4727  1.0695
    2TTP    C4231154   0.244   4.706   9.200  0.6371 -0.6176  0.8198
    3TTP     S131155   0.771   4.557  10.481 -0.0699 -0.7317 -0.1920
    3TTP     S531156   1.153   4.594  10.674 -0.3163  0.4607  0.0870
    3TTP     C131157   1.034   4.527  10.794 -0.2172  0.1729  0.0261
    3TTP     C231158   0.909   4.511  10.741 -0.1353 -0.2124 -0.0637
    3TTP     C331159   0.903   4.552  10.604 -0.1478 -0.2941 -0.0875
    3TTP     C431160   0.891   4.624  10.361 -0.1690 -0.4438 -0.1314
    3TTP    C1731161   1.016   4.639  10.414 -0.2509 -0.0585 -0.0413
    3TTP    C1831162   1.022   4.599  10.550 -0.2384  0.0231 -0.0176
    3TTP    C3231163   0.788   4.453  10.805  0.0316 -0.7383  0.3862
    3TTP    C3331164   0.754   4.313  10.768  1.5843  0.3586  0.9728
    3TTP    C3431165   0.626   4.266  10.845 -0.7743  0.8738 -0.0392
    3TTP    C3531166   0.569   4.129  10.808 -0.6164  0.3290 -0.2622
    3TTP    C3631167   0.653   4.014  10.756 -0.0177  0.9193 -0.0099
    3TTP    C3731168   0.639   3.875  10.818 -0.3825  0.3778 -0.6115
    3TTP    C3831169   0.607   3.765  10.714 -1.5200 -0.5519  0.4053
    3TTP    C3931170   0.622   3.617  10.751  0.8084  1.3567  0.0111
    3TTP    C4031171   0.724   3.568  10.651  0.0079 -0.6923 -0.7097
    3TTP    C4131172   0.701   3.449  10.560  0.5625 -0.0408 -0.6277
    3TTP    C4231173   0.626   3.500  10.437  1.0492  0.6702 -0.4355
    4FIC     F131174   2.205   5.127   9.596  0.2365 -0.3712 -0.3357
    4FIC     F231175   2.193   5.082   9.328  0.1127 -0.4652 -0.3152
    4FIC     O131176   1.686   5.063   9.734  0.2234  0.1324 -0.1454
    4FIC     N531177   1.806   4.971   9.041 -0.0747 -0.2416 -0.1502
    4FIC     N631178   1.402   4.930   9.203 -0.0600  0.1707 -0.0057
    4FIC    C1931179   1.490   4.997   9.527  0.1005  0.2212 -0.0586
    4FIC    C2031180   1.621   5.015   9.503  0.1086  0.0983 -0.1073
    4FIC    C2131181   1.716   5.048   9.615  0.1733  0.0601 -0.1497
    4FIC    C2231182   1.849   5.061   9.554  0.1653 -0.0794 -0.1974
    4FIC    C2331183   1.969   5.091   9.618  0.2119 -0.1581 -0.2470
    4FIC    C2431184   2.083   5.098   9.539  0.1928 -0.2877 -0.2860
    4FIC    C2531185   2.077   5.074   9.401  0.1290 -0.3359 -0.2750
    4FIC    C2631186   1.958   5.044   9.337  0.0822 -0.2578 -0.2260
    4FIC    C2731187   1.841   5.037   9.415  0.1006 -0.1265 -0.1857
    4FIC    C2831188   1.700   5.008   9.378  0.0632 -0.0193 -0.1299
    4FIC    C2931189   1.653   4.980   9.252 -0.0011 -0.0274 -0.1044
    4FIC    C3031190   1.737   4.975   9.136 -0.0414 -0.1452 -0.1299
    4FIC    C3131191   1.515   4.952   9.225 -0.0331  0.0818 -0.0503
    5FIC     F131192   1.604   4.823  11.294  0.6740  0.0616 -0.1464
    5FIC     F231193   1.568   4.606  11.455 -0.6034  0.8285  0.6404
    5FIC     O131194   1.231   4.731  10.913  1.4614 -0.0947 -0.8845
    5FIC     N531195   1.250   4.228  11.413 -1.8786  1.8198  1.2455
    5FIC     N631196   0.966   4.201  11.082 -1.0059  1.5430  0.5102
    5FIC    C1931197   1.064   4.491  10.930  0.5207  0.5825 -0.3947
    5FIC    C2031198   1.159   4.523  11.020  0.3725  0.5919 -0.2401
    5FIC    C2131199   1.241   4.648  11.004  0.8828  0.2315 -0.5109
    5FIC    C2231200   1.334   4.652  11.118  0.5600  0.3432 -0.2465
    5FIC    C2331201   1.430   4.749  11.147  0.8359  0.1072 -0.3603
    5FIC    C2431202   1.507   4.730  11.260  0.4329  0.2784 -0.0553
    5FIC    C2531203   1.488   4.619  11.343 -0.2251  0.6735  0.3498
    5FIC    C2631204   1.393   4.521  11.315 -0.5036  0.9106  0.4654
    5FIC    C2731205   1.314   4.538  11.200 -0.1033  0.7427  0.1609
    5FIC    C2831206   1.206   4.454  11.143 -0.2446  0.9112  0.1810
    5FIC    C2931207   1.158   4.336  11.195 -0.8348  1.2907  0.5245
    5FIC    C3031208   1.209   4.277  11.314 -1.4067  1.5802  0.9198
    5FIC    C3131209   1.052   4.262  11.133 -0.9255  1.4273  0.5145
    1BTD     S231210   6.993   7.993   9.632  0.2803 -0.0887 -0.0113
    1BTD     N131211   7.076   7.877   9.741  0.4009 -0.4994 -0.5338
    1BTD     N231212   6.828   7.935   9.673  0.2668  0.3932  0.6537
    1BTD     N331213   6.642   7.607   9.952  0.4565  0.6337  1.0641
    1BTD     N431214   6.948   7.535  10.036  0.6217 -0.4660 -0.3989
    1BTD     C531215   7.006   7.699   9.894  0.5143 -0.4685 -0.4461
    1BTD     C631216   6.982   7.805   9.799  0.4237 -0.2680 -0.2031
    1BTD     C731217   6.843   7.837   9.761  0.3486  0.2315  0.4613
    1BTD     C831218   6.734   7.763   9.820  0.3678  0.5056  0.8502
    1BTD    C1531219   6.763   7.661   9.912  0.4576  0.2945  0.5923
    1BTD    C1631220   6.897   7.629   9.949  0.5300 -0.1869 -0.0480
    1BTD    C4331221   6.878   7.408  10.074 -0.1688  0.2587 -0.2951
    1BTD    C4431222   6.934   7.296   9.990  0.1957  1.4913  0.9215
    1BTD    C4531223   6.919   7.158  10.039  0.2681  0.3571 -0.9343
    1BTD    C4631224   6.778   7.139  10.105 -0.2600  0.1024 -0.9897
    1BTD    C4731225   6.871   7.321   9.855 -0.0277  0.7476  1.1445
    1BTD    C4831226   6.909   7.241   9.735 -0.1506  0.9382  1.9936
    1BTD    C4931227   7.060   7.220   9.728 -1.0102  0.4086  0.3250
    1BTD    C5031228   7.084   7.122   9.611 -1.0475  0.8015  0.4102
    1BTD    C7531229   6.596   7.572  10.082 -0.2240 -0.0356  0.2124
    1BTD    C7631230   6.474   7.486  10.141 -1.0004  1.1053  0.2794
    1BTD    C7731231   6.492   7.345  10.096 -0.0053 -1.1660  0.6615
    1BTD    C7831232   6.382   7.245  10.153 -0.0605 -0.0457  0.0278
    1BTD    C7931233   6.401   7.533  10.264  0.9854  0.0511  1.1125
    1BTD    C8031234   6.468   7.618  10.363 -0.2229  0.1617 -0.0564
    1BTD    C8131235   6.372   7.635  10.478  0.2503  0.7713  0.9473
    1BTD    C8231236   6.425   7.674  10.604  0.1589  0.5614 -0.1224
    2TTP     S131237   7.303   7.690   9.985  0.3661 -0.1861  0.6513
    2TTP     S531238   7.204   7.381  10.268 -0.2414 -0.8833 -0.3085
    2TTP     C131239   7.383   7.414  10.278 -0.2355 -1.0124  0.0457
    2TTP     C231240   7.424   7.511  10.191 -0.0476 -0.8050  0.3626
    2TTP     C331241   7.316   7.563  10.114  0.0986 -0.5362  0.3378
    2TTP     C431242   7.124   7.657   9.975  0.3605 -0.0569  0.2973
    2TTP    C1731243   7.083   7.560  10.062  0.1725 -0.2645 -0.0201
    2TTP    C1831244   7.191   7.508  10.140  0.0261 -0.5331  0.0050
    2TTP    C3231245   7.554   7.577  10.158  0.2036 -0.9188  0.3473
    2TTP    C3331246   7.668   7.477  10.145  0.7815 -0.1839  1.6397
    2TTP    C3431247   7.666   7.374  10.038 -0.5243  0.8535  0.6317
    2TTP    C3531248   7.734   7.234  10.061  0.4858  0.0002 -0.1457
    2TTP    C3631249   7.878   7.225  10.081 -0.7525  0.2889 -0.7724
    2TTP    C3731250   7.946   7.086  10.080 -0.0554  0.9944  0.0452
    2TTP    C3831251   8.012   7.014   9.961  0.1694  0.2388 -0.3473
    2TTP    C3931252   7.921   6.979   9.840 -0.1651  0.7056 -0.8711
    2TTP    C4031253   7.804   6.870   9.863 -1.2866  0.1689  0.1187
    2TTP    C4131254   7.849   6.737   9.911  0.0850  0.5912 -1.0283
    2TTP    C4231255   7.755   6.616   9.895  1.0065 -0.6326 -0.3772
    3TTP     S131256   6.466   7.856   9.711  0.2314 -0.3033 -0.0158
    3TTP     S531257   6.262   7.548   9.932 -0.3337 -0.1001 -0.2506
    3TTP     C131258   6.140   7.639   9.832 -0.0895 -0.1544 -0.6056
    3TTP     C231259   6.195   7.739   9.758  0.0995 -0.2203 -0.5536
    3TTP     C331260   6.337   7.748   9.777  0.0581 -0.2302 -0.2322
    3TTP     C431261   6.588   7.765   9.810 -0.0128 -0.2490  0.3393
    3TTP    C1731262   6.533   7.664   9.884 -0.2018 -0.1830  0.2872
    3TTP    C1831263   6.391   7.656   9.865 -0.1605 -0.1731 -0.0343
    3TTP    C3231264   6.104   7.830   9.664 -0.0568 -0.3112  0.4228
    3TTP    C3331265   6.108   7.872   9.515 -0.9830  0.4814  0.1333
    3TTP    C3431266   6.182   7.774   9.422 -0.1357  0.0511 -1.0309
    3TTP    C3531267   6.201   7.846   9.285  0.5617  0.4578  0.0290
    3TTP    C3631268   6.106   7.936   9.208  0.1600 -0.5743  0.9105
    3TTP    C3731269   5.953   7.902   9.178 -0.7789 -0.0427  0.5007
    3TTP    C3831270   5.880   8.029   9.107  0.2554 -0.3701  0.2755
    3TTP    C3931271   5.757   8.085   9.159 -0.1452 -0.3893  0.3041
    3TTP    C4031272   5.663   7.982   9.227  0.0158  0.5716 -1.4619
    3TTP    C4131273   5.690   7.955   9.385  0.1792  0.5927 -0.1407
    3TTP    C4231274   5.610   8.034   9.469 -0.1007  0.8489 -0.3302
    4FIC     F131275   7.379   6.614  10.362  0.0755 -0.0397 -0.0157
    4FIC     F231276   7.542   6.644  10.579  0.2667 -0.1272 -0.1469
    4FIC     O131277   7.331   7.128  10.199  0.1596 -0.0046  0.0689
    4FIC     N531278   7.740   7.053  10.774  0.6015 -0.2279 -0.2756
    4FIC     N631279   7.670   7.449  10.603  0.6289 -0.1829 -0.1829
    4FIC    C1931280   7.468   7.339  10.348  0.3723 -0.0758 -0.0263
    4FIC    C2031281   7.474   7.209  10.381  0.3436 -0.0811 -0.0427
    4FIC    C2131282   7.401   7.106  10.299  0.2327 -0.0430  0.0093
    4FIC    C2231283   7.428   6.976  10.362  0.2286 -0.0602 -0.0248
    4FIC    C2331284   7.382   6.851  10.321  0.1423 -0.0371  0.0026
    4FIC    C2431285   7.422   6.741  10.396  0.1576 -0.0604 -0.0396
    4FIC    C2531286   7.505   6.756  10.508  0.2561 -0.1054 -0.1074
    4FIC    C2631287   7.552   6.881  10.548  0.3426 -0.1287 -0.1349
    4FIC    C2731288   7.513   6.993  10.474  0.3287 -0.1057 -0.0932
    4FIC    C2831289   7.544   7.137  10.490  0.4032 -0.1203 -0.1068
    4FIC    C2931290   7.624   7.193  10.588  0.5077 -0.1624 -0.1671
    4FIC    C3031291   7.687   7.116  10.689  0.5590 -0.1984 -0.2267
    4FIC    C3131292   7.648   7.334  10.595  0.5738 -0.1734 -0.1757
    5FIC     F131293   5.725   6.932   9.920 -0.1003  0.0297  0.0837
    5FIC     F231294   5.494   7.072   9.893 -0.1107 -0.0052 -0.0076
    5FIC     O131295   6.092   7.326   9.867 -0.1380  0.0800  0.1929
    5FIC     N531296   5.423   7.556   9.816 -0.1532 -0.0196 -0.0608
    5FIC     N631297   5.756   7.836   9.780 -0.1807  0.0268  0.0427
    5FIC    C1931298   6.001   7.601   9.822 -0.1617  0.0645  0.1443
    5FIC    C2031299   5.918   7.496   9.836 -0.1520  0.0533  0.1206
    5FIC    C2131300   5.972   7.358   9.859 -0.1401  0.0625  0.1481
    5FIC    C2231301   5.856   7.268   9.870 -0.1311  0.0460  0.1109
    5FIC    C2331302   5.856   7.131   9.892 -0.1189  0.0472  0.1190
    5FIC    C2431303   5.732   7.067   9.899 -0.1124  0.0298  0.0785
    5FIC    C2531304   5.613   7.140   9.885 -0.1178  0.0117  0.0314
    5FIC    C2631305   5.613   7.277   9.863 -0.1299  0.0105  0.0234
    5FIC    C2731306   5.736   7.343   9.856 -0.1369  0.0280  0.0639
    5FIC    C2831307   5.770   7.486   9.834 -0.1498  0.0317  0.0679
    5FIC    C2931308   5.681   7.589   9.816 -0.1582  0.0176  0.0298
    5FIC    C3031309   5.539   7.571   9.816 -0.1553 -0.0027 -0.0200
    5FIC    C3131310   5.723   7.724   9.796 -0.1705  0.0230  0.0372
    1BTD     S231311   6.647   5.637  10.412  0.4390  0.2480 -0.4031
    1BTD     N131312   6.811   5.710  10.415  0.7242 -0.3834 -0.4318
    1BTD     N231313   6.646   5.597  10.587  0.0585  0.7970 -0.2718
    1BTD     N331314   6.940   5.644  10.950 -0.2018  0.7757 -0.0575
    1BTD     N431315   7.144   5.784  10.738  0.6186 -0.6788 -0.2542
    1BTD     C531316   6.983   5.747  10.586  0.6591 -0.5199 -0.3366
    1BTD     C631317   6.855   5.701  10.540  0.5310 -0.1639 -0.3469
    1BTD     C731318   6.762   5.637  10.636  0.1585  0.4969 -0.2575
    1BTD     C831319   6.802   5.623  10.774 -0.0675  0.7683 -0.1624
    1BTD    C1531320   6.928   5.670  10.814  0.0692  0.4017 -0.1564
    1BTD    C1631321   7.018   5.732  10.722  0.4284 -0.2349 -0.2421
    1BTD    C4331322   7.225   5.784  10.854 -0.0644  0.8798 -1.6382
    1BTD    C4431323   7.295   5.901  10.931  1.2416  0.3968  0.5733
    1BTD    C4531324   7.203   6.036  10.957 -0.1792  0.1623  1.0095
    1BTD    C4631325   7.073   6.025  11.024  0.0278 -0.2099 -0.2725
    1BTD    C4731326   7.354   5.830  11.056  0.2762 -0.4122  0.3696
    1BTD    C4831327   7.460   5.905  11.127 -0.6931 -0.0965 -0.6935
    1BTD    C4931328   7.451   5.864  11.278  0.1434 -1.1151 -0.1701
    1BTD    C5031329   7.583   5.867  11.360  0.0354  0.5536 -0.8035
    1BTD    C7531330   7.046   5.583  11.023 -1.1129 -0.3681  0.1731
    1BTD    C7631331   7.180   5.499  10.982 -0.2833  1.4693  0.8230
    1BTD    C7731332   7.138   5.362  10.910 -1.2748  0.0794 -0.2982
    1BTD    C7831333   7.035   5.270  10.977 -0.5690 -0.0296 -0.7374
    1BTD    C7931334   7.280   5.471  11.103  0.3224  0.0506 -0.0716
    1BTD    C8031335   7.206   5.412  11.235 -1.5516  0.6674 -0.1703
    1BTD    C8131336   7.215   5.526  11.348 -0.3808  2.0207  0.7020
    1BTD    C8231337   7.196   5.467  11.482 -0.2148 -0.0378 -0.3885
    2TTP     S131338   7.115   5.928  10.371 -0.1476  0.0086 -0.0736
    2TTP     S531339   7.440   6.007  10.641 -0.1138 -0.5299  0.0465
    2TTP     C131340   7.465   6.105  10.490 -0.1311 -0.2301  0.2370
    2TTP     C231341   7.366   6.087  10.398 -0.1425 -0.0459  0.2117
    2TTP     C331342   7.267   5.994  10.443 -0.1380 -0.1354  0.0401
    2TTP     C431343   7.090   5.830  10.522 -0.1303 -0.2912 -0.2642
    2TTP    C1731344   7.189   5.848  10.615 -0.1191 -0.4754 -0.2384
    2TTP    C1831345   7.288   5.941  10.569 -0.1235 -0.3862 -0.0675
    2TTP    C3231346   7.346   6.137  10.255  0.1074  0.6219 -0.8136
    2TTP    C3331347   7.250   6.254  10.251 -0.0373 -0.4490  0.6015
    2TTP    C3431348   7.215   6.287  10.117  0.1010 -0.7984  0.3742
    2TTP    C3531349   7.285   6.367  10.023 -0.6006  0.3908  1.2026
    2TTP    C3631350   7.216   6.408   9.886  0.1452 -0.7724 -1.1110
    2TTP    C3731351   7.293   6.437   9.761  0.1661 -0.6298 -0.0939
    2TTP    C3831352   7.424   6.534   9.776  0.0365 -0.4402  0.6570
    2TTP    C3931353   7.480   6.592   9.638 -0.9286 -0.6613 -0.7822
    2TTP    C4031354   7.508   6.476   9.521 -0.3037 -1.4540 -0.6352
    2TTP    C4131355   7.619   6.513   9.419  0.4707  1.8113 -0.5987
    2TTP    C4231356   7.639   6.375   9.333 -0.7022 -1.1046  0.1561
    3TTP     S131357   6.576   5.506  10.932 -0.0200 -0.1164 -0.1909
    3TTP     S531358   6.841   5.459  11.268  0.0033  0.1540 -0.1714
    3TTP     C131359   6.683   5.378  11.307  0.0416  0.0965 -0.1358
    3TTP     C231360   6.591   5.388  11.206  0.0367  0.0098 -0.1397
    3TTP     C331361   6.643   5.459  11.093  0.0026 -0.0147 -0.1709
    3TTP     C431362   6.734   5.587  10.893 -0.0583 -0.0589 -0.2270
    3TTP    C1731363   6.825   5.577  10.994 -0.0532  0.0280 -0.2228
    3TTP    C1831364   6.773   5.505  11.106 -0.0190  0.0522 -0.1915
    3TTP    C3231365   6.451   5.332  11.196  0.3599  0.3899  0.6808
    3TTP    C3331366   6.415   5.195  11.124 -1.5188  0.0207 -0.2802
    3TTP    C3431367   6.274   5.184  11.097 -0.1955  0.2153 -0.3218
    3TTP    C3531368   6.249   5.031  11.125  1.4521  0.8756 -0.2811
    3TTP    C3631369   6.316   4.941  11.020 -0.6347  0.3766 -0.3337
    3TTP    C3731370   6.254   4.844  10.918 -0.3387 -0.8088 -1.3887
    3TTP    C3831371   6.118   4.882  10.852  0.0159 -1.3979  0.4470
    3TTP    C3931372   5.988   4.847  10.923 -0.1787 -0.1522  0.9968
    3TTP    C4031373   5.958   4.983  10.991 -0.4644 -0.1106 -0.0706
    3TTP    C4131374   5.856   5.069  10.926  0.5895  0.4677 -0.1424
    3TTP    C4231375   5.892   5.186  11.022  0.6505 -0.5705 -0.6664
    4FIC     F131376   8.130   6.331  10.894  0.4759 -0.5125 -0.3810
    4FIC     F231377   8.215   6.468  10.675  0.0708  0.0161 -0.2105
    4FIC     O131378   7.662   6.128  10.714  0.4133 -0.5418 -0.1857
    4FIC     N531379   8.002   6.521  10.231 -0.5565  0.7551  0.1738
    4FIC     N631380   7.619   6.336  10.135 -0.5239  0.6255  0.2916
    4FIC    C1931381   7.576   6.188  10.440  0.0038 -0.0474  0.0464
    4FIC    C2031382   7.691   6.233  10.494  0.0355 -0.0606 -0.0095
    4FIC    C2131383   7.728   6.199  10.636  0.2507 -0.3223 -0.1287
    4FIC    C2231384   7.857   6.264  10.662  0.2295 -0.2655 -0.1633
    4FIC    C2331385   7.932   6.260  10.780  0.3864 -0.4458 -0.2673
    4FIC    C2431386   8.052   6.330  10.781  0.3287 -0.3454 -0.2807
    4FIC    C2531387   8.095   6.401  10.668  0.1194 -0.0729 -0.1926
    4FIC    C2631388   8.021   6.405  10.551 -0.0379  0.1080 -0.0887
    4FIC    C2731389   7.900   6.335  10.547  0.0178  0.0100 -0.0739
    4FIC    C2831390   7.799   6.319  10.439 -0.1097  0.1469  0.0241
    4FIC    C2931391   7.805   6.373  10.313 -0.3216  0.4145  0.1268
    4FIC    C3031392   7.914   6.454  10.269 -0.4500  0.6008  0.1523
    4FIC    C3131393   7.703   6.352  10.216 -0.4318  0.5292  0.2172
    5FIC     F131394   7.071   4.752  11.679  0.1264  0.0644 -0.0790
    5FIC     F231395   6.848   4.711  11.830  0.0890 -0.0347 -0.1620
    5FIC     O131396   6.913   5.171  11.375  0.0445 -0.0212 -0.1545
    5FIC     N531397   6.415   4.949  11.829 -0.0232 -0.2384 -0.3350
    5FIC     N631398   6.336   5.285  11.560 -0.0795 -0.2853 -0.3773
    5FIC    C1931399   6.644   5.280  11.410 -0.0202 -0.1464 -0.2606
    5FIC    C2031400   6.692   5.176  11.481  0.0017 -0.1209 -0.2383
    5FIC    C2131401   6.832   5.126  11.457  0.0347 -0.0564 -0.1836
    5FIC    C2231402   6.852   5.013  11.550  0.0525 -0.0434 -0.1717
    5FIC    C2331403   6.966   4.935  11.565  0.0838  0.0108 -0.1256
    5FIC    C2431404   6.962   4.834  11.660  0.0954  0.0125 -0.1234
    5FIC    C2531405   6.847   4.812  11.737  0.0762 -0.0388 -0.1662
    5FIC    C2631406   6.733   4.890  11.723  0.0447 -0.0929 -0.2123
    5FIC    C2731407   6.735   4.993  11.627  0.0327 -0.0954 -0.2153
    5FIC    C2831408   6.632   5.093  11.588  0.0006 -0.1452 -0.2579
    5FIC    C2931409   6.506   5.105  11.640 -0.0249 -0.2025 -0.3063
    5FIC    C3031410   6.456   5.019  11.744 -0.0240 -0.2221 -0.3219
    5FIC    C3131411   6.413   5.204  11.596 -0.0548 -0.2477 -0.3451
    1BTD     S231412   7.563   5.045  10.595 -0.0694 -0.5913  0.1689
    1BTD     N131413   7.738   5.013  10.567  0.1504 -0.3964  1.2298
    1BTD     N231414   7.518   4.872  10.609 -0.1073 -0.6750 -0.8495
    1BTD     N331415   7.742   4.460  10.586  0.2130 -0.4936 -1.0104
    1BTD     N431416   8.012   4.633  10.535  0.5305 -0.1504  1.5521
    1BTD     C531417   7.878   4.813  10.551  0.3451 -0.2720  1.3671
    1BTD     C631418   7.753   4.881  10.569  0.1829 -0.4034  0.7925
    1BTD     C731419   7.630   4.802  10.593  0.0385 -0.5592 -0.3715
    1BTD     C831420   7.638   4.659  10.597  0.0638 -0.5761 -0.9029
    1BTD    C1531421   7.763   4.596  10.578  0.2250 -0.4443 -0.3078
    1BTD    C1631422   7.881   4.672  10.555  0.3640 -0.2941  0.8137
    1BTD    C4331423   8.079   4.534  10.618  1.0497  1.0778  0.6600
    1BTD    C4431424   8.126   4.575  10.758  0.2303  1.1603  0.0208
    1BTD    C4531425   8.233   4.490  10.819  0.5376 -1.4780 -0.9694
    1BTD    C4631426   8.373   4.471  10.778  0.5171  0.3309 -1.6408
    1BTD    C4731427   8.023   4.629  10.849 -0.0834 -0.5608 -0.7279
    1BTD    C4831428   7.952   4.539  10.953  0.1143 -0.1730 -0.9013
    1BTD    C4931429   7.923   4.594  11.097 -0.5818 -0.4968 -0.1161
    1BTD    C5031430   8.045   4.604  11.193  0.8174  0.7494 -0.1361
    1BTD    C7531431   7.829   4.335  10.592 -0.4275 -0.3156 -0.0500
    1BTD    C7631432   7.901   4.265  10.481 -1.6586 -0.0372 -0.8647
    1BTD    C7731433   7.995   4.161  10.539 -0.3689  0.5833 -0.8856
    1BTD    C7831434   8.143   4.191  10.576  0.7590  0.2151 -0.2771
    1BTD    C7931435   7.815   4.206  10.374  0.1941 -0.5043  0.2867
    1BTD    C8031436   7.691   4.133  10.398 -1.0068  1.2145  0.8271
    1BTD    C8131437   7.680   3.988  10.337  1.6150 -0.5270 -0.2829
    1BTD    C8231438   7.524   3.967  10.317 -0.2722 -0.1542  1.6244
    2TTP     S131439   8.111   4.998  10.475 -0.0563 -0.1249  0.2502
    2TTP     S531440   8.370   4.655  10.459  0.1464  0.0490 -0.2639
    2TTP     C131441   8.465   4.801  10.407  0.0776  0.1945  0.0144
    2TTP     C231442   8.390   4.916  10.409  0.0112  0.1493  0.1893
    2TTP     C331443   8.256   4.892  10.452  0.0117 -0.0018  0.1101
    2TTP     C431444   8.017   4.852  10.528  0.0126 -0.2702 -0.0281
    2TTP    C1731445   8.091   4.737  10.526  0.0788 -0.2250 -0.2031
    2TTP    C1831446   8.225   4.761  10.483  0.0780 -0.0740 -0.1237
    2TTP    C3231447   8.460   5.057  10.399  1.5857  0.3244  0.2297
    2TTP    C3331448   8.521   5.135  10.288 -0.4751  1.4681  1.1524
    2TTP    C3431449   8.476   5.269  10.278  1.3654  0.2529  0.5014
    2TTP    C3531450   8.564   5.354  10.185  1.8332 -0.2788 -0.9777
    2TTP    C3631451   8.525   5.504  10.209 -1.3356 -0.6730  0.1654
    2TTP    C3731452   8.642   5.596  10.190  0.7915  0.0138  1.1646
    2TTP    C3831453   8.644   5.721  10.278 -0.2706  0.0912  0.1231
    2TTP    C3931454   8.697   5.832  10.213  0.7178 -0.9832  0.8946
    2TTP    C4031455   8.766   5.940  10.299  1.2202 -0.9126  0.3567
    2TTP    C4131456   8.726   6.080  10.250 -1.1213  0.2510  0.8866
    2TTP    C4231457   8.827   6.178  10.311  0.3629 -0.6346 -0.2299
    3TTP     S131458   7.387   4.539  10.717 -0.4165  0.2042  0.0343
    3TTP     S531459   7.576   4.152  10.717 -0.0217  0.3945 -0.4811
    3TTP     C131460   7.421   4.141  10.813  0.0276  0.1284 -0.4301
    3TTP     C231461   7.354   4.260  10.818 -0.0913  0.0541 -0.2682
    3TTP     C331462   7.422   4.364  10.747 -0.2259  0.2043 -0.1781
    3TTP     C431463   7.541   4.550  10.621 -0.4659  0.4700 -0.0165
    3TTP    C1731464   7.609   4.431  10.616 -0.3469  0.5445 -0.1786
    3TTP    C1831465   7.541   4.327  10.687 -0.2123  0.3941 -0.2687
    3TTP    C3231466   7.227   4.303  10.908 -0.7703 -0.1018  0.8541
    3TTP    C3331467   7.227   4.386  11.033 -1.3897 -0.6319  0.3157
    3TTP    C3431468   7.084   4.426  11.078 -0.4322  0.2771 -0.6909
    3TTP    C3531469   6.987   4.315  11.078 -1.0257  1.2049  0.8616
    3TTP    C3631470   6.854   4.366  11.084 -0.1559 -0.1768 -0.1081
    3TTP    C3731471   6.753   4.261  11.038 -0.8551  0.1362 -1.2632
    3TTP    C3831472   6.769   4.189  10.905  1.7196 -0.4323  0.7689
    3TTP    C3931473   6.690   4.266  10.790  0.1794 -0.6105  0.6019
    3TTP    C4031474   6.648   4.202  10.664 -0.4742 -0.7357 -0.6953
    3TTP    C4131475   6.756   4.114  10.601  0.3713  1.9079 -0.8091
    3TTP    C4231476   6.727   4.016  10.496 -0.4614 -0.4296 -0.8282
    4FIC     F131477   8.946   4.213  10.079  0.1950 -0.1643  0.6218
    4FIC     F231478   9.163   4.363  10.148  0.0756  0.3220 -0.0422
    4FIC     O131479   8.543   4.536  10.240 -0.0517 -0.4231  0.5252
    4FIC     N531480   9.186   4.808  10.362 -0.2725  0.8367 -1.0664
    4FIC     N631481   8.827   5.031  10.473 -0.4411  0.5364 -1.0080
    4FIC    C1931482   8.606   4.794  10.363 -0.2537 -0.0503 -0.1442
    4FIC    C2031483   8.699   4.707  10.320 -0.1869 -0.0043 -0.0937
    4FIC    C2131484   8.659   4.576  10.258 -0.0844 -0.2055  0.2582
    4FIC    C2231485   8.784   4.506  10.222 -0.0317 -0.0933  0.2215
    4FIC    C2331486   8.797   4.381  10.162  0.0656 -0.2074  0.4778
    4FIC    C2431487   8.926   4.335  10.138  0.0995 -0.0633  0.3815
    4FIC    C2531488   9.037   4.413  10.174  0.0380  0.1873  0.0393
    4FIC    C2631489   9.025   4.537  10.234 -0.0591  0.3023 -0.2177
    4FIC    C2731490   8.895   4.585  10.259 -0.0949  0.1594 -0.1252
    4FIC    C2831491   8.848   4.712  10.320 -0.1926  0.2241 -0.3326
    4FIC    C2931492   8.926   4.814  10.368 -0.2735  0.4522 -0.6797
    4FIC    C3031493   9.069   4.811  10.364 -0.2728  0.6627 -0.8912
    4FIC    C3131494   8.871   4.933  10.426 -0.3653  0.4971 -0.8581
    5FIC     F131495   7.696   3.377  10.968 -0.4638 -0.3355  0.0682
    5FIC     F231496   7.481   3.337  11.130 -0.1674  0.1037  0.5784
    5FIC     O131497   7.606   3.884  10.801 -0.1800 -0.3900 -0.2525
    5FIC     N531498   7.107   3.640  11.243  0.4612  0.6963  1.0834
    5FIC     N631499   7.080   4.045  11.079  0.6230  0.5652  0.7298
    5FIC    C1931500   7.368   4.026  10.896  0.2040  0.0103  0.1212
    5FIC    C2031501   7.399   3.900  10.932  0.1209  0.0069  0.1819
    5FIC    C2131502   7.523   3.833  10.879 -0.0769 -0.2055 -0.0207
    5FIC    C2231503   7.527   3.698  10.937 -0.1231 -0.1506  0.1094
    5FIC    C2331504   7.623   3.599  10.917 -0.2910 -0.2937  0.0005
    5FIC    C2431505   7.605   3.479  10.983 -0.3020 -0.2035  0.1631
    5FIC    C2531506   7.494   3.458  11.066 -0.1491  0.0228  0.4256
    5FIC    C2631507   7.398   3.556  11.087  0.0188  0.1665  0.5360
    5FIC    C2731508   7.414   3.679  11.021  0.0325  0.0783  0.3743
    5FIC    C2831509   7.331   3.802  11.021  0.1887  0.1841  0.4294
    5FIC    C2931510   7.214   3.822  11.090  0.3626  0.4041  0.6642
    5FIC    C3031511   7.156   3.722  11.174  0.4160  0.5640  0.8941
    5FIC    C3131512   7.141   3.944  11.084  0.5047  0.4914  0.6993
    1BTD     S231513   3.443   3.342   1.681  0.0175 -0.1316 -0.1138
    1BTD     N131514   3.576   3.358   1.561  0.1475 -0.3505  0.0006
    1BTD     N231515   3.553   3.332   1.823 -0.1354  0.1383  0.0273
    1BTD     N331516   4.017   3.337   1.894 -0.2120  0.2935  0.5216
    1BTD     N431517   4.045   3.369   1.571  0.1366 -0.3089  0.4886
    1BTD     C531518   3.821   3.363   1.570  0.1377 -0.3216  0.2558
    1BTD     C631519   3.690   3.354   1.629  0.0741 -0.2179  0.1313
    1BTD     C731520   3.677   3.339   1.776 -0.0842  0.0558  0.1463
    1BTD     C831521   3.796   3.335   1.856 -0.1711  0.2120  0.2850
    1BTD    C1531522   3.922   3.344   1.795 -0.1042  0.1024  0.4038
    1BTD    C1631523   3.934   3.358   1.653  0.0483 -0.1613  0.3894
    1BTD    C4331524   4.150   3.461   1.606 -1.2524 -0.4325  0.8238
    1BTD    C4431525   4.290   3.491   1.534 -0.0284 -1.2337  0.6920
    1BTD    C4531526   4.368   3.622   1.590  0.3551 -0.3563  0.2405
    1BTD    C4631527   4.377   3.659   1.740 -0.2658 -1.0231  0.0944
    1BTD    C4731528   4.372   3.354   1.549 -0.3265 -0.4631  0.1482
    1BTD    C4831529   4.486   3.326   1.459  0.1203  0.3861 -0.0889
    1BTD    C4931530   4.604   3.238   1.497 -0.6369 -0.1800  0.2631
    1BTD    C5031531   4.678   3.274   1.625  0.5356 -0.0813  0.3349
    1BTD    C7531532   4.161   3.295   1.907 -0.1609 -0.8436  0.8538
    1BTD    C7631533   4.204   3.146   1.915  0.5548 -0.9590 -0.5407
    1BTD    C7731534   4.361   3.116   1.877  0.4576 -0.0018 -0.3458
    1BTD    C7831535   4.410   2.981   1.820 -1.0113 -0.3521 -0.0586
    1BTD    C7931536   4.106   3.052   2.000 -0.7577 -2.1183 -0.8203
    1BTD    C8031537   4.157   3.024   2.140 -1.2098  0.7988  0.1116
    1BTD    C8131538   4.079   2.915   2.200  1.0398  1.1977 -0.0490
    1BTD    C8231539   4.161   2.800   2.268 -0.0854  0.4510  0.1743
    2TTP     S131540   3.780   3.349   1.274 -0.2347 -0.0940 -0.2558
    2TTP     S531541   4.207   3.312   1.242 -0.1980 -0.2549  0.3951
    2TTP     C131542   4.134   3.278   1.079  0.0450 -0.1021  0.2522
    2TTP     C231543   3.997   3.287   1.079  0.0480 -0.0435  0.0428
    2TTP     C331544   3.946   3.322   1.208 -0.1415 -0.1170 -0.0124
    2TTP     C431545   3.853   3.383   1.436 -0.4779 -0.2468 -0.1130
    2TTP    C1731546   3.989   3.374   1.436 -0.4808 -0.3055  0.0965
    2TTP    C1831547   4.041   3.339   1.307 -0.2912 -0.2320  0.1517
    2TTP    C3231548   3.896   3.265   0.970  0.8776  0.0963  0.7031
    2TTP    C3331549   3.820   3.406   0.938 -1.6923  1.6215  0.7584
    2TTP    C3431550   3.674   3.369   0.928  0.8863  0.2126  0.7966
    2TTP    C3531551   3.597   3.481   0.887  1.5332 -0.5237  0.7892
    2TTP    C3631552   3.448   3.471   0.942 -1.2500  0.6791  1.1789
    2TTP    C3731553   3.362   3.580   0.883 -0.2472  0.8557  0.0501
    2TTP    C3831554   3.220   3.555   0.922 -0.9898  0.4225 -0.0780
    2TTP    C3931555   3.149   3.696   0.952 -0.6209  0.4559 -0.7979
    2TTP    C4031556   3.018   3.692   1.037 -0.7859 -1.2330 -0.1080
    2TTP    C4131557   2.991   3.837   1.081 -0.1884 -0.5583 -0.5266
    2TTP    C4231558   2.864   3.904   1.115  0.0932  0.7802 -0.0716
    3TTP     S131559   3.714   3.407   2.132  0.0938  0.0945  0.5344
    3TTP     S531560   4.126   3.502   2.213  0.2111  0.1059 -0.0697
    3TTP     C131561   4.023   3.571   2.346  0.4333 -0.1584  0.2418
    3TTP     C231562   3.890   3.546   2.329  0.4102 -0.1775  0.4466
    3TTP     C331563   3.864   3.471   2.210  0.2161  0.0159  0.3650
    3TTP     C431564   3.817   3.337   1.999 -0.1283  0.3587  0.2229
    3TTP    C1731565   3.950   3.363   2.016 -0.1052  0.3779  0.0181
    3TTP    C1831566   3.976   3.438   2.135  0.0888  0.1844  0.0997
    3TTP    C3231567   3.776   3.556   2.438 -0.4031 -1.0379 -0.0252
    3TTP    C3331568   3.738   3.426   2.499  0.6847 -0.3777 -0.3544
    3TTP    C3431569   3.859   3.378   2.584  1.1240  0.0473 -0.8274
    3TTP    C3531570   3.841   3.366   2.736 -0.4321 -0.4195 -0.2693
    3TTP    C3631571   3.896   3.492   2.792 -0.5537  0.1480  0.4657
    3TTP    C3731572   4.048   3.495   2.822 -0.5469  0.5605  0.9695
    3TTP    C3831573   4.113   3.369   2.892  1.0533 -0.6649  1.0094
    3TTP    C3931574   4.237   3.411   2.956 -0.1810  0.0570  0.2816
    3TTP    C4031575   4.364   3.328   2.991  1.0872  0.5760 -0.2970
    3TTP    C4131576   4.369   3.199   2.901 -0.1297 -0.1535 -1.1283
    3TTP    C4231577   4.507   3.139   2.891  2.2187 -0.8397  0.4169
    4FIC     F131578   4.916   3.191   0.851 -0.4416 -0.0384 -0.0366
    4FIC     F231579   4.833   3.094   0.611 -0.6535  0.3977 -0.1407
    4FIC     O131580   4.441   3.286   1.093 -0.2320  0.0427  0.3446
    4FIC     N531581   4.375   3.023   0.438 -0.8087  1.0824 -0.0188
    4FIC     N631582   4.020   3.117   0.676 -0.6021  1.0579  0.3001
    4FIC    C1931583   4.193   3.227   0.950 -0.3599  0.4881  0.3806
    4FIC    C2031584   4.316   3.207   0.898 -0.4044  0.4507  0.2887
    4FIC    C2131585   4.439   3.240   0.978 -0.3333  0.2169  0.2763
    4FIC    C2231586   4.554   3.206   0.893 -0.4072  0.2363  0.1677
    4FIC    C2331587   4.689   3.219   0.924 -0.3790  0.0642  0.1196
    4FIC    C2431588   4.781   3.181   0.827 -0.4636  0.1235  0.0158
    4FIC    C2531589   4.738   3.131   0.703 -0.5727  0.3482 -0.0377
    4FIC    C2631590   4.603   3.118   0.672 -0.6015  0.5208  0.0097
    4FIC    C2731591   4.509   3.156   0.769 -0.5170  0.4640  0.1148
    4FIC    C2831592   4.361   3.155   0.767 -0.5195  0.6048  0.1871
    4FIC    C2931593   4.280   3.113   0.663 -0.6112  0.8340  0.1641
    4FIC    C3031594   4.332   3.064   0.540 -0.7194  0.9698  0.0636
    4FIC    C3131595   4.138   3.115   0.671 -0.6057  0.9558  0.2391
    5FIC     F131596   4.726   3.821   2.686 -0.1577 -0.0359 -0.3812
    5FIC     F231597   4.582   3.983   2.851  0.0756  0.1953 -0.4036
    5FIC     O131598   4.329   3.577   2.410 -0.5275  0.0874  0.0381
    5FIC     N531599   4.092   4.042   2.891  0.1475  0.6156 -0.1372
    5FIC     N631600   3.811   3.819   2.642 -0.1885  0.6654  0.1951
    5FIC    C1931601   4.050   3.646   2.469 -0.4360  0.3521  0.1656
    5FIC    C2031602   4.156   3.700   2.532 -0.3520  0.3120  0.0610
    5FIC    C2131603   4.296   3.660   2.496 -0.4066  0.1743  0.0008
    5FIC    C2231604   4.386   3.738   2.583 -0.2891  0.1638 -0.1100
    5FIC    C2331605   4.525   3.735   2.587 -0.2893  0.0547 -0.1954
    5FIC    C2431606   4.588   3.819   2.678 -0.1650  0.0682 -0.2933
    5FIC    C2531607   4.514   3.902   2.763 -0.0452  0.1873 -0.3047
    5FIC    C2631608   4.375   3.906   2.760 -0.0441  0.2966 -0.2199
    5FIC    C2731609   4.309   3.822   2.668 -0.1689  0.2849 -0.1202
    5FIC    C2831610   4.165   3.802   2.640 -0.2028  0.3808 -0.0155
    5FIC    C2931611   4.060   3.865   2.702 -0.1130  0.5087  0.0063
    5FIC    C3031612   4.078   3.962   2.806  0.0299  0.5670 -0.0727
    5FIC    C3131613   3.923   3.840   2.669 -0.1550  0.5941  0.1100
    1BTD     S231614   8.775  10.194   6.388 -0.0079  0.2926 -0.3361
    1BTD     N131615   8.780  10.231   6.564 -0.0341  0.5753 -0.3935
    1BTD     N231616   8.948  10.143   6.379 -0.0856 -0.0107 -0.1690
    1BTD     N331617   9.308  10.107   6.678 -0.2921 -0.1187  0.0678
    1BTD     N431618   9.102  10.215   6.906 -0.2282  0.6037 -0.2089
    1BTD     C531619   8.951  10.221   6.740 -0.1364  0.5813 -0.2937
    1BTD     C631620   8.904  10.205   6.605 -0.0963  0.4361 -0.2906
    1BTD     C731621   8.997  10.156   6.501 -0.1252  0.1080 -0.1649
    1BTD     C831622   9.133  10.126   6.538 -0.1926 -0.0587 -0.0486
    1BTD    C1531623   9.175  10.143   6.671 -0.2303  0.0932 -0.0563
    1BTD    C1631624   9.084  10.190   6.771 -0.2016  0.4093 -0.1778
    1BTD    C4331625   9.229  10.259   6.977  0.3284  0.0852 -0.8017
    1BTD    C4431626   9.285  10.388   6.982  0.5995 -0.0436  0.1127
    1BTD    C4531627   9.432  10.396   7.044  1.2663  1.5203  0.3495
    1BTD    C4631628   9.466  10.351   7.175  1.5768  1.1169 -0.2890
    1BTD    C4731629   9.295  10.438   6.825  1.0383 -0.6974 -1.5233
    1BTD    C4831630   9.340  10.588   6.816  0.6100 -0.3765 -0.3176
    1BTD    C4931631   9.281  10.685   6.707  0.3940 -1.0497 -0.3013
    1BTD    C5031632   9.262  10.826   6.757  0.3512 -0.4329  0.3134
    1BTD    C7531633   9.408  10.134   6.782 -1.5367  0.7763  0.3453
    1BTD    C7631634   9.527  10.025   6.822  0.2379 -0.1662  0.5671
    1BTD    C7731635   9.460   9.890   6.882 -1.2823  0.2214 -0.0028
    1BTD    C7831636   9.417   9.883   7.028 -0.4215  0.0418 -0.1471
    1BTD    C7931637   9.629  10.064   6.918  0.3069  0.4789  0.2464
    1BTD    C8031638   9.723  10.169   6.866  0.0581  0.3691 -1.2886
    1BTD    C8131639   9.825  10.187   6.984  0.0808  0.7404  0.1900
    1BTD    C8231640   9.932  10.281   6.959 -0.8323  0.3777  0.9493
    2TTP     S131641   8.719  10.269   6.924  0.3416 -0.3642  0.0323
    2TTP     S531642   8.975  10.190   7.261 -0.1125 -0.3829  0.3760
    2TTP     C131643   8.804  10.201   7.320 -0.1851 -0.3151  0.1548
    2TTP     C231644   8.714  10.226   7.219 -0.0494 -0.3054  0.0358
    2TTP     C331645   8.778  10.237   7.092  0.1175 -0.3512  0.1148
    2TTP     C431646   8.891  10.258   6.865  0.4144 -0.4318  0.2533
    2TTP    C1731647   8.980  10.233   6.965  0.2782 -0.4419  0.3725
    2TTP    C1831648   8.916  10.222   7.093  0.1118 -0.3960  0.2936
    2TTP    C3231649   8.561  10.229   7.251 -0.2262 -0.1825 -1.2494
    2TTP    C3331650   8.524  10.374   7.223 -0.3073  0.4105 -0.3411
    2TTP    C3431651   8.405  10.445   7.288 -0.0174  0.0806  0.4367
    2TTP    C3531652   8.393  10.457   7.439  0.1627  0.4202 -1.8900
    2TTP    C3631653   8.512  10.492   7.516  0.3248 -0.5781 -0.2676
    2TTP    C3731654   8.501  10.454   7.667 -0.4220  1.4307  0.3951
    2TTP    C3831655   8.370  10.468   7.747  0.7088  0.4055 -0.5251
    2TTP    C3931656   8.336  10.617   7.785  0.6181  0.5893 -0.8623
    2TTP    C4031657   8.231  10.629   7.906 -1.8714 -0.5529 -0.3738
    2TTP    C4131658   8.231  10.777   7.959 -0.3814  1.0091  0.4545
    2TTP    C4231659   8.281  10.791   8.095  0.1756  0.4423 -0.5531
    3TTP     S131660   9.284  10.065   6.282  0.1611 -0.7467 -0.1159
    3TTP     S531661   9.647  10.048   6.512 -0.1616  1.1947  0.5802
    3TTP     C131662   9.689  10.028   6.336  0.1631  0.3953  0.7390
    3TTP     C231663   9.579  10.032   6.255  0.2820 -0.2515  0.5331
    3TTP     C331664   9.458  10.051   6.329  0.1206 -0.1388  0.2431
    3TTP     C431665   9.242  10.085   6.458 -0.1633  0.0532 -0.2744
    3TTP    C1731666   9.352  10.081   6.540 -0.2822  0.6996 -0.0689
    3TTP    C1831667   9.473  10.062   6.466 -0.1211  0.5870  0.2214
    3TTP    C3231668   9.567  10.015   6.098  0.1993  0.3334  0.4626
    3TTP    C3331669   9.507  10.130   6.014 -0.6002 -0.5607  0.6316
    3TTP    C3431670   9.550  10.090   5.863  0.3048 -0.5351  0.2100
    3TTP    C3531671   9.531  10.195   5.750 -0.2806 -1.1380 -0.4986
    3TTP    C3631672   9.638  10.175   5.642  1.4602  0.7776 -0.3525
    3TTP    C3731673   9.642  10.259   5.512 -0.6141 -0.9929 -0.4253
    3TTP    C3831674   9.787  10.315   5.533  0.0619  0.8130  1.4365
    3TTP    C3931675   9.909  10.226   5.548 -2.1800 -0.1377  0.0418
    3TTP    C4031676  10.055  10.297   5.539  0.8717 -0.3532 -0.8572
    3TTP    C4131677  10.102  10.356   5.405 -0.4365 -0.5573 -0.6750
    3TTP    C4231678  10.064  10.500   5.403 -0.6280  0.1961 -0.2658
    4FIC     F131679   9.220  10.388   7.992 -0.1025 -0.2565  0.1141
    4FIC     F231680   9.044  10.238   8.137 -0.2046 -0.3250 -0.0808
    4FIC     O131681   9.003  10.352   7.498  0.2353 -0.0045 -0.0528
    4FIC     N531682   8.638   9.996   7.991 -0.1097 -0.2444 -0.4805
    4FIC     N631683   8.504   9.998   7.575  0.1750 -0.0336 -0.5720
    4FIC    C1931684   8.759  10.195   7.460  0.2582  0.0195 -0.2988
    4FIC    C2031685   8.820  10.210   7.578  0.1771 -0.0412 -0.2491
    4FIC    C2131686   8.945  10.292   7.590  0.1707 -0.0496 -0.1221
    4FIC    C2231687   8.985  10.288   7.732  0.0734 -0.1214 -0.0967
    4FIC    C2331688   9.095  10.349   7.791  0.0343 -0.1531  0.0094
    4FIC    C2431689   9.113  10.331   7.927 -0.0594 -0.2217  0.0121
    4FIC    C2531690   9.022  10.253   8.001 -0.1117 -0.2571 -0.0885
    4FIC    C2631691   8.912  10.192   7.943 -0.0727 -0.2258 -0.1947
    4FIC    C2731692   8.893  10.209   7.805  0.0219 -0.1562 -0.1993
    4FIC    C2831693   8.788  10.159   7.714  0.0837 -0.1085 -0.2967
    4FIC    C2931694   8.681  10.079   7.748  0.0582 -0.1235 -0.4098
    4FIC    C3031695   8.658  10.034   7.882 -0.0339 -0.1898 -0.4483
    4FIC    C3131696   8.584  10.035   7.653  0.1225 -0.0737 -0.4983
    5FIC     F131697  10.416  10.293   6.625  0.0782  0.7141 -0.1198
    5FIC     F231698  10.530  10.218   6.389 -0.1121  0.6611 -0.1954
    5FIC     O131699   9.899  10.164   6.534  0.0651  0.3481  0.4654
    5FIC     N531700  10.325  10.018   5.986 -0.3948  0.3252  0.1125
    5FIC     N631701   9.898   9.932   5.962 -0.3667  0.0503  0.5851
    5FIC    C1931702   9.824  10.046   6.276 -0.1214  0.1684  0.6008
    5FIC    C2031703   9.949  10.082   6.309 -0.1106  0.2623  0.4566
    5FIC    C2131704   9.980  10.141   6.443 -0.0126  0.3510  0.3949
    5FIC    C2231705  10.125  10.168   6.445 -0.0267  0.4411  0.2360
    5FIC    C2331706  10.200  10.223   6.548  0.0434  0.5410  0.1327
    5FIC    C2431707  10.336  10.239   6.527  0.0126  0.6135 -0.0119
    5FIC    C2531708  10.395  10.200   6.405 -0.0853  0.5861 -0.0505
    5FIC    C2631709  10.320  10.145   6.302 -0.1559  0.4866  0.0521
    5FIC    C2731710  10.182  10.129   6.322 -0.1259  0.4125  0.1990
    5FIC    C2831711  10.077  10.074   6.233 -0.1812  0.3011  0.3330
    5FIC    C2931712  10.094  10.025   6.105 -0.2794  0.2458  0.3406
    5FIC    C3031713  10.221  10.022   6.040 -0.3424  0.2897  0.2152
    5FIC    C3131714   9.986   9.974   6.027 -0.3269  0.1383  0.4750
    1BTD     S231715   0.147  10.444   9.067 -0.3525  0.2257  0.0337
    1BTD     N131716  -0.011  10.408   8.989 -0.2303  0.1688 -0.1907
    1BTD     N231717   0.244  10.354   8.944 -0.1628  0.0772  0.2904
    1BTD     N331718   0.155  10.107   8.555  0.4445 -0.3285  0.4072
    1BTD     N431719  -0.159  10.173   8.611  0.3614 -0.2158 -0.1855
    1BTD     C531720  -0.085  10.284   8.791  0.0796 -0.0334 -0.1805
    1BTD     C631721   0.015  10.335   8.882 -0.0630  0.0479 -0.0691
    1BTD     C731722   0.158  10.305   8.857 -0.0253 -0.0031  0.2000
    1BTD     C831723   0.194  10.226   8.742  0.1532 -0.1333  0.3443
    1BTD    C1531724   0.093  10.179   8.656  0.2887 -0.2097  0.2272
    1BTD    C1631725  -0.045  10.207   8.680  0.2524 -0.1601 -0.0323
    1BTD    C4331726  -0.173  10.136   8.468  0.4669  1.0788 -0.9732
    1BTD    C4431727  -0.207  10.229   8.365 -1.3664 -0.7586 -0.2089
    1BTD    C4531728  -0.108  10.340   8.317  1.6965 -0.6908 -1.1598
    1BTD    C4631729   0.009  10.317   8.220  1.1688 -0.7484  0.2155
    1BTD    C4731730  -0.255  10.134   8.248 -0.1436 -0.2483 -0.9801
    1BTD    C4831731  -0.369  10.041   8.255  0.1604 -0.6463  0.3844
    1BTD    C4931732  -0.470  10.051   8.140  0.8716 -0.8660  0.5308
    1BTD    C5031733  -0.541  10.175   8.103  0.0034 -0.9850  0.3567
    1BTD    C7531734   0.108   9.968   8.498 -0.7008 -0.3190  0.2128
    1BTD    C7631735   0.201   9.888   8.398  0.4459  0.3655  1.2281
    1BTD    C7731736   0.224   9.938   8.258 -0.8296  0.4357  0.5726
    1BTD    C7831737   0.151   9.851   8.157  0.0718 -0.1073  0.8294
    1BTD    C7931738   0.323   9.819   8.458  0.4046  0.5804  0.5828
    1BTD    C8031739   0.324   9.767   8.597 -0.0238 -0.5256  0.1509
    1BTD    C8131740   0.439   9.704   8.634 -1.1323  0.5262 -0.2620
    1BTD    C8231741   0.512   9.806   8.731  0.9390  0.0369  0.5589
    2TTP     S131742  -0.360  10.319   8.910  0.0921  0.5269 -0.2263
    2TTP     S531743  -0.521  10.122   8.564  0.1976 -0.3543  0.2215
    2TTP     C131744  -0.655  10.148   8.683  0.1808 -0.1414  0.1564
    2TTP     C231745  -0.614  10.210   8.797  0.1473  0.1435  0.0145
    2TTP     C331746  -0.474  10.240   8.795  0.1333  0.2036 -0.0482
    2TTP     C431747  -0.225  10.293   8.791  0.1087  0.3140 -0.1612
    2TTP    C1731748  -0.267  10.230   8.677  0.1419  0.0292 -0.0190
    2TTP    C1831749  -0.407  10.201   8.680  0.1557 -0.0312  0.0434
    2TTP    C3231750  -0.701  10.239   8.917  0.6488 -0.8480 -0.2684
    2TTP    C3331751  -0.796  10.360   8.894 -0.2751  0.6877  0.1882
    2TTP    C3431752  -0.744  10.504   8.902 -0.1253 -0.2396  0.0538
    2TTP    C3531753  -0.695  10.538   9.035  0.1007  0.4936 -0.3215
    2TTP    C3631754  -0.781  10.651   9.119  0.9198  0.0276  0.3300
    2TTP    C3731755  -0.722  10.782   9.182 -0.4950  0.2680  1.8818
    2TTP    C3831756  -0.645  10.770   9.315 -0.2926  1.2314  0.1238
    2TTP    C3931757  -0.558  10.890   9.327  1.5483  1.0382 -0.7109
    2TTP    C4031758  -0.421  10.890   9.392 -1.3105 -0.9135  0.6442
    2TTP    C4131759  -0.336  11.017   9.358  0.1969 -0.6600  0.8119
    2TTP    C4231760  -0.405  11.150   9.346  0.3428 -1.1761 -0.9433
    3TTP     S131761   0.463  10.308   8.683 -0.3748  0.0277 -0.0587
    3TTP     S531762   0.412  10.184   8.274 -0.2572  0.5388 -0.2296
    3TTP     C131763   0.556  10.295   8.283 -0.1311  0.3585 -0.0133
    3TTP     C231764   0.580  10.340   8.410 -0.1600  0.1903  0.0522
    3TTP     C331765   0.486  10.288   8.504 -0.2828  0.1976 -0.0660
    3TTP     C431766   0.319  10.197   8.673 -0.5009  0.2081 -0.2751
    3TTP    C1731767   0.295  10.152   8.546 -0.4720  0.3764 -0.3406
    3TTP    C1831768   0.389  10.204   8.452 -0.3493  0.3695 -0.2227
    3TTP    C3231769   0.681  10.434   8.477  0.5762  0.9336 -0.0298
    3TTP    C3331770   0.806  10.350   8.519  0.2436 -0.1993  0.4821
    3TTP    C3431771   0.922  10.299   8.420  0.5885 -0.5197  0.7296
    3TTP    C3531772   1.039  10.192   8.447  1.1849  0.5467  0.7403
    3TTP    C3631773   1.004  10.072   8.526  0.6480 -0.4745  0.1476
    3TTP    C3731774   1.080  10.061   8.661  0.2975 -0.0672 -0.8440
    3TTP    C3831775   1.187   9.968   8.658  0.5518 -0.8236 -0.7741
    3TTP    C3931776   1.252   9.938   8.793  0.9370  1.5595 -1.0727
    3TTP    C4031777   1.158   9.859   8.887  0.6009  0.9354 -0.1414
    3TTP    C4131778   1.228   9.813   9.006 -0.5381  0.8248 -0.8739
    3TTP    C4231779   1.141   9.787   9.135 -0.3397 -0.7853 -0.1957
    4FIC     F131780  -1.103  10.081   8.004  0.2038 -0.0558  0.2139
    4FIC     F231781  -1.304   9.975   8.153  0.1292 -0.2363 -0.0141
    4FIC     O131782  -0.734  10.182   8.387 -0.1278 -0.1814  0.5672
    4FIC     N531783  -1.331   9.893   8.640 -0.2146 -0.5848 -0.0904
    4FIC     N631784  -1.002   9.993   8.910 -0.4587 -0.6464  0.2315
    4FIC    C1931785  -0.795  10.115   8.666 -0.3167 -0.3982  0.4748
    4FIC    C2031786  -0.880  10.094   8.563 -0.2306 -0.3595  0.3946
    4FIC    C2131787  -0.842  10.131   8.423 -0.1364 -0.2470  0.4494
    4FIC    C2231788  -0.956  10.095   8.337 -0.0572 -0.2315  0.3369
    4FIC    C2331789  -0.967  10.110   8.199  0.0429 -0.1395  0.3386
    4FIC    C2431790  -1.085  10.069   8.140  0.1040 -0.1436  0.2190
    4FIC    C2531791  -1.189  10.014   8.217  0.0653 -0.2369  0.1018
    4FIC    C2631792  -1.179   9.999   8.354 -0.0343 -0.3281  0.0992
    4FIC    C2731793  -1.060  10.040   8.416 -0.0975 -0.3262  0.2191
    4FIC    C2831794  -1.017  10.037   8.558 -0.2055 -0.4084  0.2503
    4FIC    C2931795  -1.091   9.991   8.665 -0.2697 -0.5105  0.1619
    4FIC    C3031796  -1.223   9.937   8.651 -0.2389 -0.5510  0.0236
    4FIC    C3131797  -1.042   9.992   8.799 -0.3734 -0.5846  0.2010
    5FIC     F131798   0.798  10.053   7.526 -0.6942  0.5875 -0.2413
    5FIC     F231799   0.974  10.260   7.524  0.4030 -0.3176  0.2515
    5FIC     O131800   0.563  10.122   8.009 -0.8546  1.1039 -0.3920
    5FIC     N531801   1.060  10.608   7.866  1.8661 -1.2507  0.8526
    5FIC     N631802   0.841  10.621   8.243  1.5197 -0.6645  0.6359
    5FIC    C1931803   0.648  10.345   8.179  0.1368  0.4226  0.0255
    5FIC    C2031804   0.700  10.320   8.057  0.1342  0.3281  0.0441
    5FIC    C2131805   0.651  10.203   7.976 -0.3921  0.6967 -0.1788
    5FIC    C2231806   0.729  10.204   7.851 -0.2487  0.4790 -0.0942
    5FIC    C2331807   0.719  10.116   7.744 -0.6006  0.6835 -0.2347
    5FIC    C2431808   0.802  10.137   7.635 -0.3699  0.4074 -0.1134
    5FIC    C2531809   0.893  10.244   7.634  0.1955 -0.0590  0.1404
    5FIC    C2631810   0.904  10.333   7.741  0.5489 -0.2654  0.2817
    5FIC    C2731811   0.820  10.313   7.851  0.3230  0.0086  0.1625
    5FIC    C2831812   0.806  10.388   7.978  0.5808 -0.1023  0.2575
    5FIC    C2931813   0.877  10.499   8.016  1.1287 -0.5238  0.4973
    5FIC    C3031814   0.978  10.559   7.933  1.5322 -0.9220  0.6919
    5FIC    C3131815   0.857  10.565   8.141  1.3406 -0.5987  0.5724
    1BTD     S231816   5.293   7.093   0.385  0.4679 -0.2902  0.1811
    1BTD     N131817   5.275   7.070   0.208  0.7830 -0.4830  0.1712
    1BTD     N231818   5.193   6.951   0.429  0.0012  0.0303  0.1669
    1BTD     N331819   4.954   6.619   0.198 -0.3804  0.3362  0.1203
    1BTD     N431820   5.055   6.766  -0.074  0.5828 -0.2964  0.1254
    1BTD     C531821   5.159   6.909   0.064  0.6669 -0.3779  0.1473
    1BTD     C631822   5.198   6.963   0.191  0.5368 -0.3074  0.1585
    1BTD     C731823   5.153   6.896   0.315  0.0993 -0.0201  0.1561
    1BTD     C831824   5.069   6.779   0.305 -0.1864  0.1823  0.1426
    1BTD    C1531825   5.033   6.730   0.178 -0.0454  0.1040  0.1319
    1BTD    C1631826   5.077   6.795   0.059  0.3762 -0.1728  0.1342
    1BTD    C4331827   4.950   6.690  -0.152 -1.2239 -0.7189 -0.4782
    1BTD    C4431828   4.822   6.756  -0.195  0.1005 -0.8664  1.4217
    1BTD    C4531829   4.727   6.782  -0.090 -0.4224 -0.5327 -0.2417
    1BTD    C4631830   4.624   6.689  -0.064 -0.3616 -0.4041 -0.5588
    1BTD    C4731831   4.770   6.740  -0.346 -1.1447 -0.0997  1.5029
    1BTD    C4831832   4.704   6.856  -0.414  1.6590  0.4746 -0.3702
    1BTD    C4931833   4.635   6.856  -0.549 -0.9628 -1.1113 -1.1174
    1BTD    C5031834   4.536   6.964  -0.504 -1.0905  0.0178  0.1256
    1BTD    C7531835   4.989   6.481   0.135  0.2381 -0.0914  0.4145
    1BTD    C7631836   4.909   6.364   0.101 -0.9432  1.2073 -1.8533
    1BTD    C7731837   4.776   6.412   0.053 -0.4707 -0.0332 -0.0052
    1BTD    C7831838   4.648   6.323   0.031 -0.3921  0.0164  0.8531
    1BTD    C7931839   4.981   6.237   0.043 -0.7983  0.1227 -0.5382
    1BTD    C8031840   5.096   6.203  -0.057 -0.5095  0.7934 -0.8748
    1BTD    C8131841   5.131   6.284  -0.184  0.5028  1.1415  0.5721
    1BTD    C8231842   5.149   6.428  -0.165 -0.2797 -0.4976 -0.5779
    2TTP     S131843   5.213   7.115  -0.155  0.5647 -0.0732 -0.3033
    2TTP     S531844   5.075   6.832  -0.448 -0.0397 -0.1886  0.0892
    2TTP     C131845   5.117   6.988  -0.533 -0.0727 -0.2697 -0.0770
    2TTP     C231846   5.162   7.084  -0.447  0.1119 -0.2387 -0.2079
    2TTP     C331847   5.165   7.039  -0.311  0.2861 -0.1501 -0.1817
    2TTP     C431848   5.171   6.959  -0.070  0.5978  0.0077 -0.1366
    2TTP    C1731849   5.126   6.863  -0.156  0.4131 -0.0232 -0.0061
    2TTP    C1831850   5.123   6.908  -0.291  0.2388 -0.1119 -0.0324
    2TTP    C3231851   5.247   7.195  -0.490 -0.4049  1.1270 -0.2622
    2TTP    C3331852   5.224   7.349  -0.448 -0.2016 -0.1020 -0.4595
    2TTP    C3431853   5.329   7.455  -0.499  0.9428  0.1799 -0.3964
    2TTP    C3531854   5.314   7.494  -0.647 -1.2758 -0.5408  0.1073
    2TTP    C3631855   5.313   7.647  -0.695 -0.1554  0.0148 -1.8760
    2TTP    C3731856   5.449   7.731  -0.699  0.4676  0.0854  0.4604
    2TTP    C3831857   5.433   7.863  -0.762 -1.1280  0.6855  0.9554
    2TTP    C3931858   5.529   7.844  -0.873 -1.0267 -1.0912  0.4247
    2TTP    C4031859   5.546   7.956  -0.990 -0.4948 -0.1355 -1.0177
    2TTP    C4131860   5.523   8.108  -0.976 -0.6403 -0.2813  1.4012
    2TTP    C4231861   5.456   8.179  -1.089  0.5987  0.1139  0.9692
    3TTP     S131862   5.009   6.681   0.576  0.0232  0.3656 -0.0443
    3TTP     S531863   4.783   6.352   0.415  1.2664 -0.7597  0.4773
    3TTP     C131864   4.773   6.345   0.596  1.6359 -0.7571  0.4993
    3TTP     C231865   4.842   6.446   0.657  1.2739 -0.4096  0.3395
    3TTP     C331866   4.906   6.533   0.562  0.6914 -0.1327  0.1940
    3TTP     C431867   5.019   6.687   0.394 -0.3463  0.3631 -0.0663
    3TTP    C1731868   4.950   6.586   0.334  0.0157  0.0155  0.0935
    3TTP    C1831869   4.886   6.500   0.429  0.5982 -0.2614  0.2390
    3TTP    C3231870   4.816   6.491   0.800 -0.9397 -0.0299 -1.1362
    3TTP    C3331871   4.928   6.443   0.899  0.0437  0.3416 -0.4007
    3TTP    C3431872   5.039   6.526   0.951  0.5249 -1.9113 -0.0238
    3TTP    C3531873   5.148   6.459   1.015 -0.1486 -0.8697  0.7029
    3TTP    C3631874   5.243   6.533   1.108 -0.2323  0.0171 -1.0470
    3TTP    C3731875   5.270   6.538   1.256  0.0245  0.6473 -0.0920
    3TTP    C3831876   5.281   6.404   1.323 -0.3868  0.5105  0.7951
    3TTP    C3931877   5.258   6.400   1.464  0.1802  1.6074  0.6349
    3TTP    C4031878   5.280   6.515   1.571 -1.0150 -0.5056  0.4493
    3TTP    C4131879   5.326   6.488   1.722  0.3397 -0.7950  1.1369
    3TTP    C4231880   5.476   6.480   1.729 -0.2457 -0.3593  0.1633
    4FIC     F131881   4.822   6.648  -1.217 -0.1320 -0.2170  0.1841
    4FIC     F231882   4.744   6.896  -1.296 -0.3501 -0.2750  0.2160
    4FIC     O131883   5.069   6.762  -0.749  0.3220  0.0139 -0.1113
    4FIC     N531884   4.808   7.335  -1.076 -0.3402 -0.1932  0.0522
    4FIC     N631885   5.017   7.374  -0.694  0.0585 -0.0012 -0.1845
    4FIC    C1931886   5.082   7.040  -0.658  0.2750  0.0406 -0.1847
    4FIC    C2031887   5.023   7.001  -0.772  0.1690 -0.0151 -0.1118
    4FIC    C2131888   5.021   6.857  -0.812  0.2018 -0.0254 -0.0780
    4FIC    C2231889   4.949   6.850  -0.941  0.0638 -0.0907  0.0014
    4FIC    C2331890   4.922   6.737  -1.018  0.0398 -0.1217  0.0558
    4FIC    C2431891   4.853   6.755  -1.136 -0.1007 -0.1837  0.1276
    4FIC    C2531892   4.813   6.883  -1.177 -0.2128 -0.2133  0.1437
    4FIC    C2631893   4.840   6.997  -1.101 -0.1897 -0.1827  0.0904
    4FIC    C2731894   4.909   6.980  -0.981 -0.0483 -0.1199  0.0172
    4FIC    C2831895   4.953   7.078  -0.878  0.0120 -0.0749 -0.0522
    4FIC    C2931896   4.933   7.214  -0.882 -0.0634 -0.0859 -0.0589
    4FIC    C3031897   4.864   7.280  -0.988 -0.2153 -0.1450  0.0024
    4FIC    C3131898   4.979   7.301  -0.778  0.0041 -0.0392 -0.1280
    5FIC     F131899   4.460   5.594   0.458  0.0004 -0.3225  0.7710
    5FIC     F231900   4.368   5.591   0.714 -0.3731  0.1076  0.6449
    5FIC     O131901   4.700   6.079   0.439  0.2573 -0.4628  0.3873
    5FIC     N531902   4.408   5.933   1.070 -0.7268  0.6255  0.1902
    5FIC     N631903   4.615   6.313   1.004 -0.4511  0.4290 -0.0842
    5FIC    C1931904   4.698   6.249   0.678 -0.0085 -0.1022  0.1306
    5FIC    C2031905   4.641   6.127   0.672 -0.0584 -0.0834  0.2320
    5FIC    C2131906   4.646   6.045   0.546  0.0862 -0.2764  0.3610
    5FIC    C2231907   4.575   5.919   0.575 -0.0151 -0.2002  0.4489
    5FIC    C2331908   4.554   5.812   0.488  0.0597 -0.3208  0.5789
    5FIC    C2431909   4.484   5.703   0.538 -0.0640 -0.2128  0.6424
    5FIC    C2531910   4.437   5.702   0.670 -0.2564  0.0086  0.5773
    5FIC    C2631911   4.458   5.809   0.757 -0.3319  0.1298  0.4477
    5FIC    C2731912   4.529   5.920   0.708 -0.2089  0.0236  0.3817
    5FIC    C2831913   4.567   6.047   0.774 -0.2431  0.1041  0.2458
    5FIC    C2931914   4.540   6.085   0.903 -0.4135  0.3126  0.1509
    5FIC    C3031915   4.468   6.001   0.994 -0.5852  0.4839  0.1729
    5FIC    C3131916   4.581   6.210   0.958 -0.4331  0.3755  0.0221
    1BTD     S231917   8.732   8.296   5.204  0.6690 -0.1243 -0.0148
    1BTD     N131918   8.911   8.288   5.195  0.6511 -0.5710 -0.0131
    1BTD     N231919   8.708   8.296   5.026  0.6893  0.5150 -0.0237
    1BTD     N331920   8.982   8.280   4.645  0.6988  1.0118 -0.0387
    1BTD     N431921   9.233   8.271   4.853  0.6514 -0.3262 -0.0255
    1BTD     C531922   9.076   8.279   5.014  0.6516 -0.4268 -0.0196
    1BTD     C631923   8.942   8.285   5.066  0.6604 -0.2375 -0.0190
    1BTD     C731924   8.828   8.290   4.971  0.6826  0.3703 -0.0249
    1BTD     C831925   8.854   8.287   4.830  0.6933  0.7579 -0.0312
    1BTD    C1531926   8.987   8.281   4.784  0.6843  0.5536 -0.0319
    1BTD    C1631927   9.097   8.277   4.874  0.6634 -0.0319 -0.0261
    1BTD    C4331928   9.320   8.250   4.738  0.2227  0.3733  0.1772
    1BTD    C4431929   9.385   8.112   4.732  0.8813 -1.5873  0.3198
    1BTD    C4531930   9.480   8.125   4.604  0.0590 -0.5858  0.8571
    1BTD    C4631931   9.567   8.008   4.555 -0.2984  0.0655 -0.1932
    1BTD    C4731932   9.266   8.003   4.718 -0.9422  0.7420 -1.0198
    1BTD    C4831933   9.321   7.848   4.741  0.7754 -1.1659  0.3558
    1BTD    C4931934   9.386   7.830   4.884  0.5670 -0.4150 -0.5934
    1BTD    C5031935   9.450   7.701   4.924 -0.8915  0.9129  0.0059
    1BTD    C7531936   9.084   8.247   4.553 -0.6109  0.3577 -0.3416
    1BTD    C7631937   9.066   8.190   4.417  0.2653 -0.0590  1.4036
    1BTD    C7731938   9.112   8.284   4.300 -0.3992  0.2116 -0.4003
    1BTD    C7831939   9.208   8.222   4.196  1.1103  0.4071  0.9748
    1BTD    C7931940   8.995   8.048   4.386  0.0449  1.6196  0.1162
    1BTD    C8031941   8.854   8.036   4.322  1.0753 -0.2368  0.6168
    1BTD    C8131942   8.858   7.951   4.199 -1.3254  1.1664 -0.8424
    1BTD    C8231943   8.814   7.793   4.227 -0.8220 -1.0631  0.5498
    2TTP     S131944   9.263   8.242   5.244 -0.3880  0.0469  0.1474
    2TTP     S531945   9.580   8.238   4.954 -0.4230 -0.8411  0.1186
    2TTP     C131946   9.652   8.213   5.119 -0.4648 -0.9277  0.1240
    2TTP     C231947   9.559   8.213   5.218 -0.4563 -0.6585  0.1333
    2TTP     C331948   9.426   8.232   5.168 -0.4168 -0.3743  0.1364
    2TTP     C431949   9.191   8.267   5.079 -0.3459  0.1335  0.1422
    2TTP    C1731950   9.285   8.267   4.980 -0.3545 -0.1358  0.1328
    2TTP    C1831951   9.417   8.248   5.030 -0.3941 -0.4199  0.1297
    2TTP    C3231952   9.582   8.177   5.354 -1.6645 -0.3393 -0.6857
    2TTP    C3331953   9.629   8.284   5.441  0.7031 -0.9113  0.3595
    2TTP    C3431954   9.642   8.234   5.590 -0.3262  1.1631  0.9241
    2TTP    C3531955   9.670   8.352   5.687 -0.2750 -0.5646 -0.4536
    2TTP    C3631956   9.662   8.269   5.802 -0.7803  0.0319 -0.6381
    2TTP    C3731957   9.639   8.345   5.937  0.3723 -0.0233 -0.9983
    2TTP    C3831958   9.779   8.377   5.997 -0.6290  0.9570  0.4002
    2TTP    C3931959   9.880   8.249   6.012  0.3766  0.8142  0.5079
    2TTP    C4031960  10.038   8.241   6.012  1.0496  1.6136  0.3950
    2TTP    C4131961  10.118   8.357   5.938  0.1149 -0.1529 -1.6715
    2TTP    C4231962  10.124   8.482   6.042 -0.2099 -0.1279  0.7613
    3TTP     S131963   8.624   8.397   4.718  0.4521 -0.0953 -0.1188
    3TTP     S531964   8.849   8.471   4.359  0.0854 -0.6344 -0.4636
    3TTP     C131965   8.703   8.579   4.359  0.1228 -0.5832 -0.4404
    3TTP     C231966   8.625   8.562   4.469  0.2387 -0.4132 -0.3326
    3TTP     C331967   8.678   8.464   4.558  0.3014 -0.3181 -0.2644
    3TTP     C431968   8.771   8.289   4.718  0.4144 -0.1469 -0.1420
    3TTP    C1731969   8.849   8.306   4.607  0.2987 -0.3163 -0.2499
    3TTP    C1831970   8.796   8.404   4.518  0.2360 -0.4117 -0.3182
    3TTP    C3231971   8.498   8.649   4.494 -0.0811 -0.8997  0.2993
    3TTP    C3331972   8.471   8.787   4.553 -0.9630 -0.0219  1.5617
    3TTP    C3431973   8.554   8.819   4.684  0.4823  0.1550 -0.2241
    3TTP    C3531974   8.705   8.804   4.704 -0.6099  1.1798 -0.3413
    3TTP    C3631975   8.784   8.904   4.632  1.4855  0.2216 -1.2664
    3TTP    C3731976   8.932   8.941   4.644  0.1598  0.8989 -0.2368
    3TTP    C3831977   8.938   9.054   4.544 -1.3849  0.0931 -0.8199
    3TTP    C3931978   9.071   9.141   4.561 -0.6842  0.6026 -0.1153
    3TTP    C4031979   9.082   9.241   4.677 -0.5716 -0.1036  0.3100
    3TTP    C4131980   8.982   9.348   4.710 -1.6308  0.0903 -0.6828
    3TTP    C4231981   8.961   9.452   4.613 -0.6986 -0.1437 -1.0225
    4FIC     F131982  10.288   8.130   4.593  0.0925  1.2548 -0.4121
    4FIC     F231983  10.458   8.145   4.804  0.2100 -1.1187 -0.2778
    4FIC     O131984   9.809   8.166   4.844  0.2887  2.1582 -0.1616
    4FIC     N531985  10.363   8.194   5.288  0.5195 -3.8879  0.0936
    4FIC     N631986   9.954   8.219   5.441  0.6495 -2.7032  0.2620
    4FIC    C1931987   9.802   8.194   5.136  0.4710  0.2113  0.0554
    4FIC    C2031988   9.916   8.184   5.064  0.4170  0.0768 -0.0129
    4FIC    C2131989   9.911   8.170   4.914  0.3242  1.1203 -0.1231
    4FIC    C2231990  10.051   8.162   4.869  0.2842  0.6659 -0.1756
    4FIC    C2331991  10.098   8.149   4.738  0.1988  1.3032 -0.2787
    4FIC    C2431992  10.235   8.143   4.720  0.1759  0.6799 -0.3110
    4FIC    C2531993  10.323   8.151   4.829  0.2366 -0.5433 -0.2417
    4FIC    C2631994  10.277   8.165   4.959  0.3219 -1.1847 -0.1388
    4FIC    C2731995  10.139   8.171   4.980  0.3464 -0.5689 -0.1048
    4FIC    C2831996  10.059   8.184   5.104  0.4306 -0.9794 -0.0019
    4FIC    C2931997  10.108   8.195   5.232  0.5062 -2.1205  0.0865
    4FIC    C3031998  10.248   8.194   5.262  0.5133 -3.0880  0.0900
    4FIC    C3131999  10.023   8.208   5.347  0.5846 -2.4347  0.1826
    5FIC     F132000   9.219   9.109   4.026 -0.3669 -0.1721 -0.2152
    5FIC     F232001   9.028   9.183   3.848 -0.2666 -0.2720 -0.3648
    5FIC     O132002   8.949   8.745   4.322 -0.5970  0.1495 -0.0286
    5FIC     N532003   8.559   9.030   3.803 -0.2866 -0.1872 -0.4470
    5FIC     N632004   8.387   8.731   4.070 -0.4866  0.0842 -0.2710
    5FIC    C1932005   8.670   8.687   4.257 -0.5829  0.1677 -0.1053
    5FIC    C2032006   8.745   8.775   4.190 -0.5291  0.0908 -0.1464
    5FIC    C2132007   8.888   8.800   4.229 -0.5403  0.0868 -0.1026
    5FIC    C2232008   8.941   8.901   4.136 -0.4711 -0.0057 -0.1650
    5FIC    C2332009   9.069   8.956   4.133 -0.4554 -0.0422 -0.1537
    5FIC    C2432010   9.095   9.051   4.035 -0.3862 -0.1320 -0.2219
    5FIC    C2532011   8.996   9.089   3.943 -0.3348 -0.1832 -0.2989
    5FIC    C2632012   8.868   9.034   3.945 -0.3502 -0.1478 -0.3107
    5FIC    C2732013   8.840   8.939   4.044 -0.4199 -0.0570 -0.2424
    5FIC    C2832014   8.716   8.863   4.073 -0.4532  0.0007 -0.2339
    5FIC    C2932015   8.596   8.872   4.006 -0.4206 -0.0255 -0.2954
    5FIC    C3032016   8.576   8.959   3.894 -0.3469 -0.1142 -0.3785
    5FIC    C3132017   8.482   8.794   4.042 -0.4570  0.0350 -0.2817
    1BTD     S232018   8.310   9.243   9.623  0.2511  0.4880  0.3480
    1BTD     N132019   8.293   9.214   9.446 -0.1342  0.8481  0.3238
    1BTD     N232020   8.490   9.253   9.619  0.2873 -0.1450  0.0827
    1BTD     N332021   8.825   9.223   9.291 -0.3345 -0.7846 -0.5021
    1BTD     N432022   8.583   9.175   9.079 -0.8545  0.4387 -0.2055
    1BTD     C532023   8.447   9.194   9.257 -0.5038  0.6194  0.0436
    1BTD     C632024   8.416   9.214   9.396 -0.2122  0.4961  0.1292
    1BTD     C732025   8.526   9.236   9.492  0.0238 -0.0596 -0.0057
    1BTD     C832026   8.662   9.237   9.445 -0.0436 -0.4644 -0.2189
    1BTD    C1532027   8.688   9.217   9.308 -0.3322 -0.3254 -0.2959
    1BTD    C1632028   8.582   9.196   9.215 -0.5601  0.2108 -0.1660
    1BTD    C4332029   8.676   9.254   8.990 -0.4542  0.0714 -0.4444
    1BTD    C4432030   8.674   9.404   8.932  1.2456  1.1992  0.9047
    1BTD    C4532031   8.768   9.425   8.809  0.6025 -0.0365 -0.2838
    1BTD    C4632032   8.894   9.487   8.867 -0.5236 -0.5475 -0.6248
    1BTD    C4732033   8.633   9.519   9.017 -1.3885  0.3350 -0.1477
    1BTD    C4832034   8.476   9.534   9.022 -0.0229 -0.8234 -0.0577
    1BTD    C4932035   8.436   9.596   9.159  0.4181 -0.8780  0.2536
    1BTD    C5032036   8.513   9.717   9.213  0.7358 -0.4208  0.1256
    1BTD    C7532037   8.892   9.150   9.176  0.0923 -0.0403 -0.8270
    1BTD    C7632038   8.910   8.992   9.220  0.7493  0.2770 -0.9431
    1BTD    C7732039   8.889   8.889   9.109 -1.1464  0.5838  0.2281
    1BTD    C7832040   8.970   8.896   8.981  0.9586 -0.9043 -0.3504
    1BTD    C7932041   9.015   8.970   9.318 -1.0702  0.0696 -0.1656
    1BTD    C8032042   9.005   8.881   9.439  1.1984  0.9735 -0.6834
    1BTD    C8132043   9.146   8.824   9.483  0.1146 -0.3958 -0.6203
    1BTD    C8232044   9.242   8.897   9.568 -1.5042 -1.1261  0.6334
    2TTP     S132045   8.206   9.091   9.113  0.3736 -0.9764  0.1470
    2TTP     S532046   8.462   8.951   8.797 -0.3333  0.3107 -1.0178
    2TTP     C132047   8.294   8.887   8.769 -0.2536 -0.1331 -0.5217
    2TTP     C232048   8.205   8.926   8.865 -0.0305 -0.5567 -0.1326
    2TTP     C332049   8.266   9.008   8.964  0.0854 -0.5460 -0.2127
    2TTP     C432050   8.373   9.155   9.142  0.2942 -0.5322 -0.3488
    2TTP    C1732051   8.462   9.116   9.046  0.0708 -0.1088 -0.7383
    2TTP    C1832052   8.401   9.033   8.947 -0.0448 -0.1194 -0.6585
    2TTP    C3232053   8.054   8.877   8.871  0.0442 -0.0661  0.3477
    2TTP    C3332054   7.947   8.968   8.880  0.1243 -0.4917 -0.4489
    2TTP    C3432055   7.804   8.929   8.843  0.8482 -0.9376 -0.2522
    2TTP    C3532056   7.711   8.849   8.936 -0.5122 -0.0163 -0.7374
    2TTP    C3632057   7.589   8.783   8.860 -0.4714  0.3467  0.2875
    2TTP    C3732058   7.515   8.696   8.968 -0.4965 -0.7445  0.7050
    2TTP    C3832059   7.600   8.568   9.003  2.2160 -0.9796 -0.5784
    2TTP    C3932060   7.582   8.445   8.927 -0.4153 -0.9222  0.0557
    2TTP    C4032061   7.437   8.398   8.895  0.3868  0.1379 -1.5311
    2TTP    C4132062   7.410   8.286   8.805 -0.4716  1.0664 -0.0200
    2TTP    C4232063   7.440   8.290   8.656  1.0033 -1.0873  0.6543
    3TTP     S132064   8.863   9.262   9.682 -0.2930  0.6160 -0.0887
    3TTP     S532065   9.171   9.362   9.399  0.2534 -0.8750 -0.0389
    3TTP     C132066   9.240   9.374   9.566  0.1162 -0.6328  0.0010
    3TTP     C232067   9.149   9.344   9.664 -0.0610 -0.1578 -0.0119
    3TTP     C332068   9.022   9.310   9.609 -0.0939  0.0315 -0.0539
    3TTP     C432069   8.794   9.250   9.514 -0.1557  0.3738 -0.1283
    3TTP    C1732070   8.885   9.280   9.417  0.0215 -0.1009 -0.1156
    3TTP    C1832071   9.013   9.314   9.471  0.0548 -0.2906 -0.0737
    3TTP    C3232072   9.177   9.359   9.822  0.2028  0.0752  0.3597
    3TTP    C3332073   9.084   9.475   9.856  1.2728 -0.5133  0.1350
    3TTP    C3432074   8.949   9.451   9.920  1.7400  0.8521  0.5394
    3TTP    C3532075   8.872   9.550   9.995 -0.1020  0.3623  0.1518
    3TTP    C3632076   8.724   9.551   9.993 -0.4845 -0.8713  0.1827
    3TTP    C3732077   8.663   9.622  10.092  1.4634 -0.3026  0.8434
    3TTP    C3832078   8.510   9.606  10.095 -0.1422  0.0570  0.4616
    3TTP    C3932079   8.428   9.702  10.186  0.1166 -0.2786  1.2490
    3TTP    C4032080   8.476   9.725  10.333  0.6498 -0.6055  0.6343
    3TTP    C4132081   8.383   9.747  10.454 -0.5109 -1.3494  0.3927
    3TTP    C4232082   8.288   9.650  10.494 -0.3324 -1.4781  0.3114
    4FIC     F132083   8.596   8.758   8.011 -0.2878  1.3931 -0.4313
    4FIC     F232084   8.395   8.579   7.970  1.2996 -0.6511  0.3394
    4FIC     O132085   8.479   8.932   8.510 -1.3072  1.8151 -0.8123
    4FIC     N532086   8.022   8.446   8.267  2.8551 -3.2892  1.1756
    4FIC     N632087   7.971   8.618   8.665  1.7384 -2.5475  0.7226
    4FIC    C1932088   8.245   8.822   8.648 -0.1528  0.0117 -0.2113
    4FIC    C2032089   8.282   8.786   8.524  0.0417 -0.0143 -0.1457
    4FIC    C2132090   8.404   8.846   8.460 -0.5856  0.9453 -0.4692
    4FIC    C2232091   8.416   8.785   8.327 -0.1736  0.6461 -0.2992
    4FIC    C2332092   8.513   8.809   8.230 -0.5076  1.2743 -0.4866
    4FIC    C2432093   8.503   8.739   8.111  0.0027  0.8170 -0.2644
    4FIC    C2532094   8.400   8.647   8.090  0.8202 -0.2366  0.1327
    4FIC    C2632095   8.302   8.622   8.186  1.1573 -0.8678  0.3214
    4FIC    C2732096   8.310   8.692   8.307  0.6502 -0.4187  0.1016
    4FIC    C2832097   8.224   8.689   8.428  0.8152 -0.8664  0.2117
    4FIC    C2932098   8.112   8.612   8.446  1.5452 -1.8773  0.5751
    4FIC    C3032099   8.063   8.521   8.347  2.2628 -2.6503  0.9041
    4FIC    C3132100   8.035   8.615   8.567  1.6475 -2.2402  0.6545
    5FIC     F132101   9.953   9.611   9.194  0.1280  0.2174  0.0508
    5FIC     F232102  10.070   9.617   9.440  0.1333  0.4447  0.0422
    5FIC     O132103   9.451   9.456   9.322  0.2096  0.0544  0.1750
    5FIC     N532104   9.878   9.515   9.885  0.1996  0.6552  0.1192
    5FIC     N632105   9.462   9.392   9.936  0.2623  0.4821  0.2179
    5FIC    C1932106   9.383   9.406   9.603  0.2441  0.2132  0.2116
    5FIC    C2032107   9.505   9.445   9.561  0.2232  0.2456  0.1802
    5FIC    C2132108   9.532   9.469   9.415  0.2065  0.1585  0.1633
    5FIC    C2232109   9.673   9.509   9.405  0.1857  0.2222  0.1302
    5FIC    C2332110   9.744   9.542   9.289  0.1657  0.1781  0.1054
    5FIC    C2432111   9.877   9.578   9.304  0.1481  0.2552  0.0758
    5FIC    C2532112   9.937   9.581   9.431  0.1513  0.3719  0.0723
    5FIC    C2632113   9.867   9.548   9.547  0.1712  0.4165  0.0966
    5FIC    C2732114   9.732   9.512   9.534  0.1888  0.3400  0.1264
    5FIC    C2832115   9.631   9.473   9.635  0.2117  0.3591  0.1571
    5FIC    C2932116   9.650   9.463   9.770  0.2213  0.4623  0.1628
    5FIC    C3032117   9.776   9.492   9.833  0.2093  0.5679  0.1385
    5FIC    C3132118   9.547   9.424   9.861  0.2439  0.4723  0.1929
    1BTD     S232119   2.561   2.779   8.002  0.1422 -0.0299 -0.2306
    1BTD     N132120   2.662   2.856   8.129  0.0581  0.0479 -0.2108
    1BTD     N232121   2.681   2.651   7.963  0.1767 -0.0408 -0.0885
    1BTD     N332122   3.108   2.528   8.115  0.0955  0.0777  0.2379
    1BTD     N432123   3.084   2.780   8.320 -0.0505  0.1869  0.0870
    1BTD     C532124   2.882   2.813   8.226  0.0032  0.1191 -0.0536
    1BTD     C632125   2.774   2.785   8.136  0.0601  0.0612 -0.1047
    1BTD     C732126   2.785   2.671   8.043  0.1265  0.0115 -0.0360
    1BTD     C832127   2.903   2.590   8.045  0.1325  0.0224  0.0803
    1BTD    C1532128   3.007   2.621   8.135  0.0755  0.0800  0.1264
    1BTD    C1632129   2.997   2.731   8.224  0.0114  0.1279  0.0608
    1BTD    C4332130   3.225   2.771   8.349 -0.8464 -0.6739  0.1880
    1BTD    C4432131   3.325   2.876   8.312  0.0990  0.1868 -0.1023
    1BTD    C4532132   3.427   2.918   8.415  0.3280  0.9358 -0.4234
    1BTD    C4632133   3.559   2.871   8.362  1.3605 -0.2286 -1.9527
    1BTD    C4732134   3.308   2.937   8.178 -0.5456  0.3545  0.6632
    1BTD    C4832135   3.232   3.072   8.122  0.4948  0.5672 -2.0513
    1BTD    C4932136   3.238   3.062   7.978  0.2757 -2.0623 -0.7055
    1BTD    C5032137   3.128   3.153   7.931 -1.1824  0.2559  0.3040
    1BTD    C7532138   3.207   2.489   8.216  0.5047 -1.7315 -0.0338
    1BTD    C7632139   3.326   2.417   8.189 -0.4226 -0.0007 -0.1171
    1BTD    C7732140   3.441   2.517   8.205 -0.4917 -1.9966  0.7255
    1BTD    C7832141   3.479   2.616   8.097 -0.1301 -1.1570 -0.0862
    1BTD    C7932142   3.356   2.311   8.291  0.5446  2.0425 -1.7905
    1BTD    C8032143   3.508   2.256   8.295 -0.3405 -0.3706  0.1288
    1BTD    C8132144   3.555   2.110   8.259  0.0079  0.5821  0.3829
    1BTD    C8232145   3.577   2.029   8.387 -1.5562  0.0337  1.6532
    2TTP     S132146   2.803   3.053   8.384  0.4437  0.2450 -0.0479
    2TTP     S532147   3.145   2.991   8.637  0.3088  0.1302  0.1056
    2TTP     C132148   3.046   3.127   8.705  0.3113  0.1474  0.0749
    2TTP     C232149   2.935   3.155   8.631  0.3530  0.1839  0.0253
    2TTP     C332150   2.923   3.068   8.518  0.3846  0.1996  0.0103
    2TTP     C432151   2.902   2.916   8.315  0.4412  0.2277 -0.0172
    2TTP    C1732152   3.013   2.889   8.390  0.3994  0.1912  0.0325
    2TTP    C1832153   3.025   2.975   8.503  0.3678  0.1756  0.0474
    2TTP    C3232154   2.821   3.251   8.653 -1.1668  0.0009  1.0097
    2TTP    C3332155   2.828   3.374   8.548 -0.5083 -0.6083  0.3508
    2TTP    C3432156   2.701   3.448   8.557  1.3108 -0.4151  0.1159
    2TTP    C3532157   2.637   3.496   8.431 -0.9183  0.7290 -0.6099
    2TTP    C3632158   2.539   3.612   8.452 -0.4314  0.7545  0.0307
    2TTP    C3732159   2.410   3.602   8.352 -0.5823 -0.3839  1.1647
    2TTP    C3832160   2.278   3.670   8.396 -0.6157  0.1389  0.7275
    2TTP    C3932161   2.169   3.577   8.406  0.3214  1.3199 -0.8268
    2TTP    C4032162   2.091   3.524   8.293 -0.5227 -0.6657  0.2535
    2TTP    C4132163   2.093   3.601   8.160 -0.2185  0.5728  0.4064
    2TTP    C4232164   2.204   3.572   8.051  0.0845  1.0829  0.1215
    3TTP     S132165   2.878   2.380   7.833  0.0254  0.2519  0.5217
    3TTP     S532166   3.277   2.248   7.922 -0.3248 -0.9972  0.2874
    3TTP     C132167   3.212   2.146   7.786 -0.6392 -0.6412  0.1694
    3TTP     C232168   3.084   2.181   7.750 -0.5496 -0.2346  0.2348
    3TTP     C332169   3.034   2.289   7.829 -0.2294 -0.1895  0.3805
    3TTP     C432170   2.943   2.481   7.969  0.3398 -0.1040  0.6398
    3TTP    C1732171   3.070   2.447   8.004  0.2502 -0.5107  0.5744
    3TTP    C1832172   3.121   2.339   7.925 -0.0700 -0.5559  0.4287
    3TTP    C3232173   3.000   2.112   7.642  0.5035  0.8997  1.0056
    3TTP    C3332174   2.871   2.017   7.661 -0.1143 -0.3344  0.1702
    3TTP    C3432175   2.866   1.937   7.779  1.5490  0.5738  0.2411
    3TTP    C3532176   2.727   1.885   7.820 -0.3199  0.7523 -0.0065
    3TTP    C3632177   2.701   1.785   7.942  0.1950 -0.9965 -0.6143
    3TTP    C3732178   2.569   1.799   8.022 -0.2521 -0.6656  0.8114
    3TTP    C3832179   2.427   1.791   7.947 -0.5937  0.2034 -1.3840
    3TTP    C3932180   2.375   1.936   7.970  0.5998  1.4285 -0.7351
    3TTP    C4032181   2.252   1.953   7.890  0.4895 -0.2678 -0.2072
    3TTP    C4132182   2.136   1.844   7.879  0.8140 -0.5495 -0.8979
    3TTP    C4232183   2.061   1.806   7.992  0.1502  0.6843  0.8566
    4FIC     F132184   3.241   2.779   9.420 -0.2050 -0.3561 -0.0818
    4FIC     F232185   3.214   3.021   9.541 -0.1041 -0.4349  0.0987
    4FIC     O132186   3.129   2.910   8.906 -0.0029  0.1026 -0.0105
    4FIC     N532187   3.095   3.462   9.350  0.1853 -0.2213  0.4089
    4FIC     N632188   3.013   3.515   8.924  0.3229  0.1530  0.4280
    4FIC    C1932189   3.064   3.187   8.840  0.1654  0.1902  0.1872
    4FIC    C2032190   3.093   3.145   8.964  0.1105  0.0780  0.1624
    4FIC    C2132191   3.126   3.000   8.990  0.0252  0.0396  0.0589
    4FIC    C2232192   3.152   2.989   9.135 -0.0179 -0.0870  0.0570
    4FIC    C2332193   3.186   2.875   9.206 -0.0986 -0.1612 -0.0224
    4FIC    C2432194   3.207   2.888   9.343 -0.1259 -0.2779 -0.0062
    4FIC    C2532195   3.192   3.013   9.405 -0.0738 -0.3182  0.0868
    4FIC    C2632196   3.158   3.128   9.335  0.0067 -0.2447  0.1664
    4FIC    C2732197   3.137   3.116   9.196  0.0355 -0.1262  0.1514
    4FIC    C2832198   3.100   3.216   9.094  0.1166 -0.0266  0.2198
    4FIC    C2932199   3.078   3.350   9.115  0.1842 -0.0305  0.3176
    4FIC    C3032200   3.087   3.411   9.244  0.1846 -0.1354  0.3672
    4FIC    C3132201   3.042   3.440   9.010  0.2601  0.0705  0.3779
    5FIC     F132202   3.992   1.888   7.815 -0.0541  0.1024 -0.3637
    5FIC     F232203   3.954   1.762   7.577 -0.2481  0.1005 -0.3315
    5FIC     O132204   3.502   2.102   7.897  0.0047  0.0794  0.0488
    5FIC     N532205   3.549   1.732   7.294 -0.4851  0.0815  0.0087
    5FIC     N632206   3.174   1.924   7.406 -0.4001  0.0640  0.3246
    5FIC    C1932207   3.291   2.056   7.699 -0.1597  0.0695  0.2262
    5FIC    C2032208   3.416   2.008   7.688 -0.1670  0.0753  0.1211
    5FIC    C2132209   3.519   2.035   7.794 -0.0791  0.0802  0.0346
    5FIC    C2232210   3.643   1.968   7.750 -0.1124  0.0859 -0.0697
    5FIC    C2332211   3.765   1.966   7.816 -0.0568  0.0917 -0.1727
    5FIC    C2432212   3.868   1.895   7.755 -0.1045  0.0966 -0.2593
    5FIC    C2532213   3.848   1.830   7.633 -0.2045  0.0955 -0.2427
    5FIC    C2632214   3.726   1.832   7.567 -0.2602  0.0898 -0.1400
    5FIC    C2732215   3.621   1.903   7.627 -0.2133  0.0849 -0.0511
    5FIC    C2832216   3.480   1.925   7.583 -0.2509  0.0784  0.0666
    5FIC    C2932217   3.422   1.877   7.468 -0.3453  0.0757  0.1159
    5FIC    C3032218   3.492   1.797   7.373 -0.4219  0.0789  0.0567
    5FIC    C3132219   3.286   1.903   7.435 -0.3749  0.0693  0.2306
    1BTD     S232220   1.558   0.130   3.262 -0.1553 -0.2574  0.0544
    1BTD     N132221   1.404   0.066   3.331 -0.1971 -0.1874  0.0272
    1BTD     N232222   1.477   0.232   3.138 -0.0899 -0.1473  0.1015
    1BTD     N332223   1.034   0.323   3.009 -0.0318  0.2033  0.1486
    1BTD     N432224   0.946   0.118   3.246 -0.1639  0.1540  0.0569
    1BTD     C532225   1.166   0.096   3.284 -0.1781 -0.0086  0.0437
    1BTD     C632226   1.306   0.121   3.261 -0.1619 -0.0906  0.0532
    1BTD     C732227   1.346   0.214   3.154 -0.1018 -0.0682  0.0949
    1BTD     C832228   1.245   0.277   3.074 -0.0611  0.0352  0.1249
    1BTD    C1532229   1.109   0.250   3.100 -0.0790  0.1130  0.1143
    1BTD    C1632230   1.070   0.160   3.203 -0.1368  0.0914  0.0741
    1BTD    C4332231   0.823   0.104   3.165  0.1832  0.1467 -0.4659
    1BTD    C4432232   0.804  -0.004   3.059 -0.6856  0.6140 -0.4333
    1BTD    C4532233   0.850   0.028   2.915  0.0833 -0.6576  1.1167
    1BTD    C4632234   0.947  -0.066   2.852 -0.4059 -0.9429 -0.5102
    1BTD    C4732235   0.751  -0.146   3.098  1.3439 -0.6554 -0.8216
    1BTD    C4832236   0.620  -0.214   3.031 -1.2146 -1.1996  0.3248
    1BTD    C4932237   0.488  -0.143   2.981  0.9674 -0.0945 -0.7193
    1BTD    C5032238   0.440  -0.030   3.085 -0.9350  0.2515  0.4818
    1BTD    C7532239   0.906   0.377   3.036 -0.1271  0.4749  0.2750
    1BTD    C7632240   0.800   0.458   2.959  1.1872 -0.3656  0.0329
    1BTD    C7732241   0.854   0.595   2.906  0.5795 -1.2523 -0.6685
    1BTD    C7832242   0.901   0.704   3.009  0.2328 -0.5840  1.0956
    1BTD    C7932243   0.653   0.472   3.014 -0.5405  0.1355  0.3252
    1BTD    C8032244   0.570   0.337   3.025 -1.2111 -0.9383  2.0387
    1BTD    C8132245   0.433   0.360   3.034  0.8278 -0.2945  0.5763
    1BTD    C8232246   0.368   0.407   3.168  0.9183  0.3029  2.1904
    2TTP     S132247   1.124  -0.116   3.504  0.2026 -0.9149 -0.5419
    2TTP     S532248   0.701  -0.090   3.433  0.1647  0.2327  0.0486
    2TTP     C132249   0.731  -0.222   3.555 -0.0097  0.0694 -0.0828
    2TTP     C232250   0.863  -0.238   3.584 -0.0082 -0.2947 -0.2729
    2TTP     C332251   0.946  -0.146   3.511  0.1307 -0.4578 -0.3216
    2TTP     C432252   1.093   0.015   3.382  0.3770 -0.7517 -0.4104
    2TTP    C1732253   0.961   0.031   3.353  0.3756 -0.3876 -0.2204
    2TTP    C1832254   0.879  -0.060   3.426  0.2367 -0.2246 -0.1716
    2TTP    C3232255   0.929  -0.348   3.673  0.5871 -0.8183 -0.7791
    2TTP    C3332256   1.005  -0.302   3.799  0.7133 -0.8019 -0.3746
    2TTP    C3432257   1.001  -0.413   3.906  0.6703  0.3170 -0.8308
    2TTP    C3532258   1.065  -0.547   3.874 -0.2160 -1.2995 -1.8324
    2TTP    C3632259   1.191  -0.568   3.795  0.1918  0.0190  1.2850
    2TTP    C3732260   1.216  -0.723   3.800 -0.4039 -1.8107  0.0380
    2TTP    C3832261   1.353  -0.780   3.741 -0.0126 -0.4688 -0.1480
    2TTP    C3932262   1.361  -0.823   3.594 -1.3969 -0.3859 -1.1102
    2TTP    C4032263   1.255  -0.908   3.532  0.0376  1.0222  1.4557
    2TTP    C4132264   1.143  -0.819   3.471  0.2809 -0.4274  0.1562
    2TTP    C4232265   1.125  -0.813   3.320  0.1212 -0.6749 -0.0375
    3TTP     S132266   1.384   0.434   2.866 -0.1121 -0.1864  0.4066
    3TTP     S532267   1.016   0.400   2.645 -0.0612 -0.1599  0.3175
    3TTP     C132268   1.149   0.446   2.530 -0.0778  0.0778  0.3915
    3TTP     C232269   1.270   0.459   2.591 -0.0945  0.0836  0.4233
    3TTP     C332270   1.263   0.433   2.731 -0.0947 -0.0994  0.3905
    3TTP     C432271   1.251   0.388   2.981 -0.0954 -0.4240  0.3326
    3TTP    C1732272   1.129   0.375   2.920 -0.0787 -0.4298  0.3008
    3TTP    C1832273   1.137   0.401   2.779 -0.0785 -0.2468  0.3336
    3TTP    C3232274   1.409   0.513   2.544  1.0318  0.2312  1.3064
    3TTP    C3332275   1.403   0.653   2.472 -1.7323 -0.5728  0.0489
    3TTP    C3432276   1.478   0.768   2.555  0.8531  0.6920  0.7930
    3TTP    C3532277   1.378   0.859   2.642 -1.3807  0.6066  0.3113
    3TTP    C3632278   1.290   0.952   2.558 -0.0776  0.8616 -0.1386
    3TTP    C3732279   1.364   1.077   2.500  0.0821  0.8332  0.9199
    3TTP    C3832280   1.430   1.152   2.606  0.3178 -1.4855 -0.8697
    3TTP    C3932281   1.474   1.280   2.529 -0.4337 -0.2895  0.0310
    3TTP    C4032282   1.509   1.374   2.627  1.1968  0.8105  0.7498
    3TTP    C4132283   1.610   1.487   2.603 -0.8238  0.2369 -1.5038
    3TTP    C4232284   1.747   1.452   2.576  1.1714  0.3799 -0.2241
    4FIC     F132285   0.067  -0.605   3.256  0.4185  0.0665 -0.2974
    4FIC     F232286   0.066  -0.763   3.478  0.1875  0.2816 -0.1447
    4FIC     O132287   0.491  -0.285   3.360  0.3692  0.1044 -0.2108
    4FIC     N532288   0.366  -0.761   3.871 -0.1799  0.6177  0.1366
    4FIC     N632289   0.698  -0.479   3.908 -0.1718  0.6042  0.1734
    4FIC    C1932290   0.641  -0.322   3.609  0.1310  0.3232 -0.0341
    4FIC    C2032291   0.534  -0.396   3.574  0.1524  0.3057 -0.0618
    4FIC    C2132292   0.462  -0.372   3.444  0.2774  0.1905 -0.1537
    4FIC    C2232293   0.352  -0.469   3.438  0.2688  0.2005 -0.1621
    4FIC    C2332294   0.258  -0.485   3.337  0.3614  0.1161 -0.2353
    4FIC    C2432295   0.163  -0.585   3.353  0.3314  0.1460 -0.2276
    4FIC    C2532296   0.162  -0.665   3.467  0.2123  0.2569 -0.1487
    4FIC    C2632297   0.256  -0.650   3.569  0.1194  0.3414 -0.0755
    4FIC    C2732298   0.353  -0.550   3.554  0.1480  0.3128 -0.0820
    4FIC    C2832299   0.465  -0.509   3.642  0.0718  0.3817 -0.0173
    4FIC    C2932300   0.498  -0.564   3.764 -0.0502  0.4947  0.0676
    4FIC    C3032301   0.425  -0.672   3.823 -0.1210  0.5622  0.1053
    4FIC    C3132302   0.608  -0.517   3.842 -0.1164  0.5543  0.1254
    5FIC     F132303   0.713   0.015   1.981 -0.6119  0.0586  0.4076
    5FIC     F232304   0.760   0.210   1.797 -1.0650  0.1192  0.3545
    5FIC     O132305   0.990   0.205   2.405  0.1377  0.0987 -0.0966
    5FIC     N532306   1.025   0.626   1.835 -1.1820  0.2350 -0.0812
    5FIC     N632307   1.232   0.736   2.204 -0.5049  0.2540 -0.4646
    5FIC    C1932308   1.134   0.459   2.380 -0.0289  0.1708 -0.3265
    5FIC    C2032309   1.062   0.404   2.281 -0.1997  0.1584 -0.1976
    5FIC    C2132310   0.991   0.273   2.301 -0.0989  0.1210 -0.0847
    5FIC    C2232311   0.923   0.242   2.174 -0.3355  0.1162  0.0412
    5FIC    C2332312   0.845   0.130   2.144 -0.3423  0.0858  0.1721
    5FIC    C2432313   0.791   0.122   2.017 -0.5906  0.0876  0.2756
    5FIC    C2532314   0.816   0.223   1.922 -0.8237  0.1189  0.2479
    5FIC    C2632315   0.894   0.334   1.951 -0.8184  0.1493  0.1176
    5FIC    C2732316   0.949   0.344   2.080 -0.5689  0.1480  0.0115
    5FIC    C2832317   1.035   0.448   2.141 -0.4947  0.1752 -0.1363
    5FIC    C2932318   1.081   0.563   2.081 -0.6667  0.2093 -0.2035
    5FIC    C3032319   1.050   0.597   1.946 -0.9495  0.2233 -0.1360
    5FIC    C3132320   1.164   0.657   2.149 -0.5767  0.2337 -0.3467
    1BTD     S232321   0.800   2.673   2.056  0.3436  0.5837 -0.4296
    1BTD     N132322   0.812   2.527   2.161 -0.0373  0.3981 -0.6422
    1BTD     N232323   0.931   2.620   1.944  0.3358  0.4957 -0.3975
    1BTD     N332324   1.217   2.250   1.905 -0.3678 -0.0189 -0.7161
    1BTD     N432325   1.070   2.135   2.172 -0.8276 -0.1393 -1.0177
    1BTD     C532326   0.948   2.324   2.164 -0.4444  0.1189 -0.8345
    1BTD     C632327   0.907   2.450   2.110 -0.1451  0.2859 -0.6766
    1BTD     C732328   0.974   2.503   1.988  0.0637  0.3406 -0.5397
    1BTD     C832329   1.078   2.425   1.927 -0.0371  0.2257 -0.5675
    1BTD    C1532330   1.116   2.302   1.983 -0.3321  0.0634 -0.7243
    1BTD    C1632331   1.051   2.251   2.100 -0.5333  0.0107 -0.8562
    1BTD    C4332332   1.203   2.070   2.207 -0.8634  0.5712 -0.5949
    1BTD    C4432333   1.285   2.079   2.349 -0.6453  0.3589  0.6451
    1BTD    C4532334   1.331   2.219   2.366  0.3693  0.1692 -0.3365
    1BTD    C4632335   1.255   2.289   2.472  0.3834 -0.0743 -0.9341
    1BTD    C4732336   1.419   1.978   2.358  0.9694  1.0429  1.4387
    1BTD    C4832337   1.395   1.823   2.339 -0.2942 -0.3680  0.3540
    1BTD    C4932338   1.361   1.739   2.467 -0.1981  0.2895 -0.4779
    1BTD    C5032339   1.228   1.756   2.527 -0.4933  0.0355 -1.4220
    1BTD    C7532340   1.305   2.125   1.900 -0.0207  0.7751  0.2666
    1BTD    C7632341   1.253   1.996   1.842 -0.0362  0.2040  0.9472
    1BTD    C7732342   1.288   1.864   1.916  0.2645 -0.2198  0.7177
    1BTD    C7832343   1.429   1.808   1.943 -0.5345 -0.3621  0.9042
    1BTD    C7932344   1.264   2.020   1.693  0.7325 -0.1754  0.5998
    1BTD    C8032345   1.252   1.913   1.580 -0.2642 -0.4530  0.1508
    1BTD    C8132346   1.250   1.928   1.432  0.2158  1.1633 -0.1057
    1BTD    C8232347   1.353   2.014   1.356  0.3278  0.1495  0.3932
    2TTP     S132348   0.745   2.234   2.363 -0.1743 -0.0456 -0.6666
    2TTP     S532349   0.943   1.853   2.377 -0.1764 -0.0404 -0.4919
    2TTP     C132350   0.786   1.840   2.468 -0.1809 -0.0005 -0.4939
    2TTP     C232351   0.716   1.957   2.469 -0.1805  0.0002 -0.5480
    2TTP     C332352   0.783   2.061   2.398 -0.1767 -0.0306 -0.5898
    2TTP     C432353   0.902   2.247   2.272 -0.1698 -0.0855 -0.6645
    2TTP    C1732354   0.973   2.130   2.271 -0.1702 -0.0862 -0.6105
    2TTP    C1832355   0.905   2.026   2.342 -0.1740 -0.0553 -0.5687
    2TTP    C3232356   0.584   2.017   2.524  0.1004 -0.1009  1.4333
    2TTP    C3332357   0.469   1.979   2.428 -0.3290  0.2137 -0.8999
    2TTP    C3432358   0.435   2.057   2.301 -1.0501  0.5888  0.0697
    2TTP    C3532359   0.348   1.969   2.207 -0.4056  0.3943  0.5204
    2TTP    C3632360   0.278   2.043   2.105  0.0794 -0.4178 -0.4308
    2TTP    C3732361   0.331   2.162   2.028 -0.5395 -1.4586  0.4887
    2TTP    C3832362   0.451   2.123   1.927  0.5093  0.9764 -0.2739
    2TTP    C3932363   0.582   2.077   1.975 -0.1328  1.9689  1.3743
    2TTP    C4032364   0.674   2.032   1.855  0.0640 -1.6751  1.4774
    2TTP    C4132365   0.794   1.945   1.893 -0.0011 -0.6333 -0.4467
    2TTP    C4232366   0.851   1.864   1.775 -0.7917 -0.2695  0.2401
    3TTP     S132367   1.254   2.597   1.714  0.3551 -0.1082 -0.0204
    3TTP     S532368   1.534   2.270   1.709 -0.1295 -0.5228 -0.2820
    3TTP     C132369   1.600   2.405   1.606  0.0471 -0.5581 -0.2155
    3TTP     C232370   1.518   2.514   1.602  0.2071 -0.4321 -0.1307
    3TTP     C332371   1.399   2.495   1.679  0.1961 -0.3032 -0.1154
    3TTP     C432372   1.188   2.462   1.817  0.1785 -0.0728 -0.0870
    3TTP    C1732373   1.271   2.353   1.821  0.0185 -0.1988 -0.1717
    3TTP    C1832374   1.389   2.372   1.744  0.0295 -0.3277 -0.1871
    3TTP    C3232375   1.535   2.648   1.548 -0.5325  0.3259 -0.9918
    3TTP    C3332376   1.452   2.706   1.432 -0.2952 -0.7557 -0.6036
    3TTP    C3432377   1.484   2.862   1.416 -0.1051  1.4709 -0.1274
    3TTP    C3532378   1.429   2.959   1.524 -0.5212 -0.7651 -0.4175
    3TTP    C3632379   1.480   3.109   1.537  0.2172  0.5243 -0.4442
    3TTP    C3732380   1.630   3.118   1.570  0.9771  0.7064 -0.8268
    3TTP    C3832381   1.717   3.139   1.461 -0.0667 -0.0061  0.8779
    3TTP    C3932382   1.849   3.109   1.520  0.0630 -0.5372 -1.9260
    3TTP    C4032383   1.954   3.112   1.404  0.3033  0.6580 -1.8166
    3TTP    C4132384   2.084   3.187   1.413 -0.0878  0.5981  0.2713
    3TTP    C4232385   2.189   3.103   1.496 -1.1553  0.9586 -0.9610
    4FIC     F132386   0.940   1.023   2.491  0.5739  0.0358  0.8706
    4FIC     F232387   0.747   1.002   2.681 -0.6831 -0.2344 -0.4060
    4FIC     O132388   0.919   1.554   2.384  1.1109  0.1455  1.3003
    4FIC     N532389   0.454   1.348   2.878 -2.1075 -0.5446 -1.9353
    4FIC     N632390   0.476   1.767   2.756 -1.4346 -0.4044 -1.3423
    4FIC    C1932391   0.727   1.721   2.527  0.1007 -0.0737  0.2331
    4FIC    C2032392   0.740   1.589   2.547  0.0147 -0.0907  0.1749
    4FIC    C2132393   0.841   1.509   2.469  0.5575  0.0269  0.7458
    4FIC    C2232394   0.829   1.370   2.515  0.3015 -0.0266  0.5160
    4FIC    C2332395   0.902   1.259   2.471  0.6260  0.0444  0.8714
    4FIC    C2432396   0.872   1.137   2.529  0.2826 -0.0281  0.5485
    4FIC    C2532397   0.772   1.126   2.627 -0.3649 -0.1673 -0.1092
    4FIC    C2632398   0.699   1.235   2.671 -0.6917 -0.2388 -0.4668
    4FIC    C2732399   0.728   1.360   2.613 -0.3521 -0.1671 -0.1482
    4FIC    C2832400   0.669   1.494   2.637 -0.5541 -0.2120 -0.3840
    4FIC    C2932401   0.569   1.525   2.726 -1.1537 -0.3414 -1.0023
    4FIC    C3032402   0.506   1.428   2.809 -1.6761 -0.4526 -1.5131
    4FIC    C3132403   0.518   1.658   2.742 -1.3048 -0.3753 -1.1857
    5FIC     F132404   2.301   2.029   1.800 -0.4278  0.1329 -0.1653
    5FIC     F232405   2.374   2.044   1.538 -0.5526 -0.3981 -0.2320
    5FIC     O132406   1.830   2.296   1.788  0.0359  0.9523 -0.2961
    5FIC     N532407   2.145   2.254   1.154 -0.4016 -0.5774 -0.4211
    5FIC     N632408   1.762   2.460   1.197 -0.0140  0.1699 -0.5098
    5FIC    C1932409   1.733   2.405   1.534  0.0813  0.7361 -0.4062
    5FIC    C2032410   1.848   2.337   1.547 -0.0304  0.5507 -0.3707
    5FIC    C2132411   1.891   2.284   1.681 -0.0465  0.6790 -0.3148
    5FIC    C2232412   2.021   2.216   1.660 -0.1785  0.4171 -0.2870
    5FIC    C2332413   2.099   2.152   1.755 -0.2376  0.4222 -0.2344
    5FIC    C2432414   2.218   2.095   1.711 -0.3635  0.1446 -0.2169
    5FIC    C2532415   2.256   2.102   1.576 -0.4276 -0.1287 -0.2514
    5FIC    C2632416   2.178   2.166   1.481 -0.3693 -0.1356 -0.3040
    5FIC    C2732417   2.057   2.225   1.523 -0.2418  0.1433 -0.3223
    5FIC    C2832418   1.953   2.299   1.449 -0.1533  0.2145 -0.3751
    5FIC    C2932419   1.953   2.328   1.314 -0.1802  0.0083 -0.4196
    5FIC    C3032420   2.059   2.287   1.226 -0.3018 -0.3131 -0.4202
    5FIC    C3132421   1.848   2.400   1.251 -0.0886  0.0984 -0.4689
    1BTD     S232422   2.092   9.074   3.621  0.6890 -0.5563 -0.2323
    1BTD     N132423   2.166   9.138   3.772  0.7266 -0.3836 -0.3235
    1BTD     N232424   2.100   9.231   3.533  0.1420 -0.5167 -0.2161
    1BTD     N332425   2.249   9.666   3.626 -0.9047 -0.1233 -0.3482
    1BTD     N432426   2.330   9.552   3.920 -0.1843  0.0401 -0.4805
    1BTD     C532427   2.251   9.356   3.846  0.2424 -0.1643 -0.4039
    1BTD     C632428   2.191   9.267   3.750  0.3492 -0.3090 -0.3366
    1BTD     C732429   2.154   9.318   3.616  0.0219 -0.3836 -0.2764
    1BTD     C832430   2.179   9.457   3.585 -0.3958 -0.3092 -0.2866
    1BTD    C1532431   2.237   9.540   3.682 -0.4859 -0.1677 -0.3533
    1BTD    C1632432   2.273   9.490   3.811 -0.1706 -0.0956 -0.4114
    1BTD    C4332433   2.380   9.684   3.967 -1.0415  0.1954  0.0892
    1BTD    C4432434   2.281   9.784   4.033  0.2988 -1.1327  1.0472
    1BTD    C4532435   2.357   9.923   4.044  0.1795  1.3420  0.1378
    1BTD    C4632436   2.387   9.979   4.188  0.5227  0.4193  0.4500
    1BTD    C4732437   2.138   9.808   3.961  1.1524 -0.6114  0.3072
    1BTD    C4832438   2.032   9.684   3.951  0.8577 -0.9065 -0.2137
    1BTD    C4932439   1.970   9.608   4.067 -0.4583 -0.1318  0.7270
    1BTD    C5032440   1.871   9.517   4.023 -0.2553 -0.1353  1.1827
    1BTD    C7532441   2.377   9.738   3.634  1.0953 -0.8253 -0.0512
    1BTD    C7632442   2.419   9.884   3.579  0.2480  0.6002  0.4698
    1BTD    C7732443   2.344   9.982   3.672  0.2623 -0.3933  0.1164
    1BTD    C7832444   2.371  10.149   3.679  1.3951  2.2859 -0.5250
    1BTD    C7932445   2.575   9.917   3.553  1.9044 -0.3972  0.6876
    1BTD    C8032446   2.672   9.960   3.659  1.2272 -0.0484  1.2871
    1BTD    C8132447   2.816   9.926   3.617 -1.0925  0.1618  0.1430
    1BTD    C8232448   2.912  10.002   3.705  0.1399 -0.1176  0.6573
    2TTP     S132449   2.261   9.224   4.120  0.3846 -0.5530 -0.3408
    2TTP     S532450   2.437   9.586   4.272 -0.6715 -0.2143  0.0899
    2TTP     C132451   2.405   9.473   4.412 -0.2446 -0.5196 -0.0554
    2TTP     C232452   2.349   9.355   4.373  0.1068 -0.6425 -0.1971
    2TTP     C332453   2.329   9.349   4.232  0.0514 -0.4995 -0.1959
    2TTP     C432454   2.293   9.336   3.980 -0.0423 -0.2472 -0.1954
    2TTP    C1732455   2.349   9.455   4.019 -0.3936 -0.1244 -0.0538
    2TTP    C1832456   2.369   9.461   4.161 -0.3383 -0.2675 -0.0551
    2TTP    C3232457   2.316   9.233   4.461 -1.0928  0.7247  0.3066
    2TTP    C3332458   2.172   9.182   4.476 -1.7698 -0.4620 -0.7290
    2TTP    C3432459   2.074   9.292   4.498  0.1461  0.2412 -0.5211
    2TTP    C3532460   1.961   9.223   4.572 -0.7722  1.4623  0.9808
    2TTP    C3632461   1.833   9.305   4.574 -0.5057 -1.8856 -0.8492
    2TTP    C3732462   1.717   9.278   4.670  2.3416 -1.4958  0.4242
    2TTP    C3832463   1.606   9.175   4.633  0.0873 -1.3417  0.7097
    2TTP    C3932464   1.528   9.168   4.496 -0.3183 -0.0381 -0.1997
    2TTP    C4032465   1.471   9.035   4.460 -0.1541 -0.4262  0.0355
    2TTP    C4132466   1.346   8.979   4.541  0.2467 -0.6234  0.8129
    2TTP    C4232467   1.203   9.034   4.505 -0.5402 -0.1870 -0.7048
    3TTP     S132468   2.050   9.524   3.327 -0.3074 -0.1075 -0.1651
    3TTP     S532469   2.150   9.939   3.376 -0.0836 -0.2689  0.7786
    3TTP     C132470   2.047   9.921   3.227 -0.1091  0.1269  0.7475
    3TTP     C232471   2.010   9.792   3.203 -0.1796  0.2003  0.4542
    3TTP     C332472   2.062   9.702   3.301 -0.2162 -0.0541  0.2435
    3TTP     C432473   2.153   9.541   3.476 -0.2818 -0.5035 -0.1341
    3TTP    C1732474   2.190   9.670   3.500 -0.2113 -0.5767  0.1593
    3TTP    C1832475   2.138   9.760   3.401 -0.1747 -0.3231  0.3700
    3TTP    C3232476   1.916   9.744   3.088 -0.4147  0.0091 -0.8342
    3TTP    C3332477   1.970   9.644   2.992  0.1649 -0.2187  0.1105
    3TTP    C3432478   1.878   9.624   2.870  1.5422  0.5915  0.4138
    3TTP    C3532479   1.874   9.750   2.776 -0.6787  0.4291  0.0706
    3TTP    C3632480   1.753   9.729   2.694 -0.2186 -0.4140 -0.4820
    3TTP    C3732481   1.687   9.850   2.647 -0.6510 -0.9126  0.5446
    3TTP    C3832482   1.754   9.984   2.612  0.6065 -0.5944  0.4171
    3TTP    C3932483   1.847   9.979   2.489 -0.2699 -0.1798 -0.7119
    3TTP    C4032484   1.860  10.119   2.428  1.1655 -0.5830 -0.3323
    3TTP    C4132485   1.984  10.166   2.358  0.9488 -0.6996 -0.3903
    3TTP    C4232486   2.124  10.168   2.429 -0.3972 -0.4237  1.5734
    4FIC     F132487   2.315  10.197   4.806 -0.0270 -0.2027  0.1462
    4FIC     F232488   2.353  10.065   5.040 -0.0864 -0.2661  0.1199
    4FIC     O132489   2.344   9.788   4.452 -0.0716 -0.1261  0.0536
    4FIC     N532490   2.427   9.583   5.126 -0.2038 -0.3028  0.0162
    4FIC     N632491   2.442   9.290   4.803 -0.2267 -0.2303 -0.0507
    4FIC    C1932492   2.390   9.516   4.551 -0.1442 -0.1598 -0.0044
    4FIC    C2032493   2.381   9.624   4.631 -0.1307 -0.1764  0.0200
    4FIC    C2132494   2.357   9.761   4.572 -0.0930 -0.1574  0.0491
    4FIC    C2232495   2.353   9.855   4.686 -0.0870 -0.1831  0.0707
    4FIC    C2332496   2.334   9.992   4.682 -0.0560 -0.1779  0.1005
    4FIC    C2432497   2.334  10.060   4.802 -0.0567 -0.2060  0.1165
    4FIC    C2532498   2.353   9.992   4.923 -0.0873 -0.2389  0.1030
    4FIC    C2632499   2.373   9.855   4.928 -0.1183 -0.2446  0.0733
    4FIC    C2732500   2.373   9.784   4.807 -0.1183 -0.2162  0.0565
    4FIC    C2832501   2.391   9.640   4.778 -0.1463 -0.2131  0.0250
    4FIC    C2932502   2.413   9.540   4.870 -0.1802 -0.2391  0.0042
    4FIC    C3032503   2.421   9.564   5.011 -0.1931 -0.2744  0.0108
    4FIC    C3132504   2.429   9.403   4.832 -0.2056 -0.2341 -0.0259
    5FIC     F132505   2.529  10.518   2.954  0.1212 -0.1922  0.0939
    5FIC     F232506   2.333  10.586   2.778  0.0452  0.3638  0.3884
    5FIC     O132507   2.299  10.097   3.205 -0.1901 -0.3293 -0.4190
    5FIC     N532508   1.888  10.384   2.702 -0.2857  1.0657  0.4462
    5FIC     N632509   1.747  10.041   2.934 -0.5135  0.8466 -0.0140
    5FIC    C1932510   2.030  10.012   3.125 -0.3730  0.1532 -0.3198
    5FIC    C2032511   2.096  10.116   3.069 -0.2918  0.1662 -0.2023
    5FIC    C2132512   2.234  10.153   3.115 -0.2005 -0.0911 -0.2635
    5FIC    C2232513   2.275  10.269   3.034 -0.1267 -0.0038 -0.1030
    5FIC    C2332514   2.396  10.338   3.040 -0.0306 -0.1700 -0.0929
    5FIC    C2432515   2.412  10.445   2.953  0.0255 -0.0405  0.0742
    5FIC    C2532516   2.312  10.479   2.862 -0.0138  0.2460  0.2257
    5FIC    C2632517   2.191  10.411   2.855 -0.1095  0.4129  0.2166
    5FIC    C2732518   2.172  10.303   2.943 -0.1675  0.2854  0.0486
    5FIC    C2832519   2.058  10.210   2.961 -0.2706  0.4015 -0.0064
    5FIC    C2932520   1.940  10.211   2.890 -0.3341  0.6747  0.1034
    5FIC    C3032521   1.912  10.306   2.787 -0.3072  0.8888  0.2915
    5FIC    C3132522   1.835  10.118   2.915 -0.4324  0.7677  0.0381
    1BTD     S232523  10.803   7.328   6.223  0.0088 -0.0622  0.1889
    1BTD     N132524  10.717   7.218   6.110 -0.3943  0.4834 -0.0465
    1BTD     N232525  10.695   7.294   6.363  0.2837 -0.4573  0.3086
    1BTD     N332526  10.319   7.024   6.443  0.1156 -0.2773  0.1272
    1BTD     N432527  10.346   6.930   6.132 -0.7198  0.8818 -0.3104
    1BTD     C532528  10.523   7.069   6.126 -0.5543  0.6773 -0.1792
    1BTD     C632529  10.617   7.164   6.179 -0.3076  0.3499 -0.0249
    1BTD     C732530  10.605   7.206   6.320  0.0718 -0.1768  0.1737
    1BTD     C832531  10.499   7.152   6.401  0.1857 -0.3495  0.2087
    1BTD    C1532532  10.409   7.059   6.344 -0.0646 -0.0153  0.0533
    1BTD    C1632533  10.421   7.018   6.208 -0.4308  0.4921 -0.1383
    1BTD    C4332534  10.203   6.890   6.159 -1.2779  0.2940  0.7244
    1BTD    C4432535  10.135   6.775   6.098 -0.4627 -0.0128  0.1886
    1BTD    C4532536  10.213   6.658   6.171  0.6298  0.6269  0.3407
    1BTD    C4632537  10.229   6.523   6.117  1.2473  0.0079 -0.3357
    1BTD    C4732538   9.989   6.794   6.131  0.8055 -0.0053 -1.0555
    1BTD    C4832539   9.918   6.668   6.072  0.9825  0.8810  0.7345
    1BTD    C4932540   9.781   6.700   6.001 -0.6806 -0.3519  0.1173
    1BTD    C5032541   9.667   6.761   6.094 -1.1378  0.2538 -0.5874
    1BTD    C7532542  10.272   6.897   6.474 -0.0624 -0.2721 -0.5118
    1BTD    C7632543  10.135   6.887   6.550 -1.6665 -0.2430  1.2962
    1BTD    C7732544  10.026   6.979   6.487 -0.1426  1.4021 -1.3619
    1BTD    C7832545   9.903   7.006   6.571 -0.2768 -0.2759  0.3722
    1BTD    C7932546  10.104   6.750   6.618  0.0350 -0.3247 -0.5963
    1BTD    C8032547  10.213   6.671   6.683  0.1923  0.3124 -0.7817
    1BTD    C8132548  10.251   6.711   6.826  0.0746 -0.1826  0.6163
    1BTD    C8232549  10.312   6.597   6.897  0.2788 -0.1646  0.8866
    2TTP     S132550  10.611   6.976   5.845  0.0394 -0.2951  0.1361
    2TTP     S532551  10.294   6.686   5.839 -0.3872  0.1786 -0.6493
    2TTP     C132552  10.393   6.667   5.688 -0.4738  0.5037 -0.7493
    2TTP     C232553  10.497   6.755   5.681 -0.3476  0.3766 -0.5125
    2TTP     C332554  10.502   6.842   5.795 -0.1771  0.0178 -0.2439
    2TTP     C432555  10.512   6.996   5.996  0.1261 -0.6202  0.2360
    2TTP    C1732556  10.409   6.907   6.003 -0.0005 -0.4932 -0.0005
    2TTP    C1832557  10.404   6.821   5.890 -0.1705 -0.1343 -0.2694
    2TTP    C3232558  10.602   6.769   5.576 -0.6369 -0.5022  0.7396
    2TTP    C3332559  10.712   6.656   5.561  0.9180 -0.6014 -0.3729
    2TTP    C3432560  10.807   6.660   5.435  0.9635 -0.3770 -0.0322
    2TTP    C3532561  10.782   6.547   5.320  0.6033 -0.6609  0.0522
    2TTP    C3632562  10.847   6.589   5.186  0.2808 -0.9465  0.8487
    2TTP    C3732563  10.797   6.719   5.110  0.9371 -0.3371 -0.9324
    2TTP    C3832564  10.684   6.710   5.007 -0.1818 -0.2650 -0.3881
    2TTP    C3932565  10.730   6.774   4.878  0.4266 -0.0270 -0.6978
    2TTP    C4032566  10.638   6.766   4.751 -1.3867 -1.9825 -0.0955
    2TTP    C4132567  10.519   6.680   4.755 -2.0507  1.0982  1.2919
    2TTP    C4232568  10.395   6.694   4.667  2.0039  0.9435 -0.9510
    3TTP     S132569  10.501   7.314   6.652 -0.5413  0.0324 -0.5781
    3TTP     S532570  10.166   7.089   6.800  0.1647 -0.0954  0.8681
    3TTP     C132571  10.212   7.213   6.925 -0.0264  0.6553  0.2107
    3TTP     C232572  10.318   7.290   6.887 -0.2558  0.7391 -0.2748
    3TTP     C332573  10.367   7.253   6.757 -0.2887  0.2134 -0.1448
    3TTP     C432574  10.455   7.190   6.527 -0.3495 -0.7184  0.0793
    3TTP    C1732575  10.349   7.113   6.566 -0.1208 -0.8019  0.5647
    3TTP    C1832576  10.300   7.150   6.695 -0.0875 -0.2762  0.4349
    3TTP    C3232577  10.381   7.399   6.976 -0.5217 -0.9297 -1.4558
    3TTP    C3332578  10.354   7.534   6.917  0.3903  2.1571  0.5112
    3TTP    C3432579  10.323   7.636   7.014  0.2448 -0.7208  0.5376
    3TTP    C3532580  10.292   7.769   6.931  0.5056  1.8904 -0.4253
    3TTP    C3632581  10.273   7.887   7.026 -0.2186  0.4061  0.1475
    3TTP    C3732582  10.257   8.009   6.923 -0.9433  0.2860 -1.3541
    3TTP    C3832583  10.390   8.091   6.886 -0.7541  0.8965  0.1879
    3TTP    C3932584  10.487   8.122   7.006 -1.0662 -0.5170 -0.3466
    3TTP    C4032585  10.595   8.240   6.998  0.5918  0.6103  0.5875
    3TTP    C4132586  10.542   8.367   7.060  1.2958 -1.1251  0.7477
    3TTP    C4232587  10.624   8.500   7.005  0.0643 -0.0291  0.0309
    4FIC     F132588   9.884   6.048   5.515  0.2310 -0.5379 -0.0464
    4FIC     F232589   9.951   6.075   5.252 -0.8738  0.4877 -0.2394
    4FIC     O132590  10.191   6.433   5.738  0.6509 -0.9454  0.0836
    4FIC     N532591  10.265   6.388   5.034 -2.1625  1.6717 -0.4243
    4FIC     N632592  10.492   6.684   5.262 -1.6117  1.1464 -0.2837
    4FIC    C1932593  10.364   6.596   5.567 -0.2555 -0.1103 -0.0547
    4FIC    C2032594  10.284   6.498   5.521 -0.3178 -0.0479 -0.0798
    4FIC    C2132595  10.198   6.419   5.615  0.1681 -0.4960 -0.0045
    4FIC    C2232596  10.124   6.321   5.533 -0.0436 -0.2949 -0.0563
    4FIC    C2332597  10.033   6.226   5.576  0.2534 -0.5667 -0.0169
    4FIC    C2432598   9.976   6.144   5.479 -0.0368 -0.2932 -0.0803
    4FIC    C2532599  10.010   6.158   5.344 -0.6058  0.2350 -0.1797
    4FIC    C2632600  10.102   6.253   5.300 -0.9046  0.5083 -0.2195
    4FIC    C2732601  10.160   6.337   5.397 -0.6182  0.2384 -0.1564
    4FIC    C2832602  10.260   6.446   5.384 -0.8094  0.4112 -0.1749
    4FIC    C2932603  10.318   6.490   5.268 -1.3406  0.9029 -0.2632
    4FIC    C3032604  10.289   6.434   5.140 -1.7905  1.3238 -0.3514
    4FIC    C3132605  10.413   6.597   5.265 -1.4865  1.0341 -0.2739
    5FIC     F132606   9.436   7.164   7.198  0.0141  0.7830 -0.1051
    5FIC     F232607   9.524   7.264   7.436  0.0091  0.4911  0.0199
    5FIC     O132608   9.898   7.147   6.917  0.2289 -0.0075  0.2887
    5FIC     N532609   9.980   7.395   7.577  0.1552 -0.4922  0.4803
    5FIC     N632610  10.323   7.362   7.309  0.3240 -1.0508  0.7628
    5FIC    C1932611  10.146   7.237   7.044  0.3004 -0.5671  0.5480
    5FIC    C2032612  10.027   7.237   7.105  0.2465 -0.3569  0.4442
    5FIC    C2132613   9.903   7.190   7.033  0.2124 -0.0747  0.3140
    5FIC    C2232614   9.792   7.203   7.128  0.1562  0.1034  0.2233
    5FIC    C2332615   9.658   7.172   7.107  0.1104  0.3823  0.0914
    5FIC    C2432616   9.570   7.193   7.212  0.0614  0.5075  0.0254
    5FIC    C2532617   9.615   7.245   7.335  0.0588  0.3565  0.0902
    5FIC    C2632618   9.749   7.276   7.357  0.1047  0.0781  0.2216
    5FIC    C2732619   9.839   7.255   7.251  0.1547 -0.0521  0.2900
    5FIC    C2832620   9.985   7.278   7.242  0.2100 -0.3409  0.4283
    5FIC    C2932621  10.067   7.328   7.341  0.2246 -0.5529  0.5236
    5FIC    C3032622  10.019   7.365   7.470  0.1864 -0.5188  0.4994
    5FIC    C3132623  10.207   7.346   7.323  0.2792 -0.8256  0.6547
    1BTD     S232624   8.152   3.626   1.146  0.4574 -0.2302 -0.6125
    1BTD     N132625   8.323   3.628   1.092  0.5007 -0.1791 -0.4748
    1BTD     N232626   8.108   3.778   1.060  0.5410 -0.1171 -0.4555
    1BTD     N332627   8.328   4.091   0.788  0.7899  0.2053  0.1131
    1BTD     N432628   8.594   3.906   0.827  0.7398  0.1290  0.0895
    1BTD     C532629   8.461   3.775   0.953  0.6261 -0.0173 -0.1798
    1BTD     C632630   8.338   3.736   1.017  0.5715 -0.0853 -0.3265
    1BTD     C732631   8.218   3.820   0.999  0.5944 -0.0506 -0.3158
    1BTD     C832632   8.226   3.939   0.919  0.6704  0.0503 -0.1589
    1BTD    C1532633   8.349   3.974   0.858  0.7222  0.1142 -0.0187
    1BTD    C1632634   8.465   3.893   0.875  0.6998  0.0807 -0.0290
    1BTD    C4332635   8.662   4.022   0.758  1.8193  0.6006  0.4833
    1BTD    C4432636   8.749   3.989   0.643 -0.7928 -1.5831 -0.2784
    1BTD    C4532637   8.834   4.124   0.603 -0.8904  1.5049 -0.2605
    1BTD    C4632638   8.781   4.234   0.516  0.2545  0.8950 -0.1110
    1BTD    C4732639   8.685   3.917   0.533 -0.0751  0.7978  0.4030
    1BTD    C4832640   8.759   3.885   0.406 -1.1865  0.8439  0.9761
    1BTD    C4932641   8.733   3.746   0.366 -0.8854  0.0048 -0.9907
    1BTD    C5032642   8.862   3.697   0.291  0.6956  0.6093 -0.7543
    1BTD    C7532643   8.354   4.096   0.643  0.5154 -0.8607  0.5937
    1BTD    C7632644   8.369   4.223   0.542  0.1696  1.5206 -0.2281
    1BTD    C7732645   8.451   4.321   0.621  0.0366 -1.2606 -0.1699
    1BTD    C7832646   8.432   4.481   0.575  1.3105  0.9552 -1.1004
    1BTD    C7932647   8.430   4.198   0.409 -0.0966  0.2855  1.6370
    1BTD    C8032648   8.384   4.082   0.315  0.4527 -0.4870 -0.4611
    1BTD    C8132649   8.260   4.094   0.230 -0.2077 -0.6670  1.3468
    1BTD    C8232650   8.225   4.222   0.145 -0.3988  0.2034 -2.0276
    2TTP     S132651   8.683   3.574   1.012 -0.2036 -0.4720 -0.6078
    2TTP     S532652   8.959   3.858   0.844 -0.2682  0.0640  0.1803
    2TTP     C132653   9.053   3.717   0.909 -0.2311 -0.0682 -0.1550
    2TTP     C232654   8.974   3.621   0.965 -0.2093 -0.2415 -0.4181
    2TTP     C332655   8.835   3.655   0.958 -0.2205 -0.2762 -0.3644
    2TTP     C432656   8.588   3.715   0.947 -0.2403 -0.3399 -0.2725
    2TTP    C1732657   8.668   3.811   0.892 -0.2623 -0.1665 -0.0094
    2TTP    C1832658   8.806   3.777   0.898 -0.2511 -0.1318 -0.0631
    2TTP    C3232659   9.004   3.502   1.047  0.6828 -0.2147 -0.4037
    2TTP    C3332660   8.991   3.361   1.000 -0.5209 -0.9899  0.8806
    2TTP    C3432661   9.082   3.312   0.888 -1.0763 -0.9218  1.4082
    2TTP    C3532662   9.058   3.167   0.909 -0.5164  0.3051 -1.1662
    2TTP    C3632663   9.197   3.082   0.896  1.3975  0.2786  0.8447
    2TTP    C3732664   9.155   2.935   0.928 -0.6758 -0.5750  0.8859
    2TTP    C3832665   9.261   2.837   0.883 -0.0079 -0.0041 -0.4095
    2TTP    C3932666   9.288   2.781   0.746 -0.0055  1.1237 -0.2396
    2TTP    C4032667   9.163   2.720   0.666  0.1951 -0.3657  0.4755
    2TTP    C4132668   9.082   2.590   0.713  0.6182  1.2386  0.3130
    2TTP    C4232669   8.954   2.565   0.626  0.1450  0.7117 -0.7867
    3TTP     S132670   7.972   4.085   0.949  0.5778 -0.5071 -0.3857
    3TTP     S532671   8.142   4.414   0.730 -0.0274  0.4879  0.6196
    3TTP     C132672   7.980   4.466   0.795 -0.1634 -0.0409  0.7056
    3TTP     C232673   7.918   4.367   0.867  0.0154 -0.3792  0.4002
    3TTP     C332674   7.996   4.247   0.873  0.2664 -0.2332  0.0873
    3TTP     C432675   8.134   4.034   0.884  0.7136  0.0216 -0.4718
    3TTP    C1732676   8.196   4.133   0.812  0.5346  0.3599 -0.1664
    3TTP    C1832677   8.118   4.252   0.807  0.2837  0.2141  0.1465
    3TTP    C3232678   7.786   4.382   0.943 -0.8027  0.4709 -0.4253
    3TTP    C3332679   7.804   4.419   1.094 -0.7116  0.0143  0.5561
    3TTP    C3432680   7.898   4.548   1.121  0.0745 -0.4036 -0.2487
    3TTP    C3532681   8.005   4.507   1.227  0.3683 -2.0102 -0.6837
    3TTP    C3632682   8.157   4.537   1.195 -0.1697  0.2437 -0.9542
    3TTP    C3732683   8.184   4.674   1.145  0.5588  1.6651 -0.6145
    3TTP    C3832684   8.223   4.658   0.993 -0.2501 -0.3227  1.1040
    3TTP    C3932685   8.226   4.777   0.887  0.8487  0.5724  0.1743
    3TTP    C4032686   8.298   4.898   0.929 -0.0454  0.5868 -1.5090
    3TTP    C4132687   8.295   5.023   0.842  0.0073  0.2194 -1.7210
    3TTP    C4232688   8.369   5.016   0.713  0.1775  0.5253 -0.2270
    4FIC     F132689   9.590   3.985   0.354 -0.1535 -0.0559 -0.1932
    4FIC     F232690   9.791   3.935   0.531 -0.0894 -0.1670 -0.2983
    4FIC     O132691   9.161   3.812   0.635 -0.1431  0.4920  0.1650
    4FIC     N532692   9.774   3.738   0.985  0.0110  0.0638 -0.1941
    4FIC     N632693   9.398   3.613   1.168  0.0064  0.5141  0.1069
    4FIC    C1932694   9.201   3.702   0.903 -0.0779  0.5804  0.1918
    4FIC    C2032695   9.301   3.747   0.826 -0.0830  0.4469  0.1058
    4FIC    C2132696   9.273   3.802   0.689 -0.1173  0.4097  0.0978
    4FIC    C2232697   9.403   3.843   0.632 -0.1140  0.2570 -0.0049
    4FIC    C2332698   9.427   3.899   0.507 -0.1392  0.1744 -0.0475
    4FIC    C2432699   9.559   3.929   0.476 -0.1301  0.0320 -0.1464
    4FIC    C2532700   9.662   3.903   0.567 -0.0970 -0.0249 -0.2004
    4FIC    C2632701   9.638   3.847   0.692 -0.0715  0.0569 -0.1584
    4FIC    C2732702   9.506   3.816   0.725 -0.0803  0.2012 -0.0584
    4FIC    C2832703   9.447   3.756   0.848 -0.0601  0.3157  0.0075
    4FIC    C2932704   9.516   3.716   0.960 -0.0260  0.3024 -0.0178
    4FIC    C3032705   9.658   3.728   0.973 -0.0057  0.1712 -0.1146
    4FIC    C3132706   9.451   3.659   1.074 -0.0083  0.4189  0.0510
    5FIC     F132707   8.094   5.027   0.203 -0.1268 -0.1247 -0.0418
    5FIC     F232708   7.835   5.105   0.237  0.0160  0.1831  0.3689
    5FIC     O132709   8.130   4.631   0.572 -0.0138 -0.1720 -0.1033
    5FIC     N532710   7.489   4.935   0.547  0.3023  0.5918  0.9155
    5FIC     N632711   7.569   4.610   0.828  0.3618  0.4928  0.7847
    5FIC    C1932712   7.895   4.565   0.734  0.1629  0.1055  0.2673
    5FIC    C2032713   7.897   4.662   0.640  0.1287  0.1050  0.2667
    5FIC    C2132714   8.021   4.690   0.561  0.0372 -0.0420  0.0699
    5FIC    C2232715   7.988   4.800   0.468  0.0212 -0.0012  0.1240
    5FIC    C2332716   8.071   4.860   0.374 -0.0544 -0.0994 -0.0074
    5FIC    C2432717   8.017   4.962   0.298 -0.0546 -0.0343  0.0793
    5FIC    C2532718   7.884   5.002   0.315  0.0194  0.1242  0.2909
    5FIC    C2632719   7.800   4.943   0.409  0.0952  0.2229  0.4229
    5FIC    C2732720   7.853   4.839   0.487  0.0963  0.1591  0.3380
    5FIC    C2832721   7.792   4.756   0.593  0.1653  0.2309  0.4341
    5FIC    C2932722   7.662   4.764   0.640  0.2475  0.3844  0.6390
    5FIC    C3032723   7.567   4.858   0.589  0.2774  0.4979  0.7904
    5FIC    C3132724   7.612   4.679   0.743  0.3099  0.4432  0.7180
    1BTD     S232725   3.457   4.866   0.080  0.3203 -0.3383  0.0990
    1BTD     N132726   3.527   4.967   0.212  0.4591 -0.6827  0.2944
    1BTD     N232727   3.604   4.874  -0.023  0.1276  0.1249 -0.1421
    1BTD     N332728   4.028   5.074   0.002 -0.0148  0.4460 -0.2809
    1BTD     N432729   3.933   5.188   0.292  0.3938 -0.5493  0.2568
    1BTD     C532730   3.740   5.081   0.250  0.4202 -0.6011  0.2685
    1BTD     C632731   3.649   5.000   0.173  0.3597 -0.4473  0.1760
    1BTD     C732732   3.692   4.948   0.042  0.1742  0.0049 -0.0682
    1BTD     C832733   3.824   4.979  -0.007  0.0582  0.2805 -0.2079
    1BTD    C1532734   3.909   5.059   0.072  0.1232  0.1158 -0.1102
    1BTD    C1632735   3.868   5.110   0.198  0.3019 -0.3197  0.1253
    1BTD    C4332736   4.081   5.202   0.318  0.9483 -0.4956  1.2639
    1BTD    C4432737   4.145   5.086   0.387  0.6967  0.1298  0.0180
    1BTD    C4532738   4.132   4.933   0.355 -0.3054 -0.8877  1.5529
    1BTD    C4632739   4.132   4.821   0.461 -0.0923 -0.9976  0.0884
    1BTD    C4732740   4.275   5.116   0.457  0.5405  0.0436  0.7309
    1BTD    C4832741   4.352   5.035   0.567  0.0610 -0.8838  0.6271
    1BTD    C4932742   4.491   5.071   0.606  0.2118 -0.2466 -0.0101
    1BTD    C5032743   4.570   4.990   0.517 -0.3357  0.8072  0.1908
    1BTD    C7532744   4.105   5.188   0.020 -0.7295 -1.0021 -1.0718
    1BTD    C7632745   4.254   5.188  -0.005 -0.1371  0.2768  0.8127
    1BTD    C7732746   4.334   5.075   0.084 -0.4962 -1.0274  1.4863
    1BTD    C7832747   4.484   5.048   0.051 -0.7685  0.1203 -0.6253
    1BTD    C7932748   4.312   5.329   0.012 -0.2809 -0.2790  0.4700
    1BTD    C8032749   4.252   5.439  -0.074 -0.0526 -0.6470  0.4703
    1BTD    C8132750   4.234   5.415  -0.232 -0.4706  2.3357 -0.3669
    1BTD    C8232751   4.329   5.487  -0.320 -1.3894  0.7864  0.4152
    2TTP     S132752   3.628   5.118   0.538  0.8694  0.0302  0.4257
    2TTP     S532753   3.980   5.350   0.623  0.3093  1.1621 -0.2857
    2TTP     C132754   3.874   5.348   0.771  0.5129  0.9961 -0.1400
    2TTP     C232755   3.759   5.277   0.753  0.6978  0.6368  0.0882
    2TTP     C332756   3.751   5.220   0.622  0.6855  0.4796  0.1563
    2TTP     C432757   3.734   5.119   0.390  0.6660  0.1963  0.2801
    2TTP    C1732758   3.849   5.191   0.407  0.4810  0.5554  0.0518
    2TTP    C1832759   3.857   5.247   0.538  0.4933  0.7126 -0.0163
    2TTP    C3232760   3.622   5.288   0.832  0.0476  0.0732 -0.4214
    2TTP    C3332761   3.513   5.182   0.849  0.3300  0.3307 -0.3984
    2TTP    C3432762   3.417   5.177   0.974  0.1297  0.6645 -1.3756
    2TTP    C3532763   3.355   5.292   1.048 -0.6068 -0.7952  0.0630
    2TTP    C3632764   3.266   5.246   1.161 -0.0943 -0.1982  0.7762
    2TTP    C3732765   3.211   5.355   1.261  0.1724  0.0740 -0.6528
    2TTP    C3832766   3.224   5.276   1.394 -1.4231 -0.8520  0.1551
    2TTP    C3932767   3.100   5.264   1.474  0.0039  0.1617 -0.1596
    2TTP    C4032768   2.993   5.155   1.461  0.3242 -0.5941  1.3821
    2TTP    C4132769   2.919   5.065   1.558  0.1748  0.1640  0.3825
    2TTP    C4232770   2.883   4.937   1.488 -0.0711 -1.0587 -0.7329
    3TTP     S132771   3.865   4.857  -0.284  0.2908  0.0408  0.3346
    3TTP     S532772   4.261   5.025  -0.293  0.5565 -0.5788  0.3958
    3TTP     C132773   4.237   4.925  -0.443  0.3808 -0.4466  0.3349
    3TTP     C232774   4.113   4.867  -0.449  0.2882 -0.2476  0.3126
    3TTP     C332775   4.033   4.900  -0.335  0.3530 -0.1922  0.3424
    3TTP     C432776   3.889   4.958  -0.134  0.4666 -0.0913  0.3951
    3TTP    C1732777   4.013   5.015  -0.128  0.5590 -0.2904  0.4173
    3TTP    C1832778   4.093   4.982  -0.241  0.4942 -0.3458  0.3877
    3TTP    C3232779   4.062   4.786  -0.562 -0.2272 -1.3287  1.3208
    3TTP    C3332780   3.997   4.655  -0.559  0.3105  0.4889 -0.2593
    3TTP    C3432781   4.040   4.551  -0.675 -0.4073  0.2431 -1.0755
    3TTP    C3532782   3.957   4.538  -0.806  0.2464  0.1855 -1.0831
    3TTP    C3632783   3.915   4.665  -0.873  0.3079 -0.4325  0.2899
    3TTP    C3732784   3.810   4.662  -0.985  0.5154  0.9650 -1.1845
    3TTP    C3832785   3.672   4.593  -0.971 -0.2416  0.6479 -0.8966
    3TTP    C3932786   3.610   4.471  -1.044 -0.7310 -0.4478  0.8048
    3TTP    C4032787   3.703   4.350  -1.105  0.0667  0.2679 -0.4918
    3TTP    C4132788   3.622   4.232  -1.166 -0.3151  0.2011  1.5403
    3TTP    C4232789   3.533   4.162  -1.082  0.9028 -0.5150  0.2748
    4FIC     F132790   4.515   5.631   1.199  0.1007  0.3022  0.1533
    4FIC     F232791   4.342   5.776   1.352  0.0182  0.5027 -0.1286
    4FIC     O132792   4.171   5.372   0.871  0.2745 -0.1755  0.3464
    4FIC     N532793   3.847   5.798   1.337  0.0240  0.4507 -0.3960
    4FIC     N632794   3.614   5.566   1.050  0.1765  0.0372 -0.1883
    4FIC    C1932795   3.884   5.418   0.900  0.2577 -0.1534  0.1458
    4FIC    C2032796   3.977   5.477   0.977  0.2171 -0.0411  0.1082
    4FIC    C2132797   4.123   5.449   0.956  0.2290 -0.0609  0.2175
    4FIC    C2232798   4.196   5.529   1.055  0.1762  0.0817  0.1412
    4FIC    C2332799   4.334   5.536   1.074  0.1665  0.1171  0.1977
    4FIC    C2432800   4.380   5.620   1.175  0.1131  0.2595  0.1045
    4FIC    C2532801   4.290   5.694   1.253  0.0706  0.3628 -0.0407
    4FIC    C2632802   4.153   5.688   1.235  0.0801  0.3281 -0.0978
    4FIC    C2732803   4.104   5.604   1.133  0.1340  0.1844 -0.0051
    4FIC    C2832804   3.966   5.574   1.088  0.1574  0.1130 -0.0311
    4FIC    C2932805   3.850   5.628   1.140  0.1292  0.1776 -0.1598
    4FIC    C3032806   3.849   5.721   1.248  0.0714  0.3276 -0.2892
    4FIC    C3132807   3.721   5.593   1.090  0.1554  0.0999 -0.1747
    5FIC     F132808   4.995   4.767  -0.207 -0.0012 -0.3351 -0.2789
    5FIC     F232809   5.078   4.807  -0.463 -0.0829  0.5124 -0.1800
    5FIC     O132810   4.460   4.834  -0.262 -0.1034 -0.9216 -0.0234
    5FIC     N532811   4.818   4.912  -0.870 -0.2728  1.3126  0.1438
    5FIC     N632812   4.383   4.957  -0.862 -0.3362  0.6835  0.3235
    5FIC    C1932813   4.350   4.896  -0.527 -0.2176 -0.3204  0.1617
    5FIC    C2032814   4.482   4.878  -0.503 -0.1887 -0.2060  0.0937
    5FIC    C2132815   4.530   4.846  -0.364 -0.1301 -0.5336  0.0002
    5FIC    C2232816   4.677   4.833  -0.373 -0.1111 -0.3027 -0.0572
    5FIC    C2332817   4.766   4.804  -0.271 -0.0596 -0.4715 -0.1485
    5FIC    C2432818   4.901   4.796  -0.304 -0.0513 -0.1897 -0.1883
    5FIC    C2532819   4.944   4.816  -0.436 -0.0934  0.2466 -0.1373
    5FIC    C2632820   4.855   4.845  -0.539 -0.1447  0.4174 -0.0460
    5FIC    C2732821   4.718   4.854  -0.507 -0.1540  0.1371 -0.0043
    5FIC    C2832822   4.600   4.882  -0.592 -0.2034  0.2139  0.0904
    5FIC    C2932823   4.600   4.908  -0.727 -0.2532  0.6002  0.1609
    5FIC    C3032824   4.720   4.910  -0.805 -0.2638  0.9905  0.1512
    5FIC    C3132825   4.481   4.935  -0.800 -0.2986  0.6437  0.2499
    1BTD     S232826   5.017   1.370   0.846 -0.1493  0.3196 -0.5526
    1BTD     N132827   5.164   1.299   0.920 -0.1667  0.6288 -0.2176
    1BTD     N232828   5.095   1.403   0.687 -0.0833 -0.2507 -0.6457
    1BTD     N332829   5.520   1.344   0.498  0.0198 -0.8546 -0.2307
    1BTD     N432830   5.606   1.215   0.784 -0.0827  0.2291  0.2969
    1BTD     C532831   5.394   1.257   0.846 -0.1215  0.4071  0.0446
    1BTD     C632832   5.259   1.304   0.827 -0.1246  0.3076 -0.1937
    1BTD     C732833   5.220   1.362   0.697 -0.0780 -0.1847 -0.4333
    1BTD     C832834   5.318   1.371   0.592 -0.0308 -0.5529 -0.4227
    1BTD    C1532835   5.449   1.324   0.614 -0.0298 -0.4390 -0.1850
    1BTD    C1632836   5.486   1.267   0.740 -0.0745  0.0353  0.0459
    1BTD    C4332837   5.746   1.257   0.755 -0.4012  0.9522  0.6964
    1BTD    C4432838   5.783   1.374   0.847 -0.6248  0.8708  0.4155
    1BTD    C4532839   5.934   1.354   0.882  0.6697 -0.8286  0.9270
    1BTD    C4632840   6.063   1.396   0.808  0.6355 -1.4784 -0.4632
    1BTD    C4732841   5.717   1.503   0.794  1.1644 -0.9370  0.1643
    1BTD    C4832842   5.743   1.639   0.859  0.5097  1.0988  0.3571
    1BTD    C4932843   5.679   1.766   0.813  0.2823 -0.0887  0.6169
    1BTD    C5032844   5.746   1.888   0.871 -0.0009  0.1221  0.2080
    1BTD    C7532845   5.643   1.270   0.465  0.9605 -0.3346  0.4857
    1BTD    C7632846   5.749   1.321   0.371 -0.7594  1.1565 -0.5095
    1BTD    C7732847   5.849   1.429   0.426 -0.6304 -1.1469  1.2313
    1BTD    C7832848   5.785   1.570   0.471 -0.1063 -0.0852 -0.4070
    1BTD    C7932849   5.845   1.196   0.318  0.0566 -0.8997 -1.2748
    1BTD    C8032850   5.913   1.128   0.437  0.4367  0.3499 -1.3607
    1BTD    C8132851   6.038   1.044   0.403  0.3955  1.7463  0.2484
    1BTD    C8232852   6.147   1.040   0.516 -0.3081 -0.1332  0.0088
    2TTP     S132853   5.426   1.100   1.108  0.2721  0.1520  0.2071
    2TTP     S532854   5.808   0.966   0.962 -0.0658  0.4165 -0.9364
    2TTP     C132855   5.766   0.871   1.112  0.7379  0.8241 -0.4437
    2TTP     C232856   5.646   0.907   1.166  0.8895  0.7664 -0.0615
    2TTP     C332857   5.582   1.011   1.091  0.3763  0.3982 -0.1441
    2TTP     C432858   5.468   1.195   0.959 -0.5318 -0.2556 -0.2857
    2TTP    C1732859   5.588   1.159   0.905 -0.6835 -0.1979 -0.6678
    2TTP    C1832860   5.652   1.055   0.979 -0.1704  0.1702 -0.5852
    2TTP    C3232861   5.559   0.847   1.282 -0.6506 -0.4700 -0.3955
    2TTP    C3332862   5.558   0.927   1.404  0.9397  0.5686 -0.7462
    2TTP    C3432863   5.694   0.956   1.483  0.7777 -0.3113 -0.6161
    2TTP    C3532864   5.702   1.103   1.533  0.2078 -0.5862 -0.1418
    2TTP    C3632865   5.710   1.213   1.417 -0.3118 -0.7253 -0.4357
    2TTP    C3732866   5.833   1.234   1.329  0.1825  0.5800  0.4146
    2TTP    C3832867   5.878   1.366   1.287 -1.1312  0.5582 -0.1012
    2TTP    C3932868   6.010   1.396   1.204 -0.6338  0.2466 -0.3608
    2TTP    C4032869   6.150   1.353   1.251  0.3064  0.9970  1.0579
    2TTP    C4132870   6.206   1.223   1.205 -0.7322 -0.6119  0.2683
    2TTP    C4232871   6.352   1.200   1.243 -0.4515  0.1125  0.0637
    3TTP     S132872   5.185   1.470   0.324 -0.4195 -0.3632 -0.4114
    3TTP     S532873   5.573   1.456   0.140 -0.1218  0.1607  0.1693
    3TTP     C132874   5.455   1.525   0.020 -0.0481 -0.0479 -0.0259
    3TTP     C232875   5.328   1.534   0.070 -0.1358 -0.2220 -0.2167
    3TTP     C332876   5.320   1.486   0.204 -0.2642 -0.1969 -0.2157
    3TTP     C432877   5.303   1.401   0.443 -0.4934 -0.1545 -0.2163
    3TTP    C1732878   5.430   1.392   0.394 -0.4057  0.0195 -0.0255
    3TTP    C1832879   5.439   1.440   0.259 -0.2772 -0.0056 -0.0265
    3TTP    C3232880   5.210   1.600  -0.010 -1.4409  0.6809 -1.0815
    3TTP    C3332881   5.121   1.480  -0.055  0.2818 -0.2003 -0.3840
    3TTP    C3432882   4.979   1.545  -0.057 -0.7058 -0.0155  1.6680
    3TTP    C3532883   4.956   1.662  -0.163  0.3584  0.1865  0.7774
    3TTP    C3632884   4.806   1.698  -0.184  0.0610  1.2436 -0.5654
    3TTP    C3732885   4.735   1.587  -0.246 -0.3121  0.6924 -0.8496
    3TTP    C3832886   4.614   1.645  -0.333 -0.1451 -0.9616 -1.0173
    3TTP    C3932887   4.581   1.543  -0.435 -0.1681  0.2354 -0.1179
    3TTP    C4032888   4.497   1.587  -0.544  1.5070  0.4383 -1.2244
    3TTP    C4132889   4.339   1.600  -0.514  0.0697  0.5130  0.0757
    3TTP    C4232890   4.260   1.470  -0.485 -0.1938 -0.1775  0.6913
    4FIC     F132891   6.523   0.529   1.078  0.0341 -0.3192 -0.1674
    4FIC     F232892   6.419   0.304   1.191  0.0894 -0.3364 -0.1502
    4FIC     O132893   6.089   0.851   1.071  0.0838 -0.2408  0.2990
    4FIC     N532894   5.959   0.211   1.348  0.2047 -0.3054  0.2069
    4FIC     N632895   5.641   0.509   1.320  0.2323 -0.2406  0.5679
    4FIC    C1932896   5.835   0.751   1.177  0.1544 -0.2294  0.4811
    4FIC    C2032897   5.948   0.679   1.174  0.1396 -0.2485  0.3631
    4FIC    C2132898   6.075   0.737   1.118  0.1034 -0.2531  0.2749
    4FIC    C2232899   6.178   0.633   1.130  0.0955 -0.2751  0.1554
    4FIC    C2332900   6.312   0.640   1.092  0.0650 -0.2864  0.0456
    4FIC    C2432901   6.390   0.528   1.114  0.0635 -0.3070 -0.0558
    4FIC    C2532902   6.336   0.412   1.172  0.0922 -0.3159 -0.0467
    4FIC    C2632903   6.203   0.404   1.210  0.1229 -0.3047  0.0626
    4FIC    C2732904   6.122   0.517   1.189  0.1247 -0.2838  0.1662
    4FIC    C2832905   5.978   0.541   1.218  0.1531 -0.2678  0.2942
    4FIC    C2932906   5.891   0.451   1.276  0.1851 -0.2704  0.3400
    4FIC    C3032907   5.929   0.320   1.315  0.1957 -0.2896  0.2666
    4FIC    C3132908   5.754   0.483   1.300  0.2110 -0.2540  0.4651
    5FIC     F132909   6.146   1.791  -0.349 -0.0275  0.2142 -0.1676
    5FIC     F232910   6.027   1.742  -0.589 -0.1855  0.5412 -0.1566
    5FIC     O132911   5.745   1.664  -0.009  0.2424 -0.3831 -0.0701
    5FIC     N532912   5.570   1.582  -0.691 -0.2204  0.5856 -0.0713
    5FIC     N632913   5.280   1.493  -0.376  0.0224  0.0530  0.0026
    5FIC    C1932914   5.489   1.572  -0.117  0.1873 -0.2828 -0.0251
    5FIC    C2032915   5.594   1.606  -0.193  0.1255 -0.1454 -0.0501
    5FIC    C2132916   5.722   1.652  -0.130  0.1593 -0.2086 -0.0722
    5FIC    C2232917   5.816   1.681  -0.241  0.0746 -0.0232 -0.0966
    5FIC    C2332918   5.947   1.726  -0.232  0.0703 -0.0058 -0.1221
    5FIC    C2432919   6.015   1.746  -0.351 -0.0182  0.1860 -0.1419
    5FIC    C2532920   5.954   1.721  -0.474 -0.0996  0.3542 -0.1361
    5FIC    C2632921   5.823   1.676  -0.484 -0.0958  0.3380 -0.1109
    5FIC    C2732922   5.752   1.655  -0.365 -0.0069  0.1451 -0.0901
    5FIC    C2832923   5.613   1.608  -0.340  0.0213  0.0767 -0.0613
    5FIC    C2932924   5.521   1.573  -0.436 -0.0380  0.1964 -0.0482
    5FIC    C3032925   5.548   1.578  -0.576 -0.1380  0.4100 -0.0613
    5FIC    C3132926   5.389   1.529  -0.403 -0.0044  0.1168 -0.0203
    1BTD     S232927   3.415   3.142   4.513  0.0369 -0.1629  0.1484
    1BTD     N132928   3.341   3.170   4.352 -0.6643 -0.0136  0.4877
    1BTD     N232929   3.470   3.312   4.534  0.6477 -0.3119 -0.1780
    1BTD     N332930   3.447   3.710   4.286  0.6261 -0.3457 -0.2303
    1BTD     N432931   3.289   3.535   4.061 -0.9905  0.0218  0.5901
    1BTD     C532932   3.316   3.363   4.202 -0.8151  0.0004  0.5312
    1BTD     C632933   3.360   3.298   4.323 -0.4197 -0.0791  0.3475
    1BTD     C732934   3.432   3.378   4.425  0.3147 -0.2460 -0.0252
    1BTD     C832935   3.456   3.517   4.402  0.6169 -0.3252 -0.1955
    1BTD    C1532936   3.411   3.576   4.282  0.2100 -0.2426 -0.0052
    1BTD    C1632937   3.342   3.500   4.183 -0.4975 -0.0818  0.3539
    1BTD    C4332938   3.363   3.587   3.938  0.7171 -0.7858  0.5090
    1BTD    C4432939   3.512   3.586   3.906  0.2845  0.0622  0.7802
    1BTD    C4532940   3.595   3.493   3.981 -0.6531 -0.1007  1.1890
    1BTD    C4632941   3.597   3.325   3.943 -0.6968 -1.5853 -0.3722
    1BTD    C4732942   3.533   3.585   3.759  0.4695 -0.4834 -0.2401
    1BTD    C4832943   3.505   3.718   3.691 -0.4672 -0.0735 -0.2253
    1BTD    C4932944   3.583   3.732   3.568  0.7303  0.0034 -0.2828
    1BTD    C5032945   3.484   3.785   3.457  0.1439  0.4478  0.3769
    1BTD    C7532946   3.370   3.822   4.222 -0.0692  0.2252  1.6351
    1BTD    C7632947   3.462   3.929   4.156 -0.4581 -0.9895 -0.2399
    1BTD    C7732948   3.392   4.071   4.124  0.2438  0.1808 -0.0394
    1BTD    C7832949   3.308   4.155   4.233  0.1128  0.2488  0.0403
    1BTD    C7932950   3.569   3.865   4.050 -0.1705  0.1348 -0.8009
    1BTD    C8032951   3.702   3.946   4.020 -0.4526  0.6810 -0.0992
    1BTD    C8132952   3.752   4.081   4.094 -0.9905  0.3821  1.0840
    1BTD    C8232953   3.890   4.099   4.147 -1.3593 -0.2600 -0.0733
    2TTP     S132954   3.161   3.164   4.021 -0.1261  0.4303  0.1994
    2TTP     S532955   3.113   3.481   3.735  0.1388 -0.3514 -0.7234
    2TTP     C132956   3.024   3.335   3.675 -0.2164 -0.3717 -0.1648
    2TTP     C232957   3.033   3.228   3.760 -0.3192 -0.1315  0.1531
    2TTP     C332958   3.112   3.258   3.875 -0.1210  0.0772 -0.0331
    2TTP     C432959   3.250   3.310   4.082  0.2292  0.4506 -0.3592
    2TTP    C1732960   3.241   3.417   3.997  0.3319  0.2103 -0.6770
    2TTP    C1832961   3.163   3.387   3.881  0.1338  0.0017 -0.4909
    2TTP    C3232962   2.969   3.096   3.752  0.8455 -0.0010 -1.5200
    2TTP    C3332963   3.071   2.987   3.711  0.8780 -0.5328  0.5778
    2TTP    C3432964   3.208   2.997   3.633 -0.0405  0.5000 -1.1594
    2TTP    C3532965   3.331   3.028   3.724 -0.4829 -1.2319  0.0851
    2TTP    C3632966   3.462   3.076   3.674 -0.6661 -1.3544  0.5009
    2TTP    C3732967   3.479   3.236   3.624  0.1967 -0.0840  0.5473
    2TTP    C3832968   3.429   3.272   3.484 -1.6079 -0.1810  1.2213
    2TTP    C3932969   3.425   3.157   3.379  0.3046 -0.0967 -0.6668
    2TTP    C4032970   3.388   3.198   3.236  0.3845 -1.3954 -0.6174
    2TTP    C4132971   3.377   3.090   3.135  0.3713  0.1501  0.2874
    2TTP    C4232972   3.480   3.108   3.023  0.3188  1.3448  0.5060
    3TTP     S132973   3.593   3.634   4.643  0.2740 -0.1578  0.4482
    3TTP     S532974   3.595   4.022   4.458 -0.3007 -0.3308  0.0721
    3TTP     C132975   3.658   4.039   4.628  0.1667 -0.1597 -0.1143
    3TTP     C232976   3.661   3.920   4.695  0.3717 -0.0961 -0.0091
    3TTP     C332977   3.614   3.812   4.614  0.1671 -0.1802  0.2224
    3TTP     C432978   3.530   3.618   4.473 -0.1934 -0.3290  0.6348
    3TTP    C1732979   3.527   3.737   4.406 -0.3984 -0.3926  0.5295
    3TTP    C1832980   3.574   3.845   4.486 -0.1938 -0.3082  0.2979
    3TTP    C3232981   3.747   3.900   4.821  0.8507  0.6348 -0.2729
    3TTP    C3332982   3.835   3.787   4.859 -0.3491  0.3425 -0.2649
    3TTP    C3432983   3.961   3.745   4.768  1.2145 -0.1655  0.9080
    3TTP    C3532984   3.968   3.744   4.604 -1.4975  0.1884 -0.6835
    3TTP    C3632985   4.107   3.690   4.556 -0.5235 -0.0910  0.1150
    3TTP    C3732986   4.138   3.688   4.401  1.0456  0.2584  0.2649
    3TTP    C3832987   4.234   3.606   4.332  0.2349 -0.3414 -0.7382
    3TTP    C3932988   4.216   3.542   4.198 -0.5545  0.0776 -0.3145
    3TTP    C4032989   4.215   3.619   4.071 -0.4058  0.0101  0.2278
    3TTP    C4132990   4.081   3.655   4.009  1.4584 -0.9350 -0.0589
    3TTP    C4232991   4.078   3.620   3.855  0.4456 -0.8563 -0.7700
    4FIC     F132992   3.172   3.659   2.931  0.1207 -0.0696  0.1463
    4FIC     F232993   2.978   3.496   2.831 -0.1451  0.2149  0.1943
    4FIC     O132994   3.158   3.528   3.456  0.3360 -0.3356  0.0861
    4FIC     N532995   2.689   3.167   3.063 -0.3738  0.4342  0.2206
    4FIC     N632996   2.717   3.098   3.493 -0.1519  0.1689  0.1639
    4FIC    C1932997   2.967   3.325   3.547  0.1585 -0.1584  0.1107
    4FIC    C2032998   2.978   3.364   3.419  0.1147 -0.1026  0.1239
    4FIC    C2132999   3.079   3.469   3.380  0.2122 -0.2007  0.1100
    4FIC    C2233000   3.065   3.488   3.234  0.1317 -0.1053  0.1301
    4FIC    C2333001   3.136   3.575   3.152  0.1777 -0.1466  0.1265
    4FIC    C2433002   3.105   3.576   3.017  0.0823 -0.0364  0.1484
    4FIC    C2533003   3.005   3.491   2.966 -0.0547  0.1099  0.1732
    4FIC    C2633004   2.933   3.404   3.047 -0.1013  0.1519  0.1769
    4FIC    C2733005   2.963   3.402   3.184 -0.0062  0.0420  0.1549
    4FIC    C2833006   2.907   3.323   3.296 -0.0220  0.0495  0.1521
    4FIC    C2933007   2.806   3.229   3.287 -0.1407  0.1737  0.1720
    4FIC    C3033008   2.742   3.196   3.163 -0.2684  0.3165  0.1986
    4FIC    C3133009   2.758   3.157   3.400 -0.1462  0.1704  0.1675
    5FIC     F133010   3.281   4.758   4.521 -0.0669  0.0026  0.0510
    5FIC     F233011   3.470   4.873   4.680 -0.0489  0.0230  0.0150
    5FIC     O133012   3.431   4.239   4.544  0.0944  0.0417 -0.1141
    5FIC     N533013   3.848   4.668   4.925  0.0921  0.0802 -0.1547
    5FIC     N633014   3.927   4.239   4.910  0.2145  0.1066 -0.2763
    5FIC    C1933015   3.665   4.164   4.703  0.1689  0.0752 -0.2072
    5FIC    C2033016   3.620   4.290   4.692  0.1276  0.0644 -0.1642
    5FIC    C2133017   3.499   4.321   4.607  0.0911  0.0474 -0.1179
    5FIC    C2233018   3.478   4.466   4.616  0.0508  0.0392 -0.0784
    5FIC    C2333019   3.377   4.541   4.555  0.0086  0.0234 -0.0288
    5FIC    C2433020   3.377   4.678   4.578 -0.0243  0.0182  0.0017
    5FIC    C2533021   3.475   4.737   4.660 -0.0150  0.0287 -0.0170
    5FIC    C2633022   3.575   4.663   4.722  0.0271  0.0445 -0.0663
    5FIC    C2733023   3.577   4.524   4.699  0.0609  0.0498 -0.0978
    5FIC    C2833024   3.668   4.419   4.749  0.1085  0.0659 -0.1514
    5FIC    C2933025   3.776   4.436   4.832  0.1304  0.0793 -0.1830
    5FIC    C3033026   3.815   4.564   4.882  0.1093  0.0796 -0.1673
    5FIC    C3133027   3.859   4.328   4.874  0.1766  0.0942 -0.2341
    1BTD     S233028   9.654   2.185   6.040  0.3520  0.2056  0.1429
    1BTD     N133029   9.647   2.010   5.999  0.8953  0.2067  0.0278
    1BTD     N233030   9.651   2.158   6.218 -0.0229  0.1020  0.1214
    1BTD     N333031   9.630   1.788   6.506  0.1941 -0.1073 -0.1304
    1BTD     N433032   9.626   1.605   6.237  1.3254  0.0218 -0.2456
    1BTD     C533033   9.636   1.801   6.126  1.1063  0.1086 -0.1136
    1BTD     C633034   9.642   1.944   6.114  0.7753  0.1335 -0.0184
    1BTD     C733035   9.644   2.027   6.236  0.2615  0.0749  0.0341
    1BTD     C833036   9.640   1.963   6.365  0.1042 -0.0058 -0.0114
    1BTD    C1533037   9.633   1.822   6.372  0.4404 -0.0275 -0.1047
    1BTD    C1633038   9.632   1.742   6.254  0.9357  0.0290 -0.1553
    1BTD    C4333039   9.537   1.509   6.329 -0.8188 -1.6184  0.6902
    1BTD    C4433040   9.511   1.373   6.303  0.7386 -0.7461  0.4989
    1BTD    C4533041   9.378   1.342   6.222  0.7418  1.2239 -1.3392
    1BTD    C4633042   9.321   1.421   6.121  0.9525 -0.1070  0.9126
    1BTD    C4733043   9.564   1.281   6.419  1.2616 -0.0471 -0.1551
    1BTD    C4833044   9.549   1.134   6.439 -0.2662  1.4091  0.5816
    1BTD    C4933045   9.646   1.041   6.517 -0.9601 -1.2370 -1.4912
    1BTD    C5033046   9.567   0.920   6.572  0.3306  0.1062 -0.1330
    1BTD    C7533047   9.656   1.658   6.573 -0.9345  0.0485  1.5788
    1BTD    C7633048   9.804   1.616   6.602 -0.3150  1.2845 -0.3780
    1BTD    C7733049   9.828   1.491   6.704  0.5930 -0.9441  0.2722
    1BTD    C7833050   9.734   1.491   6.827 -0.3317 -0.8798 -1.3438
    1BTD    C7933051   9.920   1.613   6.487  0.9929 -0.7345 -0.8812
    1BTD    C8033052   9.949   1.494   6.404 -0.2466  0.3005  1.0497
    1BTD    C8133053  10.002   1.503   6.252  0.3142 -0.4767 -0.6256
    1BTD    C8233054  10.127   1.589   6.227 -0.0025  0.5404  0.0074
    2TTP     S133055   9.709   1.683   5.866  0.6168  0.2651  0.1922
    2TTP     S533056   9.763   1.301   6.056 -0.2923 -0.0601 -0.1931
    2TTP     C133057   9.830   1.292   5.887  0.2799  0.1512  0.0154
    2TTP     C233058   9.817   1.409   5.818  0.5946  0.2640  0.1467
    2TTP     C333059   9.754   1.511   5.897  0.3951  0.1877  0.0873
    2TTP     C433060   9.643   1.693   6.035  0.0448  0.0538 -0.0162
    2TTP    C1733061   9.655   1.575   6.104 -0.2697 -0.0591 -0.1476
    2TTP    C1833062   9.718   1.474   6.025 -0.0703  0.0172 -0.0881
    2TTP    C3233063   9.887   1.441   5.673  0.2937 -0.9945 -0.0562
    2TTP    C3333064  10.040   1.475   5.664 -0.9140  0.0340 -0.8021
    2TTP    C3433065  10.104   1.521   5.529 -0.9503 -0.3997 -0.6979
    2TTP    C3533066  10.067   1.410   5.426  0.0806  0.5156  0.2904
    2TTP    C3633067  10.192   1.331   5.418 -0.4418  0.2540  0.1882
    2TTP    C3733068  10.247   1.260   5.294  0.5714 -0.0034 -0.5295
    2TTP    C3833069  10.221   1.327   5.155  1.3508 -0.8826  0.2229
    2TTP    C3933070  10.334   1.415   5.124  0.5258  0.4197 -0.2566
    2TTP    C4033071  10.477   1.364   5.097 -1.2772  0.0500 -0.3858
    2TTP    C4133072  10.571   1.477   5.064 -0.0904  1.8602 -0.1212
    2TTP    C4233073  10.541   1.615   5.118  0.1215 -0.8054 -0.3220
    3TTP     S133074   9.628   2.170   6.579 -0.1055 -0.4305 -0.4282
    3TTP     S533075   9.651   1.853   6.868  0.6509  0.4046  0.4400
    3TTP     C133076   9.643   2.012   6.957  0.2298  0.6291  0.0097
    3TTP     C233077   9.635   2.119   6.873 -0.0284  0.3845 -0.2838
    3TTP     C333078   9.635   2.080   6.735  0.0968  0.0108 -0.1793
    3TTP     C433079   9.635   2.011   6.490  0.3157 -0.6549  0.0023
    3TTP    C1733080   9.643   1.904   6.575  0.5740 -0.4104  0.2958
    3TTP    C1833081   9.643   1.943   6.712  0.4485 -0.0368  0.1913
    3TTP    C3233082   9.653   2.269   6.885 -0.5678  1.2181 -1.3533
    3TTP    C3333083   9.537   2.345   6.919  0.9543  0.0935 -0.9489
    3TTP    C3433084   9.478   2.411   6.799 -0.5332  0.6331 -1.2148
    3TTP    C3533085   9.487   2.557   6.776  1.0801  0.3611 -0.3952
    3TTP    C3633086   9.402   2.612   6.664  0.0498  0.0316 -0.0840
    3TTP    C3733087   9.394   2.763   6.666  0.5290 -0.1439 -0.0587
    3TTP    C3833088   9.344   2.791   6.529  0.2833 -0.3644  0.1452
    3TTP    C3933089   9.334   2.934   6.476 -0.4436 -0.5293 -0.1519
    3TTP    C4033090   9.245   2.966   6.363  0.1546 -0.4302  0.0380
    3TTP    C4133091   9.241   3.102   6.298 -0.6034  0.1540 -0.3422
    3TTP    C4233092   9.108   3.140   6.236  0.6794 -0.6282 -2.0872
    4FIC     F133093  10.055   0.545   6.126  0.8130  0.0529 -0.0684
    4FIC     F233094  10.066   0.470   5.864  0.1132 -0.1047 -0.0572
    4FIC     O133095   9.908   1.064   6.079  0.4625 -0.0377  0.0167
    4FIC     N533096   9.977   0.733   5.455 -1.1420 -0.3957  0.0203
    4FIC     N633097   9.860   1.154   5.470 -1.2746 -0.4346  0.0843
    4FIC    C1933098   9.867   1.177   5.812 -0.3299 -0.2204  0.0579
    4FIC    C2033099   9.903   1.049   5.834 -0.2146 -0.1915  0.0359
    4FIC    C2133100   9.923   0.999   5.974  0.1981 -0.0965  0.0156
    4FIC    C2233101   9.962   0.857   5.962  0.2244 -0.0876 -0.0052
    4FIC    C2333102   9.991   0.768   6.065  0.5493 -0.0118 -0.0284
    4FIC    C2433103  10.025   0.638   6.029  0.5038 -0.0195 -0.0454
    4FIC    C2533104  10.031   0.600   5.894  0.1426 -0.1007 -0.0394
    4FIC    C2633105  10.002   0.689   5.791 -0.1826 -0.1766 -0.0166
    4FIC    C2733106   9.967   0.820   5.825 -0.1421 -0.1701  0.0010
    4FIC    C2833107   9.931   0.937   5.741 -0.4261 -0.2372  0.0266
    4FIC    C2933108   9.925   0.940   5.604 -0.8113 -0.3249  0.0392
    4FIC    C3033109   9.954   0.826   5.522 -0.9918 -0.3635  0.0287
    4FIC    C3133110   9.889   1.058   5.531 -1.0638 -0.3848  0.0640
    5FIC     F133111   9.780   1.519   7.605  0.9706  0.4548  0.3623
    5FIC     F233112   9.703   1.721   7.770 -0.7319 -0.0024  0.1659
    5FIC     O133113   9.729   1.756   7.121  1.0300  0.2167  0.2388
    5FIC     N533114   9.556   2.181   7.662 -3.1376 -0.8295 -0.2040
    5FIC     N633115   9.532   2.326   7.250 -2.7483 -0.9233 -0.2608
    5FIC    C1933116   9.638   2.034   7.106 -0.5757 -0.3047  0.0076
    5FIC    C2033117   9.653   1.966   7.222 -0.5240 -0.2269  0.0464
    5FIC    C2133118   9.701   1.824   7.221  0.3250  0.0443  0.1663
    5FIC    C2233119   9.707   1.781   7.362  0.1519  0.0638  0.1802
    5FIC    C2333120   9.746   1.657   7.412  0.7398  0.2783  0.2770
    5FIC    C2433121   9.743   1.639   7.549  0.4244  0.2504  0.2699
    5FIC    C2533122   9.703   1.744   7.634 -0.4530  0.0146  0.1685
    5FIC    C2633123   9.665   1.868   7.585 -1.0433 -0.2002  0.0716
    5FIC    C2733124   9.667   1.887   7.446 -0.7362 -0.1756  0.0774
    5FIC    C2833125   9.632   2.005   7.363 -1.1864 -0.3637 -0.0089
    5FIC    C2933126   9.589   2.128   7.409 -2.0516 -0.6163 -0.1189
    5FIC    C3033127   9.571   2.157   7.548 -2.6455 -0.7326 -0.1653
    5FIC    C3133128   9.558   2.236   7.322 -2.4297 -0.7837 -0.1965
    1BTD     S233129   3.934   8.362  10.622 -0.1501  0.0696 -0.2534
    1BTD     N133130   3.778   8.419  10.690  0.1309  0.4752  0.0572
    1BTD     N233131   3.965   8.243  10.753 -0.4106 -0.3264 -0.5484
    1BTD     N333132   3.746   8.103  11.144 -0.4339 -0.4010 -0.5879
    1BTD     N433133   3.516   8.320  11.067  0.2332  0.5872  0.1581
    1BTD     C533134   3.644   8.365  10.888  0.1762  0.5219  0.1009
    1BTD     C633135   3.758   8.350  10.802  0.0218  0.3037 -0.0682
    1BTD     C733136   3.863   8.251  10.836 -0.2813 -0.1452 -0.4072
    1BTD     C833137   3.848   8.172  10.956 -0.4147 -0.3533 -0.5603
    1BTD    C1533138   3.734   8.190  11.037 -0.2550 -0.1269 -0.3850
    1BTD    C1633139   3.634   8.285  11.004  0.0369  0.3054 -0.0584
    1BTD    C4333140   3.427   8.249  11.163  2.3851  0.1698  1.0123
    1BTD    C4433141   3.324   8.150  11.102  0.6994 -1.3436  0.5040
    1BTD    C4533142   3.369   8.054  10.996  0.6023  0.7428  0.1253
    1BTD    C4633143   3.297   8.070  10.869  0.7293  1.6653  1.7045
    1BTD    C4733144   3.216   8.098  11.191  0.5355  1.4610  0.2618
    1BTD    C4833145   3.132   8.203  11.257 -0.1956  0.7426 -0.6317
    1BTD    C4933146   3.069   8.307  11.174  1.5148  0.0948  0.6970
    1BTD    C5033147   2.987   8.379  11.285 -0.8270 -0.4515  1.6811
    1BTD    C7533148   3.694   8.115  11.287  0.6809 -0.4909 -0.8399
    1BTD    C7633149   3.749   8.203  11.397 -0.3318  0.0563 -0.2703
    1BTD    C7733150   3.903   8.195  11.423  0.7506 -1.7151 -0.8929
    1BTD    C7833151   3.963   8.093  11.513 -1.8030 -0.7262  0.5196
    1BTD    C7933152   3.644   8.209  11.516  1.5849 -0.5071 -0.9574
    1BTD    C8033153   3.656   8.336  11.590  0.2081 -0.0908  0.4917
    1BTD    C8133154   3.535   8.390  11.674  1.1375  0.2497 -0.1025
    1BTD    C8233155   3.553   8.389  11.819  0.5696  1.4783  0.9673
    2TTP     S133156   3.509   8.617  10.808 -0.5670  0.0260  0.0658
    2TTP     S533157   3.321   8.611  11.195 -0.6235 -0.6099  0.0305
    2TTP     C133158   3.305   8.778  11.125 -1.2030 -0.6702  0.0145
    2TTP     C233159   3.362   8.790  11.002 -1.2196 -0.4773  0.0243
    2TTP     C333160   3.421   8.667  10.958 -0.7754 -0.2751  0.0453
    2TTP     C433161   3.526   8.450  10.878  0.0125  0.0865  0.0813
    2TTP    C1733162   3.469   8.438  11.002  0.0291 -0.1070  0.0714
    2TTP    C1833163   3.410   8.561  11.046 -0.4151 -0.3090  0.0510
    2TTP    C3233164   3.382   8.900  10.902 -0.5542  1.1729  1.0384
    2TTP    C3333165   3.249   8.942  10.814 -1.9432  0.0797 -0.0418
    2TTP    C3433166   3.282   9.031  10.691  0.7286 -1.7305  0.2800
    2TTP    C3533167   3.403   9.006  10.592  0.2671 -1.2979 -0.3661
    2TTP    C3633168   3.401   8.889  10.505 -0.7170  1.7908 -0.6951
    2TTP    C3733169   3.297   8.881  10.395 -0.1066 -1.1176 -0.3401
    2TTP    C3833170   3.261   8.744  10.349 -0.3469 -1.2002  0.0563
    2TTP    C3933171   3.126   8.748  10.283  1.2676  0.5978  0.5835
    2TTP    C4033172   3.068   8.608  10.261  0.2051 -0.4089  0.8052
    2TTP    C4133173   2.926   8.586  10.203  0.4290 -1.5162  0.3086
    2TTP    C4233174   2.814   8.663  10.275  1.0906 -0.3609  1.0094
    3TTP     S133175   4.067   7.973  10.968  0.2715 -0.2375 -0.5804
    3TTP     S533176   3.853   7.782  11.289  0.8641 -0.0347 -0.0608
    3TTP     C133177   4.003   7.685  11.253  0.7866 -0.0687 -0.2902
    3TTP     C233178   4.077   7.738  11.152  0.5993 -0.1334 -0.4642
    3TTP     C333179   4.019   7.858  11.099  0.5099 -0.1583 -0.4225
    3TTP     C433180   3.917   8.071  11.005  0.3489 -0.2031 -0.3512
    3TTP    C1733181   3.843   8.017  11.106  0.5362 -0.1386 -0.1772
    3TTP    C1833182   3.901   7.898  11.158  0.6256 -0.1137 -0.2184
    3TTP    C3233183   4.177   7.666  11.077  0.3889 -0.1752 -0.2823
    3TTP    C3333184   4.147   7.595  10.945 -0.2168  0.0024 -0.2882
    3TTP    C3433185   4.278   7.574  10.877  1.2065 -1.7163  0.7335
    3TTP    C3533186   4.256   7.528  10.733  0.2855  0.8562  0.6936
    3TTP    C3633187   4.338   7.629  10.641  0.1781  2.1029  0.8401
    3TTP    C3733188   4.262   7.625  10.508 -0.1402  0.7165 -1.1006
    3TTP    C3833189   4.341   7.559  10.389 -0.9196  0.9523 -0.8999
    3TTP    C3933190   4.371   7.392  10.426  0.4020 -2.1896  1.8413
    3TTP    C4033191   4.452   7.323  10.319 -0.2470  1.3236 -0.6305
    3TTP    C4133192   4.602   7.387  10.314  1.0624  0.1433  1.0290
    3TTP    C4233193   4.667   7.370  10.446  0.0214 -0.4736 -0.5328
    4FIC     F133194   2.882   8.916  11.812  1.1470  0.1249  0.7779
    4FIC     F233195   2.916   9.183  11.770 -0.7913  0.2143 -0.4475
    4FIC     O133196   3.139   8.712  11.381  1.3921  0.0679  0.9507
    4FIC     N533197   3.147   9.421  11.403 -3.4033  0.3026 -2.0861
    4FIC     N633198   3.341   9.208  11.075 -2.8211  0.2396 -1.7041
    4FIC    C1933199   3.262   8.895  11.188 -0.3726  0.1334 -0.1587
    4FIC    C2033200   3.196   8.936  11.298 -0.3586  0.1440 -0.1543
    4FIC    C2133201   3.136   8.836  11.393  0.5777  0.1087  0.4346
    4FIC    C2233202   3.072   8.913  11.501  0.3344  0.1318  0.2761
    4FIC    C2333203   3.003   8.865  11.611  0.9644  0.1130  0.6705
    4FIC    C2433204   2.952   8.958  11.700  0.5654  0.1412  0.4143
    4FIC    C2533205   2.969   9.095  11.679 -0.4334  0.1876 -0.2172
    4FIC    C2633206   3.038   9.144  11.569 -1.0662  0.2065 -0.6133
    4FIC    C2733207   3.090   9.052  11.477 -0.6757  0.1781 -0.3624
    4FIC    C2833208   3.168   9.071  11.352 -1.1413  0.1874 -0.6520
    4FIC    C2933209   3.205   9.191  11.296 -2.1122  0.2289 -1.2644
    4FIC    C3033210   3.173   9.317  11.355 -2.8186  0.2692 -1.7141
    4FIC    C3133211   3.279   9.200  11.175 -2.4966  0.2344 -1.5027
    5FIC     F133212   3.873   7.415  12.013  0.2809  0.5523 -0.1107
    5FIC     F233213   4.032   7.202  11.956  0.4491  0.6942 -0.1728
    5FIC     O133214   3.897   7.689  11.547 -0.4716  0.3699 -0.2608
    5FIC     N533215   4.279   7.091  11.542  0.1545  0.7683 -0.3690
    5FIC     N633216   4.266   7.349  11.189 -0.4677  0.5974 -0.4738
    5FIC    C1933217   4.059   7.583  11.327 -0.5782  0.4410 -0.3734
    5FIC    C2033218   4.046   7.523  11.446 -0.3957  0.4814 -0.3332
    5FIC    C2133219   3.961   7.583  11.555 -0.3520  0.4407 -0.2763
    5FIC    C2233220   3.970   7.492  11.670 -0.1411  0.5010 -0.2431
    5FIC    C2333221   3.908   7.506  11.794 -0.0330  0.4915 -0.1878
    5FIC    C2433222   3.931   7.407  11.888  0.1653  0.5575 -0.1652
    5FIC    C2533223   4.013   7.297  11.859  0.2514  0.6305 -0.1972
    5FIC    C2633224   4.075   7.283  11.735  0.1446  0.6405 -0.2525
    5FIC    C2733225   4.053   7.382  11.639 -0.0564  0.5745 -0.2761
    5FIC    C2833226   4.103   7.396  11.500 -0.2095  0.5652 -0.3327
    5FIC    C2933227   4.187   7.309  11.434 -0.1832  0.6232 -0.3764
    5FIC    C3033228   4.237   7.190  11.493  0.0024  0.7030 -0.3721
    5FIC    C3133229   4.230   7.332  11.299 -0.3397  0.6087 -0.4297
    1BTD     S233230  10.863   1.978   3.266  0.3524 -0.2849 -0.1863
    1BTD     N133231  10.858   1.799   3.269 -0.0157 -0.2741  0.0179
    1BTD     N233232  10.707   1.996   3.178  0.4330 -0.0676 -0.2890
    1BTD     N333233  10.381   1.706   3.003 -0.0663  0.3949 -0.1294
    1BTD     N433234  10.568   1.463   3.116 -0.6192  0.1403  0.2487
    1BTD     C533235  10.704   1.627   3.187 -0.3242 -0.0547  0.1339
    1BTD     C633236  10.747   1.763   3.207 -0.0570 -0.1172 -0.0001
    1BTD     C733237  10.662   1.873   3.156  0.1943 -0.0016 -0.1718
    1BTD     C833238  10.539   1.841   3.088  0.1659  0.1708 -0.2011
    1BTD    C1533239  10.502   1.707   3.071 -0.0998  0.2264 -0.0662
    1BTD    C1633240  10.583   1.601   3.120 -0.3419  0.1150  0.0993
    1BTD    C4333241  10.509   1.363   3.010 -0.5074  0.4149  0.8986
    1BTD    C4433242  10.576   1.320   2.879 -0.4935 -0.9041  0.2733
    1BTD    C4533243  10.498   1.214   2.815 -1.1069 -0.0163  0.8138
    1BTD    C4633244  10.518   1.071   2.876  0.8271 -0.4423 -1.8667
    1BTD    C4733245  10.580   1.452   2.791 -0.4253  0.1096  0.0917
    1BTD    C4833246  10.457   1.524   2.746 -0.0758  0.1016  0.2870
    1BTD    C4933247  10.441   1.578   2.593  0.3120  0.7426 -0.0221
    1BTD    C5033248  10.293   1.597   2.572 -1.6212 -0.6785  1.5212
    1BTD    C7533249  10.291   1.594   3.023  1.6105  1.3232  0.7869
    1BTD    C7633250  10.143   1.616   3.035 -0.6426  0.4647 -0.4905
    1BTD    C7733251  10.098   1.655   3.174 -0.1302 -1.1036 -0.6539
    1BTD    C7833252   9.956   1.744   3.186 -0.8874  0.2534  0.1711
    1BTD    C7933253  10.089   1.474   2.994 -0.3002  0.3217 -0.3166
    1BTD    C8033254   9.942   1.489   2.943 -2.0892  1.0625  0.9521
    1BTD    C8133255   9.920   1.388   2.830 -0.6958  0.3180  1.1414
    1BTD    C8233256   9.958   1.407   2.679 -0.7101 -0.1007 -0.5826
    2TTP     S133257  10.901   1.431   3.322 -0.1673  0.0609  0.2996
    2TTP     S533258  10.660   1.099   3.193  0.2284  0.2066 -0.8397
    2TTP     C133259  10.799   1.035   3.291 -0.3843  0.1381  0.0093
    2TTP     C233260  10.882   1.134   3.336 -0.5429  0.0891  0.4112
    2TTP     C333261  10.838   1.264   3.295 -0.1860  0.1039  0.0630
    2TTP     C433262  10.761   1.495   3.224  0.4451  0.1294 -0.5494
    2TTP    C1733263  10.679   1.396   3.178  0.6034  0.1785 -0.9513
    2TTP    C1833264  10.723   1.267   3.219  0.2470  0.1637 -0.6031
    2TTP    C3233265  11.014   1.131   3.420  0.5891 -0.9994  0.2239
    2TTP    C3333266  11.143   1.066   3.356  0.5546  0.8288 -0.5248
    2TTP    C3433267  11.153   1.105   3.212  0.8357  0.4377 -0.1106
    2TTP    C3533268  11.081   1.019   3.102 -1.1531  1.1954 -1.0351
    2TTP    C3633269  11.132   1.019   2.959  1.0434  0.4393  1.1276
    2TTP    C3733270  11.041   0.900   2.904  1.0811 -1.0161  0.5461
    2TTP    C3833271  11.057   0.826   2.768  0.2717 -1.3384  0.4079
    2TTP    C3933272  11.187   0.746   2.767 -0.6264 -0.0530  0.2629
    2TTP    C4033273  11.249   0.772   2.628 -0.3309 -0.1860  2.1539
    2TTP    C4133274  11.350   0.685   2.553  0.3923 -0.9077  0.7106
    2TTP    C4233275  11.301   0.694   2.395  1.4835  0.0465  0.2721
    3TTP     S133276  10.446   2.092   2.950  0.2466  0.0999  0.2427
    3TTP     S533277  10.147   1.854   2.752  0.0727  0.0991  0.5040
    3TTP     C133278  10.144   2.022   2.682 -0.0155  0.1099  0.5334
    3TTP     C233279  10.236   2.105   2.739  0.0327  0.1107  0.4545
    3TTP     C333280  10.312   2.040   2.840  0.1419  0.1031  0.3679
    3TTP     C433281  10.449   1.924   3.021  0.3352  0.0893  0.2133
    3TTP    C1733282  10.357   1.841   2.964  0.2868  0.0884  0.2921
    3TTP    C1833283  10.281   1.907   2.862  0.1781  0.0961  0.3788
    3TTP    C3233284  10.279   2.253   2.709 -0.4403 -0.3099  0.0090
    3TTP    C3333285  10.250   2.361   2.806 -0.5010 -1.5882  1.5107
    3TTP    C3433286  10.202   2.499   2.746  0.4700  0.0084  0.6118
    3TTP    C3533287  10.290   2.563   2.638 -0.0108 -0.6578  1.3191
    3TTP    C3633288  10.215   2.711   2.596 -1.1914  0.5997 -0.7457
    3TTP    C3733289  10.235   2.744   2.454  0.7530 -0.2428  0.1651
    3TTP    C3833290  10.194   2.882   2.411  0.9070 -0.4711  0.9836
    3TTP    C3933291  10.126   2.891   2.271  0.5342  1.4639 -0.1488
    3TTP    C4033292  10.046   3.011   2.242  0.3716 -1.3665 -0.4312
    3TTP    C4133293  10.027   3.066   2.107  0.1245 -0.8575  0.2047
    3TTP    C4233294   9.987   2.982   1.991 -0.2511  0.4442 -0.5734
    4FIC     F133295  10.457   0.332   3.054  0.4225  0.0056 -0.6615
    4FIC     F233296  10.635   0.196   3.208 -0.0503 -0.0597 -0.1686
    4FIC     O133297  10.613   0.843   3.144  0.6344 -0.0741 -0.5733
    4FIC     N533298  11.002   0.364   3.494 -0.5794 -0.2105  0.6028
    4FIC     N633299  11.088   0.791   3.534 -0.3188 -0.2596  0.5724
    4FIC    C1933300  10.838   0.894   3.324  0.2577 -0.1648 -0.0710
    4FIC    C2033301  10.792   0.771   3.295  0.2229 -0.1422 -0.1125
    4FIC    C2133302  10.676   0.752   3.201  0.4256 -0.0957 -0.3762
    4FIC    C2233303  10.652   0.607   3.192  0.3266 -0.0810 -0.3535
    4FIC    C2333304  10.554   0.542   3.118  0.4466 -0.0402 -0.5471
    4FIC    C2433305  10.551   0.403   3.125  0.3152 -0.0339 -0.4795
    4FIC    C2533306  10.643   0.333   3.205  0.0715 -0.0677 -0.2254
    4FIC    C2633307  10.741   0.398   3.279 -0.0491 -0.1085 -0.0311
    4FIC    C2733308  10.745   0.538   3.273  0.0808 -0.1154 -0.0960
    4FIC    C2833309  10.835   0.636   3.339  0.0074 -0.1544  0.0621
    4FIC    C2933310  10.938   0.607   3.425 -0.2177 -0.1941  0.3209
    4FIC    C3033311  10.973   0.473   3.463 -0.4158 -0.2029  0.4750
    4FIC    C3133312  11.020   0.708   3.485 -0.2720 -0.2299  0.4578
    5FIC     F133313   9.527   1.721   2.227  0.4170 -0.5063 -0.2471
    5FIC     F233314   9.567   1.922   2.048 -0.4652  0.2803  0.4181
    5FIC     O133315   9.902   1.838   2.599  0.8078 -0.8903 -0.5166
    5FIC     N533316   9.892   2.295   2.057 -1.4551  1.1374  1.1823
    5FIC     N633317  10.177   2.346   2.384 -0.9723  0.6789  0.8377
    5FIC    C1933318  10.073   2.072   2.561  0.1034 -0.2751  0.0232
    5FIC    C2033319   9.977   2.035   2.474  0.0396 -0.2093  0.0650
    5FIC    C2133320   9.893   1.913   2.501  0.4182 -0.5408 -0.2246
    5FIC    C2233321   9.800   1.902   2.388  0.2351 -0.3681 -0.0930
    5FIC    C2333322   9.702   1.804   2.368  0.4594 -0.5606 -0.2680
    5FIC    C2433323   9.625   1.814   2.253  0.2157 -0.3350 -0.0896
    5FIC    C2533324   9.646   1.917   2.161 -0.2388  0.0703  0.2530
    5FIC    C2633325   9.744   2.015   2.180 -0.4652  0.2642  0.4292
    5FIC    C2733326   9.822   2.007   2.296 -0.2239  0.0407  0.2529
    5FIC    C2833327   9.932   2.093   2.345 -0.3617  0.1544  0.3637
    5FIC    C2933328   9.983   2.205   2.284 -0.7815  0.5258  0.6821
    5FIC    C3033329   9.933   2.254   2.159 -1.1504  0.8608  0.9560
    5FIC    C3133330  10.089   2.282   2.339 -0.8838  0.6078  0.7658
    1BTD     S233331   5.783   5.836   1.858 -0.2455 -0.0865 -0.2142
    1BTD     N133332   5.919   5.933   1.925 -0.3190 -0.2469  0.1765
    1BTD     N233333   5.875   5.776   1.716 -0.1317  0.3781 -0.3394
    1BTD     N333334   6.310   5.829   1.546 -0.0324  1.0356  0.1113
    1BTD     N433335   6.364   6.022   1.803 -0.2635  0.2654  0.7470
    1BTD     C533336   6.150   5.977   1.858 -0.2871  0.0297  0.4668
    1BTD     C633337   6.021   5.916   1.842 -0.2580  0.0393  0.1928
    1BTD     C733338   5.996   5.828   1.725 -0.1532  0.3892 -0.0960
    1BTD     C833339   6.103   5.806   1.631 -0.0826  0.7119 -0.0964
    1BTD    C1533340   6.228   5.867   1.651 -0.1144  0.6897  0.1773
    1BTD    C1633341   6.251   5.952   1.763 -0.2155  0.3526  0.4555
    1BTD    C4333342   6.500   5.978   1.784 -0.3230  0.9795  0.2285
    1BTD    C4433343   6.529   5.833   1.840  1.1639  1.4035 -1.0183
    1BTD    C4533344   6.553   5.840   1.988  0.7656  1.4034 -1.8437
    1BTD    C4633345   6.690   5.886   2.035  0.3335  0.0383  0.1694
    1BTD    C4733346   6.623   5.752   1.739  0.1251 -0.1659  0.2338
    1BTD    C4833347   6.674   5.608   1.775 -0.2689  0.3996  0.0376
    1BTD    C4933348   6.573   5.500   1.758  0.9517  0.2115  0.5108
    1BTD    C5033349   6.622   5.353   1.779 -0.9604 -0.2381  1.0383
    1BTD    C7533350   6.406   5.919   1.467  1.2088  1.1898  0.8736
    1BTD    C7633351   6.381   6.080   1.467 -0.7108  0.3215  0.8232
    1BTD    C7733352   6.254   6.141   1.407 -0.4623 -0.2861  1.6322
    1BTD    C7833353   6.212   6.136   1.258 -1.7264  0.1534 -0.1730
    1BTD    C7933354   6.498   6.172   1.411  0.8466 -0.3418 -0.1280
    1BTD    C8033355   6.628   6.124   1.461  0.7450  0.4876  0.5163
    1BTD    C8133356   6.683   6.213   1.574  0.8584 -0.6943  0.9945
    1BTD    C8233357   6.819   6.219   1.627 -0.1303 -1.2528 -1.4166
    2TTP     S133358   6.148   6.214   2.057  0.2296 -0.3047 -0.0281
    2TTP     S533359   6.564   6.273   1.965  0.3525 -0.0298  0.6856
    2TTP     C133360   6.510   6.407   2.075  0.0340  0.0208  0.4704
    2TTP     C233361   6.378   6.397   2.110 -0.0229 -0.0610  0.2373
    2TTP     C333362   6.316   6.283   2.051  0.1833 -0.1667  0.2204
    2TTP     C433363   6.202   6.080   1.947  0.5481 -0.3551  0.1871
    2TTP    C1733364   6.334   6.090   1.912  0.6049 -0.2735  0.4202
    2TTP    C1833365   6.397   6.204   1.971  0.3988 -0.1677  0.4372
    2TTP    C3233366   6.277   6.492   2.163 -1.3824 -0.1759 -0.0128
    2TTP    C3333367   6.215   6.600   2.067 -0.4156 -1.7225 -0.5145
    2TTP    C3433368   6.110   6.557   1.985  1.1355  0.9769  1.6724
    2TTP    C3533369   5.986   6.480   2.037  0.9074 -0.1769  0.5799
    2TTP    C3633370   5.901   6.542   2.159  0.7964  0.0946 -0.2688
    2TTP    C3733371   5.812   6.448   2.249 -0.4628 -0.2952  0.2939
    2TTP    C3833372   5.668   6.513   2.265  0.7511  0.7831 -1.0093
    2TTP    C3933373   5.554   6.412   2.299  0.3779 -0.0992 -0.0240
    2TTP    C4033374   5.522   6.338   2.173 -0.0398  0.2712 -0.2599
    2TTP    C4133375   5.393   6.257   2.161 -0.0214  0.9848  0.7959
    2TTP    C4233376   5.276   6.303   2.225  1.3078  0.7903 -1.0594
    3TTP     S133377   6.061   5.545   1.517  0.3926 -0.0858  0.6635
    3TTP     S533378   6.481   5.527   1.423  0.0173 -0.9385 -0.9171
    3TTP     C133379   6.415   5.358   1.427 -0.2040 -0.8388 -0.1571
    3TTP     C233380   6.282   5.353   1.457 -0.1012 -0.5699  0.3758
    3TTP     C333381   6.227   5.483   1.477  0.1560 -0.4324  0.2031
    3TTP     C433382   6.127   5.714   1.512  0.6139 -0.1853 -0.0966
    3TTP    C1733383   6.260   5.719   1.483  0.5110 -0.4543 -0.6294
    3TTP    C1833384   6.315   5.589   1.463  0.2537 -0.5916 -0.4567
    3TTP    C3233385   6.183   5.249   1.434  0.8373 -1.5975  0.2278
    3TTP    C3333386   6.103   5.215   1.557  0.3173  0.2099 -0.4015
    3TTP    C3433387   6.009   5.096   1.557  0.6032  0.3659 -1.3589
    3TTP    C3533388   5.897   5.100   1.445  0.5353  0.4082 -1.2456
    3TTP    C3633389   5.762   5.156   1.492  0.1599  0.4026 -0.2784
    3TTP    C3733390   5.654   5.069   1.426 -0.0094  0.7009 -0.1130
    3TTP    C3833391   5.518   5.054   1.489  0.3170  0.4347  0.0212
    3TTP    C3933392   5.498   4.940   1.600  1.0930  0.5661  0.8693
    3TTP    C4033393   5.600   4.905   1.698  0.9059  0.5088 -1.2688
    3TTP    C4133394   5.541   4.944   1.850 -0.4507 -0.2302  0.7339
    3TTP    C4233395   5.650   4.950   1.959 -0.2511 -1.1469 -0.2390
    4FIC     F133396   7.259   6.640   1.881 -0.0185 -0.2501 -0.1472
    4FIC     F233397   7.269   6.780   2.115  0.0376  0.1392 -0.3796
    4FIC     O133398   6.755   6.443   1.902  0.1609 -0.6411  0.5425
    4FIC     N533399   6.925   6.839   2.466  0.2455  0.4206 -0.2220
    4FIC     N633400   6.530   6.656   2.435  0.3744  0.0367  0.3637
    4FIC    C1933401   6.586   6.506   2.133  0.2780 -0.4079  0.5655
    4FIC    C2033402   6.713   6.550   2.119  0.2307 -0.3246  0.4010
    4FIC    C2133403   6.793   6.513   1.997  0.1720 -0.4547  0.4007
    4FIC    C2233404   6.925   6.577   2.013  0.1307 -0.3170  0.2001
    4FIC    C2333405   7.033   6.572   1.926  0.0710 -0.3675  0.1287
    4FIC    C2433406   7.148   6.641   1.963  0.0408 -0.2108 -0.0670
    4FIC    C2533407   7.153   6.713   2.083  0.0697 -0.0104 -0.1864
    4FIC    C2633408   7.045   6.718   2.171  0.1291  0.0412 -0.1162
    4FIC    C2733409   6.928   6.649   2.135  0.1603 -0.1154  0.0817
    4FIC    C2833410   6.798   6.635   2.205  0.2230 -0.1122  0.2003
    4FIC    C2933411   6.764   6.691   2.326  0.2658  0.0557  0.1363
    4FIC    C3033412   6.853   6.772   2.402  0.2546  0.2558 -0.0606
    4FIC    C3133413   6.635   6.671   2.385  0.3252  0.0442  0.2618
    5FIC     F133414   7.174   5.246   1.147  0.1707  0.2639  0.3827
    5FIC     F233415   7.172   5.001   1.267  0.0231  0.1993  0.2493
    5FIC     O133416   6.674   5.419   1.261  0.0838  0.2691 -0.0029
    5FIC     N533417   6.813   4.773   1.519 -0.2508  0.1103 -0.2174
    5FIC     N633418   6.423   4.958   1.584 -0.2887  0.1272 -0.4918
    5FIC    C1933419   6.495   5.247   1.416 -0.0877  0.2092 -0.2674
    5FIC    C2033420   6.621   5.213   1.382 -0.0602  0.2104 -0.1651
    5FIC    C2133421   6.707   5.307   1.303  0.0290  0.2422 -0.0321
    5FIC    C2233422   6.836   5.239   1.284  0.0379  0.2348  0.0557
    5FIC    C2333423   6.948   5.287   1.217  0.1092  0.2565  0.1886
    5FIC    C2433424   7.060   5.205   1.212  0.1025  0.2439  0.2513
    5FIC    C2533425   7.059   5.079   1.274  0.0264  0.2107  0.1823
    5FIC    C2633426   6.948   5.030   1.341 -0.0451  0.1889  0.0497
    5FIC    C2733427   6.834   5.112   1.347 -0.0395  0.2011 -0.0154
    5FIC    C2833428   6.701   5.091   1.410 -0.1029  0.1850 -0.1539
    5FIC    C2933429   6.660   4.980   1.480 -0.1850  0.1522 -0.2526
    5FIC    C3033430   6.745   4.866   1.501 -0.2209  0.1292 -0.2329
    5FIC    C3133431   6.530   4.968   1.537 -0.2415  0.1388 -0.3836
    1BTD     S233432   6.126   4.436   6.207  0.5500 -0.3073  0.1275
    1BTD     N133433   6.077   4.492   6.371  0.4877 -0.0439  0.0193
    1BTD     N233434   6.222   4.297   6.268  0.3587 -0.3318  0.3788
    1BTD     N333435   6.331   4.116   6.687 -0.1431  0.0937  0.6955
    1BTD     N433436   6.151   4.356   6.814  0.0156  0.4486  0.2525
    1BTD     C533437   6.118   4.418   6.601  0.2394  0.2089  0.1464
    1BTD     C633438   6.132   4.409   6.458  0.3355  0.0095  0.1683
    1BTD     C733439   6.214   4.300   6.400  0.2633 -0.1516  0.3695
    1BTD     C833440   6.277   4.205   6.489  0.0988 -0.1055  0.5388
    1BTD    C1533441   6.260   4.218   6.628  0.0092  0.0921  0.5102
    1BTD    C1633442   6.182   4.324   6.683  0.0787  0.2474  0.3163
    1BTD    C4333443   6.232   4.333   6.937  0.9517 -0.0746  0.3918
    1BTD    C4433444   6.313   4.421   7.019 -0.4855 -0.5075 -0.2150
    1BTD    C4533445   6.355   4.548   6.945  0.3102 -0.4564 -0.4295
    1BTD    C4633446   6.443   4.649   7.016 -0.8903  0.8262  0.3303
    1BTD    C4733447   6.280   4.431   7.162  0.5625 -0.2426 -0.5998
    1BTD    C4833448   6.231   4.315   7.256  0.3495  0.8281 -0.3583
    1BTD    C4933449   6.197   4.363   7.396 -0.3533  1.2417  0.1898
    1BTD    C5033450   6.101   4.292   7.483 -0.2027 -0.3660  0.8603
    1BTD    C7533451   6.273   4.050   6.808  1.7032  0.9913  0.3701
    1BTD    C7633452   6.333   3.968   6.934  0.8081 -0.0310  1.0604
    1BTD    C7733453   6.235   3.889   7.022 -0.6614  0.3183 -1.0289
    1BTD    C7833454   6.111   3.831   6.961 -0.1385 -0.0860 -0.8336
    1BTD    C7933455   6.442   4.027   7.021  0.0663  0.8300  1.1366
    1BTD    C8033456   6.562   4.043   6.922 -1.3579  0.1648 -1.0471
    1BTD    C8133457   6.673   4.120   6.999 -1.4132  0.3440 -0.2976
    1BTD    C8233458   6.787   4.157   6.910  0.7350 -0.4301  0.2504
    2TTP     S133459   5.880   4.585   6.657  0.7107 -0.4119  0.0532
    2TTP     S533460   5.914   4.476   7.072 -0.1445 -0.6462  0.0658
    2TTP     C133461   5.756   4.562   7.047 -0.3757 -1.1700 -0.3269
    2TTP     C233462   5.736   4.601   6.918 -0.1252 -1.1286 -0.3537
    2TTP     C333463   5.845   4.564   6.833  0.2583 -0.6816 -0.0653
    2TTP     C433464   6.039   4.499   6.681  0.9421  0.1119  0.4457
    2TTP    C1733465   6.058   4.460   6.811  0.6914  0.0704  0.4726
    2TTP    C1833466   5.949   4.497   6.896  0.3079 -0.3766  0.1843
    2TTP    C3233467   5.610   4.653   6.847  0.9190  0.9209 -0.9182
    2TTP    C3333468   5.618   4.778   6.760 -0.0423  0.1546 -0.0840
    2TTP    C3433469   5.660   4.909   6.846  0.1288 -0.5321 -0.5378
    2TTP    C3533470   5.650   5.053   6.787  1.2422  0.0079 -0.5710
    2TTP    C3633471   5.667   5.163   6.885 -0.8049 -0.1276  0.8090
    2TTP    C3733472   5.541   5.208   6.969 -0.4705  0.9525  0.1969
    2TTP    C3833473   5.558   5.255   7.120 -0.2502  0.1946 -1.1208
    2TTP    C3933474   5.558   5.400   7.121 -0.3737 -0.4529  0.4024
    2TTP    C4033475   5.518   5.482   7.246  0.1307  0.7579 -1.4362
    2TTP    C4133476   5.393   5.448   7.339  0.0913 -1.0385 -0.5770
    2TTP    C4233477   5.249   5.461   7.287  0.5367 -0.5023  0.4284
    3TTP     S133478   6.383   3.977   6.331  0.3968 -0.1664 -0.2699
    3TTP     S533479   6.460   3.757   6.692  0.2031  0.5342  0.2024
    3TTP     C133480   6.488   3.647   6.550  0.4647  0.3115  0.4244
    3TTP     C233481   6.466   3.708   6.430  0.5400  0.0821  0.2916
    3TTP     C333482   6.426   3.845   6.446  0.3936  0.0739  0.0098
    3TTP     C433483   6.355   4.087   6.473  0.1351  0.0561 -0.4920
    3TTP    C1733484   6.377   4.026   6.593  0.0598  0.2856 -0.3591
    3TTP    C1833485   6.417   3.889   6.577  0.2061  0.2939 -0.0772
    3TTP    C3233486   6.487   3.665   6.285 -0.5262  0.9720 -0.2426
    3TTP    C3333487   6.368   3.616   6.190 -0.0298 -0.0754 -0.1466
    3TTP    C3433488   6.417   3.571   6.052  0.8301 -1.1613 -0.3473
    3TTP    C3533489   6.302   3.492   5.989  0.3687  1.3473 -0.1290
    3TTP    C3633490   6.338   3.458   5.843  0.7340  0.2981  0.3764
    3TTP    C3733491   6.423   3.334   5.833  1.2253  0.7068  0.8905
    3TTP    C3833492   6.353   3.191   5.830 -0.5367  0.2856 -0.8086
    3TTP    C3933493   6.452   3.086   5.877  0.3017  1.2226 -1.1259
    3TTP    C4033494   6.429   2.936   5.817 -1.1075  0.5938  0.5389
    3TTP    C4133495   6.552   2.835   5.843  0.7523  0.0131 -0.8276
    3TTP    C4233496   6.546   2.793   5.992 -0.7020 -0.5792  0.8689
    4FIC     F133497   5.785   4.613   7.864  0.4705 -0.4232 -0.3631
    4FIC     F233498   5.515   4.644   7.869  0.4231 -0.8546 -0.0843
    4FIC     O133499   5.876   4.580   7.331  0.0515  0.3735 -0.4859
    4FIC     N533500   5.191   4.666   7.495  0.0561 -0.9072  0.2298
    4FIC     N633501   5.316   4.634   7.078 -0.2618 -0.1978  0.0777
    4FIC    C1933502   5.650   4.599   7.146 -0.1427  0.2441 -0.2626
    4FIC    C2033503   5.637   4.606   7.280 -0.0355  0.0607 -0.2426
    4FIC    C2133504   5.758   4.595   7.369  0.0598  0.1426 -0.3626
    4FIC    C2233505   5.710   4.607   7.507  0.1644 -0.1043 -0.3049
    4FIC    C2333506   5.785   4.603   7.624  0.2744 -0.1291 -0.3763
    4FIC    C2433507   5.717   4.616   7.744  0.3596 -0.3840 -0.2993
    4FIC    C2533508   5.578   4.632   7.747  0.3351 -0.6062 -0.1555
    4FIC    C2633509   5.502   4.636   7.630  0.2255 -0.5828 -0.0837
    4FIC    C2733510   5.569   4.623   7.508  0.1379 -0.3264 -0.1597
    4FIC    C2833511   5.519   4.623   7.368  0.0142 -0.2338 -0.1159
    4FIC    C2933512   5.388   4.636   7.328 -0.0433 -0.3909  0.0170
    4FIC    C3033513   5.280   4.653   7.420  0.0116 -0.6742  0.1335
    4FIC    C3133514   5.349   4.635   7.191 -0.1632 -0.2838  0.0497
    5FIC     F133515   6.338   3.116   7.142 -0.1748  0.1703  0.1432
    5FIC     F233516   6.519   2.949   7.029 -0.7119 -0.3240  0.0030
    5FIC     O133517   6.336   3.523   6.785  0.4247  0.0370 -0.0129
    5FIC     N533518   6.780   2.997   6.611 -1.0569 -1.1296 -0.3095
    5FIC     N633519   6.742   3.349   6.354 -0.4803 -1.1342 -0.4034
    5FIC    C1933520   6.509   3.507   6.549  0.1245 -0.4825 -0.2023
    5FIC    C2033521   6.502   3.411   6.644 -0.0054 -0.4297 -0.1576
    5FIC    C2133522   6.411   3.427   6.762  0.1634 -0.1575 -0.0603
    5FIC    C2233523   6.428   3.306   6.844 -0.0418 -0.1687 -0.0325
    5FIC    C2333524   6.364   3.274   6.964  0.0144  0.0354  0.0515
    5FIC    C2433525   6.397   3.154   7.024 -0.2152 -0.0225  0.0616
    5FIC    C2533526   6.491   3.067   6.965 -0.4917 -0.2773 -0.0104
    5FIC    C2633527   6.555   3.098   6.846 -0.5494 -0.4820 -0.0948
    5FIC    C2733528   6.523   3.220   6.784 -0.3200 -0.4272 -0.1063
    5FIC    C2833529   6.572   3.281   6.658 -0.3084 -0.5977 -0.1858
    5FIC    C2933530   6.665   3.228   6.572 -0.5351 -0.8608 -0.2699
    5FIC    C3033531   6.728   3.101   6.593 -0.8214 -1.0078 -0.2915
    5FIC    C3133532   6.707   3.295   6.452 -0.5037 -1.0095 -0.3428
    1BTD     S233533   1.047   5.479   9.901  0.3243  0.1570  0.1535
    1BTD     N133534   0.925   5.431   9.777  0.2033  0.3177  0.2086
    1BTD     N233535   0.977   5.376  10.031  0.4427 -0.0005  0.0916
    1BTD     N333536   0.617   5.078  10.072  0.4654 -0.0318  0.0646
    1BTD     N433537   0.553   5.145   9.760  0.1704  0.3605  0.2091
    1BTD     C533538   0.732   5.281   9.772  0.1897  0.3353  0.2072
    1BTD     C633539   0.844   5.345   9.836  0.2547  0.2491  0.1793
    1BTD     C733540   0.873   5.314   9.978  0.3887  0.0709  0.1140
    1BTD     C833541   0.789   5.221  10.049  0.4510 -0.0123  0.0792
    1BTD    C1533542   0.680   5.161   9.982  0.3836  0.0771  0.1082
    1BTD    C1633543   0.652   5.191   9.845  0.2545  0.2490  0.1714
    1BTD    C4333544   0.515   4.993   9.751  2.3322 -0.4873  0.3474
    1BTD    C4433545   0.389   4.951   9.677 -0.0255 -0.0395 -0.0214
    1BTD    C4533546   0.419   4.819   9.596 -1.0932 -0.9883 -1.1595
    1BTD    C4633547   0.461   4.840   9.445 -0.5086 -0.6070 -0.3499
    1BTD    C4733548   0.252   5.013   9.718 -0.5890 -0.3075 -0.9032
    1BTD    C4833549   0.112   4.986   9.664 -0.1314 -0.4551  0.7755
    1BTD    C4933550  -0.004   4.984   9.741  0.5850 -0.3408  0.3928
    1BTD    C5033551  -0.034   4.860   9.823 -0.2056 -0.5680  0.4811
    1BTD    C7533552   0.480   5.033  10.070  0.6586  0.5423 -0.7699
    1BTD    C7633553   0.377   5.133  10.130  0.8477 -1.2021 -0.0598
    1BTD    C7733554   0.229   5.076  10.130 -0.3044  0.5030 -1.0755
    1BTD    C7833555   0.172   5.006  10.255 -0.4906 -0.1448  0.2396
    1BTD    C7933556   0.376   5.276  10.074  0.8954  0.8180  0.6623
    1BTD    C8033557   0.296   5.392  10.136 -0.4304  0.6129 -0.2964
    1BTD    C8133558   0.327   5.422  10.293 -0.6382  0.1620  0.0283
    1BTD    C8233559   0.474   5.439  10.346 -1.3930  0.2426 -1.0065
    2TTP     S133560   0.698   5.391   9.498  0.1489 -0.1966 -0.2767
    2TTP     S533561   0.312   5.205   9.467 -0.0233  0.1708 -0.3397
    2TTP     C133562   0.336   5.312   9.322  0.0455  0.2539 -0.2673
    2TTP     C233563   0.457   5.376   9.323  0.1026  0.1452 -0.2437
    2TTP     C333564   0.535   5.342   9.439  0.0943 -0.0074 -0.2818
    2TTP     C433565   0.674   5.284   9.643  0.0802 -0.2795 -0.3495
    2TTP    C1733566   0.553   5.220   9.642  0.0230 -0.1710 -0.3730
    2TTP    C1833567   0.475   5.253   9.527  0.0313 -0.0184 -0.3347
    2TTP    C3233568   0.522   5.460   9.214 -0.7192  0.0685  0.4559
    2TTP    C3333569   0.641   5.385   9.147  1.4100 -0.2196  0.3264
    2TTP    C3433570   0.708   5.450   9.027 -1.4301 -1.4824  0.2501
    2TTP    C3533571   0.823   5.377   8.960 -0.9489 -1.7215 -2.3708
    2TTP    C3633572   0.826   5.227   8.952 -0.5728  0.2038  0.3891
    2TTP    C3733573   0.737   5.129   8.876  0.9450 -0.5488  1.2752
    2TTP    C3833574   0.718   5.158   8.731 -1.3936 -0.2207  0.6280
    2TTP    C3933575   0.670   5.032   8.652 -0.2888  0.6376  0.4506
    2TTP    C4033576   0.599   5.064   8.514  0.1611 -0.2553 -0.8135
    2TTP    C4133577   0.602   4.943   8.425 -0.0162  0.7509 -0.1494
    2TTP    C4233578   0.558   4.798   8.472  0.6814 -0.1365  0.7659
    3TTP     S133579   0.892   5.170  10.331 -0.2169 -0.0877 -0.4643
    3TTP     S533580   0.543   4.935  10.423  0.4451 -0.6946  0.5286
    3TTP     C133581   0.647   4.946  10.572  1.0065 -0.7822  0.1500
    3TTP     C233582   0.761   5.019  10.552  0.8352 -0.5997 -0.1788
    3TTP     C333583   0.770   5.069  10.419  0.2543 -0.3846 -0.1438
    3TTP     C433584   0.788   5.159  10.182 -0.7782 -0.0002 -0.0858
    3TTP    C1733585   0.674   5.086  10.202 -0.6069 -0.1826  0.2434
    3TTP    C1833586   0.665   5.036  10.335 -0.0261 -0.3979  0.2081
    3TTP    C3233587   0.847   5.082  10.664  0.3702  1.0127 -0.3739
    3TTP    C3333588   0.960   4.987  10.720 -0.7381  0.2107 -0.6457
    3TTP    C3433589   1.009   5.020  10.868  1.2836 -1.8869  0.0518
    3TTP    C3533590   1.099   5.140  10.880  0.2504 -1.0186  0.3702
    3TTP    C3633591   1.086   5.204  11.012  1.2121  0.6514 -1.2018
    3TTP    C3733592   0.964   5.304  11.012  1.0415  0.2128 -0.9043
    3TTP    C3833593   0.897   5.312  11.158 -0.1443  1.4246 -1.4029
    3TTP    C3933594   0.958   5.362  11.276 -0.6611 -0.9994 -0.1331
    3TTP    C4033595   1.059   5.486  11.269 -0.4347 -0.3497 -0.6145
    3TTP    C4133596   1.166   5.504  11.390 -0.4466 -0.5612  1.0567
    3TTP    C4233597   1.236   5.646  11.387  0.8061  0.7443  1.1030
    4FIC     F133598  -0.470   5.184   9.225 -0.1936  0.7150 -0.2365
    4FIC     F233599  -0.443   5.251   8.963  0.2499 -0.5096 -0.5186
    4FIC     O133600   0.038   5.252   9.401 -0.4157  1.1901  0.2267
    4FIC     N533601  -0.042   5.397   8.711  0.7291 -1.9315 -0.5932
    4FIC     N633602   0.349   5.436   8.902  0.4660 -1.3134 -0.1750
    4FIC    C1933603   0.244   5.340   9.213 -0.0710  0.1890  0.1218
    4FIC    C2033604   0.115   5.321   9.179 -0.0324  0.1173  0.0160
    4FIC    C2133605   0.015   5.275   9.281 -0.2183  0.6542  0.0796
    4FIC    C2233606  -0.114   5.264   9.211 -0.1194  0.4172 -0.0670
    4FIC    C2333607  -0.237   5.225   9.265 -0.2267  0.7441 -0.0706
    4FIC    C2433608  -0.346   5.222   9.179 -0.0980  0.4202 -0.2243
    4FIC    C2533609  -0.332   5.256   9.044  0.1303 -0.2107 -0.3690
    4FIC    C2633610  -0.210   5.295   8.990  0.2382 -0.5395 -0.3664
    4FIC    C2733611  -0.098   5.299   9.075  0.1109 -0.2197 -0.2122
    4FIC    C2833612   0.043   5.336   9.050  0.1735 -0.4292 -0.1667
    4FIC    C2933613   0.097   5.375   8.930  0.3824 -1.0171 -0.2739
    4FIC    C3033614   0.020   5.387   8.810  0.5722 -1.5179 -0.4492
    4FIC    C3133615   0.235   5.408   8.915  0.4272 -1.1766 -0.2189
    5FIC     F133616   0.122   4.380  10.853  0.4466 -0.5543  0.0684
    5FIC     F233617   0.182   4.456  11.107  0.0043 -0.0672  0.0305
    5FIC     O133618   0.440   4.715  10.570  0.5917 -0.7766 -0.0322
    5FIC     N533619   0.493   4.803  11.272 -0.5277  0.4743 -0.0958
    5FIC     N633620   0.730   5.049  10.999 -0.3251  0.2022 -0.1667
    5FIC    C1933621   0.610   4.906  10.713  0.2209 -0.3904 -0.1043
    5FIC    C2033622   0.528   4.819  10.774  0.2016 -0.3535 -0.0775
    5FIC    C2133623   0.443   4.724  10.694  0.3999 -0.5612 -0.0410
    5FIC    C2233624   0.366   4.644  10.791  0.3212 -0.4586 -0.0184
    5FIC    C2333625   0.275   4.543  10.764  0.4450 -0.5809  0.0174
    5FIC    C2433626   0.214   4.481  10.872  0.3340 -0.4447  0.0335
    5FIC    C2533627   0.245   4.520  11.003  0.1063 -0.1939  0.0134
    5FIC    C2633628   0.336   4.621  11.031 -0.0183 -0.0705 -0.0219
    5FIC    C2733629   0.399   4.685  10.922  0.0912 -0.2053 -0.0384
    5FIC    C2833630   0.499   4.794  10.917  0.0086 -0.1308 -0.0753
    5FIC    C2933631   0.554   4.859  11.025 -0.2057  0.1003 -0.1028
    5FIC    C3033632   0.521   4.828  11.160 -0.3820  0.3051 -0.0987
    5FIC    C3133633   0.651   4.963  11.010 -0.2701  0.1550 -0.1378
    1BTD     S233634   8.793   1.930   2.288  0.1771  0.0168 -0.0196
    1BTD     N133635   8.771   1.792   2.401  0.3757 -0.0960 -0.1177
    1BTD     N233636   8.865   2.039   2.411 -0.0470  0.0597  0.0758
    1BTD     N333637   8.975   2.012   2.867 -0.1447 -0.0569  0.0924
    1BTD     N433638   8.858   1.708   2.855  0.3757 -0.2485 -0.1459
    1BTD     C533639   8.818   1.752   2.638  0.3695 -0.1733 -0.1296
    1BTD     C633640   8.817   1.833   2.519  0.2706 -0.0959 -0.0766
    1BTD     C733641   8.870   1.971   2.524  0.0336 -0.0088  0.0317
    1BTD     C833642   8.921   2.022   2.649 -0.0918 -0.0035  0.0816
    1BTD    C1533643   8.920   1.939   2.763  0.0123 -0.0810  0.0267
    1BTD    C1633644   8.869   1.806   2.757  0.2403 -0.1649 -0.0777
    1BTD    C4333645   8.945   1.692   2.974 -0.3743  1.1173  0.5384
    1BTD    C4433646   9.070   1.607   2.978  0.3497  0.4407 -0.1428
    1BTD    C4533647   9.141   1.600   3.109 -0.8785  0.5950 -0.0397
    1BTD    C4633648   9.077   1.576   3.244  0.9185 -0.5015  0.4860
    1BTD    C4733649   9.154   1.615   2.849 -0.3495 -1.1302  0.1226
    1BTD    C4833650   9.223   1.758   2.846 -0.6159  1.2924 -0.0955
    1BTD    C4933651   9.318   1.752   2.726 -0.0692  0.4495 -0.0859
    1BTD    C5033652   9.408   1.880   2.715  0.6566  0.4698 -0.3880
    1BTD    C7533653   8.921   2.006   3.014 -0.0517 -1.0475  1.4875
    1BTD    C7633654   8.948   2.094   3.145 -0.5561 -0.0335  0.1610
    1BTD    C7733655   8.996   1.992   3.262 -0.0927 -0.7849  0.5436
    1BTD    C7833656   8.888   1.907   3.302  0.0309  0.3430  0.5403
    1BTD    C7933657   8.856   2.214   3.180  0.2344 -0.5361 -1.0450
    1BTD    C8033658   8.869   2.317   3.300 -0.3118  0.0905 -0.3771
    1BTD    C8133659   8.749   2.293   3.392 -0.8876  1.1932 -0.7260
    1BTD    C8233660   8.624   2.387   3.373  0.1818  0.2936  1.0357
    2TTP     S133661   8.695   1.483   2.578 -0.2442 -0.1244  0.4679
    2TTP     S533662   8.718   1.393   2.998 -0.2074 -0.1001  0.4711
    2TTP     C133663   8.635   1.255   2.914 -0.4418  0.0077  0.5230
    2TTP     C233664   8.623   1.275   2.779 -0.4666  0.0065  0.5251
    2TTP     C333665   8.679   1.399   2.738 -0.3021 -0.0795  0.4857
    2TTP     C433666   8.778   1.621   2.663 -0.0103 -0.2322  0.4159
    2TTP    C1733667   8.790   1.602   2.797  0.0146 -0.2310  0.4138
    2TTP    C1833668   8.734   1.477   2.839 -0.1500 -0.1450  0.4532
    2TTP    C3233669   8.545   1.181   2.680  1.0667 -1.6304  0.2081
    2TTP    C3333670   8.413   1.252   2.617  0.2665  0.2809  0.4888
    2TTP    C3433671   8.311   1.156   2.543  0.5737  0.4254 -0.1819
    2TTP    C3533672   8.174   1.166   2.466 -0.4925 -0.1840 -0.8278
    2TTP    C3633673   8.045   1.188   2.553 -0.6781 -0.1066  0.5352
    2TTP    C3733674   7.961   1.067   2.579  0.1687  0.5952  1.4009
    2TTP    C3833675   7.807   1.084   2.574  0.5198  1.1557  1.1666
    2TTP    C3933676   7.723   1.187   2.635 -0.2972 -0.4209 -0.9348
    2TTP    C4033677   7.747   1.207   2.778  0.3929  1.1840 -1.0328
    2TTP    C4133678   7.654   1.261   2.868  0.6447  2.3040 -0.4445
    2TTP    C4233679   7.678   1.276   3.032 -0.0160  1.2231  0.6643
    3TTP     S133680   9.056   2.285   2.596 -0.2539  0.3033  0.2374
    3TTP     S533681   9.202   2.287   3.001  0.9060  0.5949 -0.1738
    3TTP     C133682   9.274   2.429   2.913  0.4870  0.6550 -0.4247
    3TTP     C233683   9.234   2.437   2.783  0.1047  0.5684 -0.3124
    3TTP     C333684   9.144   2.331   2.748  0.1280  0.4516 -0.0244
    3TTP     C433685   8.985   2.143   2.684  0.1650  0.2432  0.4882
    3TTP    C1733686   9.025   2.135   2.814  0.5480  0.3298  0.3760
    3TTP    C1833687   9.115   2.241   2.849  0.5243  0.4466  0.0879
    3TTP    C3233688   9.276   2.541   2.682  0.9926  0.0338  0.2436
    3TTP    C3333689   9.150   2.623   2.668 -1.5051  0.3269  1.9765
    3TTP    C3433690   9.155   2.713   2.545  1.4372 -1.0536 -0.1898
    3TTP    C3533691   9.035   2.808   2.554  0.3968 -0.4551  1.1073
    3TTP    C3633692   9.066   2.960   2.556 -0.2226  0.3839  1.5653
    3TTP    C3733693   8.942   3.035   2.557  0.7388 -0.0579  1.4342
    3TTP    C3833694   8.911   3.163   2.624  0.5444  0.3205  0.4709
    3TTP    C3933695   9.008   3.287   2.650 -1.2830  1.0181 -0.5168
    3TTP    C4033696   8.949   3.422   2.618  0.1593 -0.9751 -0.6605
    3TTP    C4133697   9.046   3.543   2.612  0.2193  0.1859 -0.5992
    3TTP    C4233698   8.982   3.671   2.557  0.5438 -1.0527  0.0559
    4FIC     F133699   8.613   0.922   3.669 -0.1550 -0.3076  0.1242
    4FIC     F233700   8.474   0.711   3.567 -0.0560 -0.3780  0.1341
    4FIC     O133701   8.677   1.226   3.226 -0.4807 -0.1973  0.1520
    4FIC     N533702   8.320   0.626   3.105 -0.1462 -0.4005  0.1682
    4FIC     N633703   8.398   0.906   2.779 -0.4208 -0.3001  0.1879
    4FIC    C1933704   8.567   1.133   2.971 -0.5021 -0.2254  0.1714
    4FIC    C2033705   8.557   1.065   3.087 -0.4239 -0.2504  0.1639
    4FIC    C2133706   8.616   1.119   3.214 -0.4184 -0.2337  0.1542
    4FIC    C2233707   8.586   1.020   3.319 -0.3247 -0.2688  0.1479
    4FIC    C2333708   8.621   1.027   3.454 -0.2873 -0.2685  0.1382
    4FIC    C2433709   8.582   0.921   3.535 -0.1965 -0.3057  0.1337
    4FIC    C2533710   8.510   0.813   3.482 -0.1455 -0.3419  0.1389
    4FIC    C2633711   8.475   0.806   3.348 -0.1826 -0.3424  0.1485
    4FIC    C2733712   8.514   0.912   3.264 -0.2742 -0.3051  0.1532
    4FIC    C2833713   8.493   0.935   3.119 -0.3333 -0.2952  0.1633
    4FIC    C2933714   8.427   0.851   3.032 -0.3090 -0.3224  0.1706
    4FIC    C3033715   8.368   0.727   3.072 -0.2196 -0.3652  0.1692
    4FIC    C3133716   8.412   0.882   2.893 -0.3705 -0.3100  0.1800
    5FIC     F133717   9.778   2.425   3.551 -1.0378 -0.2005  0.5356
    5FIC     F233718   9.846   2.683   3.495  0.3593 -0.7537 -0.4312
    5FIC     O133719   9.420   2.326   3.157 -1.4608  0.2022  0.8156
    5FIC     N533720   9.688   2.982   3.133  2.0664 -1.2621 -1.6219
    5FIC     N633721   9.395   2.852   2.837  1.4541 -0.8358 -1.2083
    5FIC    C1933722   9.358   2.536   2.963 -0.2762 -0.1832 -0.0088
    5FIC    C2033723   9.445   2.551   3.064 -0.2241 -0.2629 -0.0414
    5FIC    C2133724   9.472   2.438   3.160 -0.8571 -0.0525  0.3988
    5FIC    C2233725   9.571   2.488   3.257 -0.6177 -0.2083  0.2364
    5FIC    C2333726   9.627   2.419   3.364 -1.0173 -0.1025  0.5157
    5FIC    C2433727   9.719   2.487   3.443 -0.6746 -0.2909  0.2813
    5FIC    C2533728   9.754   2.620   3.414  0.0453 -0.5758 -0.2169
    5FIC    C2633729   9.699   2.689   3.307  0.4470 -0.6828 -0.4977
    5FIC    C2733730   9.605   2.622   3.226  0.1094 -0.4953 -0.2668
    5FIC    C2833731   9.529   2.666   3.107  0.3798 -0.5403 -0.4574
    5FIC    C2933732   9.535   2.790   3.047  1.0598 -0.7909 -0.9292
    5FIC    C3033733   9.619   2.895   3.095  1.6108 -1.0490 -1.3084
    5FIC    C3133734   9.458   2.824   2.932  1.2729 -0.8142 -1.0800
    1BTD     S233735   0.630   8.042   7.479 -0.0151  0.0880 -0.4747
    1BTD     N133736   0.748   7.908   7.496  0.0749  0.2166 -0.0805
    1BTD     N233737   0.736   8.142   7.373 -0.0431 -0.1032 -0.6855
    1BTD     N333738   1.167   8.102   7.191  0.0623 -0.2608 -0.4033
    1BTD     N433739   1.181   7.814   7.343  0.2077  0.1329  0.3422
    1BTD     C533740   0.974   7.862   7.414  0.1425  0.1682  0.1312
    1BTD     C633741   0.855   7.942   7.427  0.0792  0.1155 -0.1241
    1BTD     C733742   0.849   8.073   7.358  0.0131 -0.0632 -0.4627
    1BTD     C833743   0.961   8.118   7.280  0.0137 -0.1807 -0.5293
    1BTD    C1533744   1.076   8.036   7.271  0.0769 -0.1233 -0.2715
    1BTD    C1633745   1.082   7.910   7.337  0.1405  0.0490  0.0549
    1BTD    C4333746   1.279   7.769   7.248 -0.5463  0.6647 -0.4548
    1BTD    C4433747   1.242   7.649   7.156 -0.6112 -0.7287  0.9904
    1BTD    C4533748   1.347   7.601   7.052 -0.6476  0.0425  0.8974
    1BTD    C4633749   1.448   7.514   7.114 -0.7570  1.3747  0.5065
    1BTD    C4733750   1.113   7.678   7.089  0.5370  0.7152  1.0828
    1BTD    C4833751   1.027   7.555   7.062  0.1966 -0.0042 -0.5502
    1BTD    C4933752   0.982   7.489   7.194  0.0989  0.1216 -1.6825
    1BTD    C5033753   0.850   7.414   7.190 -0.0291  0.3084  0.0225
    1BTD    C7533754   1.272   8.037   7.105  0.0642 -0.9448 -0.1552
    1BTD    C7633755   1.392   8.103   7.051 -0.6312 -0.7448  1.3752
    1BTD    C7733756   1.461   8.064   6.911  0.9877  0.3617  0.7455
    1BTD    C7833757   1.563   8.158   6.864 -1.3574 -0.8137  0.3368
    1BTD    C7933758   1.492   8.143   7.161 -0.8176 -0.3056 -0.3223
    1BTD    C8033759   1.595   8.042   7.209 -0.2361  1.2698  1.0704
    1BTD    C8133760   1.727   8.090   7.244  0.8758 -1.0370  0.0982
    1BTD    C8233761   1.766   8.150   7.372  0.1702 -1.5874 -0.6125
    2TTP     S133762   1.008   7.694   7.666 -0.2130 -0.1924  0.1847
    2TTP     S533763   1.392   7.575   7.514 -0.3507 -0.1640 -0.1867
    2TTP     C133764   1.377   7.516   7.685 -0.0392  0.1418 -0.0512
    2TTP     C233765   1.258   7.549   7.742  0.0217  0.1510  0.0713
    2TTP     C333766   1.173   7.623   7.653 -0.1755 -0.0832  0.0628
    2TTP     C433767   1.023   7.753   7.495 -0.5245 -0.4982  0.0494
    2TTP    C1733768   1.142   7.720   7.438 -0.5854 -0.5074 -0.0734
    2TTP    C1833769   1.226   7.647   7.527 -0.3882 -0.2733 -0.0648
    2TTP    C3233770   1.218   7.506   7.880 -0.3995  0.1410  0.2294
    2TTP    C3333771   1.097   7.413   7.909  0.4783 -0.3383  0.5509
    2TTP    C3433772   1.013   7.430   8.040 -1.8796  0.5247 -0.4587
    2TTP    C3533773   1.002   7.570   8.102 -1.0762 -1.4136 -0.4097
    2TTP    C3633774   0.865   7.641   8.090  0.4986  1.5816 -1.3548
    2TTP    C3733775   0.854   7.784   8.091  1.5536 -0.4502 -0.3502
    2TTP    C3833776   0.957   7.865   8.182  0.2811 -0.7452  0.6307
    2TTP    C3933777   1.027   7.980   8.110  0.3446 -0.5685  0.3121
    2TTP    C4033778   1.158   7.931   8.038 -0.0457 -0.2547  1.0116
    2TTP    C4133779   1.226   8.031   7.940  0.6724  0.0621 -0.1087
    2TTP    C4233780   1.270   8.168   8.001  0.3467 -0.0735  0.0681
    3TTP     S133781   0.877   8.361   7.131 -0.3128 -0.7327  0.2572
    3TTP     S533782   1.279   8.414   6.989 -0.3265  0.9441  0.8051
    3TTP     C133783   1.180   8.557   6.936 -0.8180  0.6010  0.7899
    3TTP     C233784   1.050   8.549   6.977 -0.8427  0.0632  0.6200
    3TTP     C333785   1.024   8.429   7.051 -0.4744 -0.0978  0.4954
    3TTP     C433786   0.976   8.218   7.184  0.1787 -0.3896  0.2725
    3TTP    C1733787   1.107   8.226   7.144  0.2034  0.1484  0.4423
    3TTP    C1833788   1.132   8.345   7.069 -0.1650  0.3092  0.5670
    3TTP    C3233789   0.946   8.656   6.942  1.2033  0.5472  1.4205
    3TTP    C3333790   0.937   8.769   7.034  1.7220  0.4664 -0.6365
    3TTP    C3433791   0.811   8.861   7.009  0.5945 -1.0019  0.1916
    3TTP    C3533792   0.677   8.795   6.967 -0.2928  0.9094 -0.3174
    3TTP    C3633793   0.547   8.892   6.967  1.4801  0.5182 -0.3261
    3TTP    C3733794   0.470   8.928   6.842 -0.9829  0.4546 -0.1105
    3TTP    C3833795   0.416   8.800   6.754 -0.3050  0.1555 -0.2416
    3TTP    C3933796   0.297   8.832   6.682  0.4357 -0.3068 -1.4691
    3TTP    C4033797   0.160   8.803   6.766 -0.8727 -0.3567  1.8352
    3TTP    C4133798   0.041   8.855   6.699  0.8268 -0.3929 -1.1541
    3TTP    C4233799  -0.065   8.888   6.803 -0.4990 -0.4529 -0.7491
    4FIC     F133800   2.134   7.262   7.481  0.1182 -0.3459  0.0225
    4FIC     F233801   2.204   7.277   7.744  0.0649 -0.0479  0.0203
    4FIC     O133802   1.611   7.402   7.507  0.0691 -0.4839 -0.2209
    4FIC     N533803   1.933   7.399   8.139 -0.0466  0.2824 -0.1566
    4FIC     N633804   1.510   7.505   8.106 -0.0742  0.1143 -0.3464
    4FIC    C1933805   1.493   7.466   7.767  0.0008 -0.2483 -0.3097
    4FIC    C2033806   1.622   7.430   7.750  0.0153 -0.2251 -0.2482
    4FIC    C2133807   1.675   7.399   7.613  0.0505 -0.3520 -0.2055
    4FIC    C2233808   1.817   7.364   7.631  0.0582 -0.2886 -0.1426
    4FIC    C2333809   1.909   7.327   7.533  0.0880 -0.3631 -0.0876
    4FIC    C2433810   2.038   7.299   7.573  0.0895 -0.2793 -0.0335
    4FIC    C2533811   2.074   7.307   7.709  0.0621 -0.1257 -0.0348
    4FIC    C2633812   1.983   7.343   7.807  0.0323 -0.0505 -0.0895
    4FIC    C2733813   1.852   7.372   7.768  0.0303 -0.1334 -0.1448
    4FIC    C2833814   1.733   7.413   7.846  0.0027 -0.0886 -0.2097
    4FIC    C2933815   1.727   7.432   7.983 -0.0284  0.0528 -0.2304
    4FIC    C3033816   1.840   7.414   8.068 -0.0383  0.1785 -0.1893
    4FIC    C3133817   1.608   7.472   8.050 -0.0534  0.0858 -0.2937
    5FIC     F133818   1.883   8.880   6.663 -0.0165  0.2241  0.2488
    5FIC     F233819   1.739   9.037   6.494 -0.1926 -0.6340 -0.4129
    5FIC     O133820   1.487   8.606   6.910  0.2943  0.7198  1.3111
    5FIC     N533821   1.250   9.068   6.426 -0.2242 -1.5144 -0.6070
    5FIC     N633822   0.969   8.822   6.653  0.0541 -0.9542  0.3564
    5FIC    C1933823   1.208   8.659   6.836  0.2364  0.0760  1.0563
    5FIC    C2033824   1.314   8.721   6.780  0.1651 -0.0150  0.8148
    5FIC    C2133825   1.454   8.689   6.824  0.2010  0.3335  0.9676
    5FIC    C2233826   1.543   8.775   6.744  0.1040  0.1252  0.6305
    5FIC    C2333827   1.682   8.780   6.749  0.0970  0.3183  0.6279
    5FIC    C2433828   1.746   8.869   6.663 -0.0038  0.0548  0.2726
    5FIC    C2533829   1.671   8.950   6.576 -0.0944 -0.3874 -0.0680
    5FIC    C2633830   1.533   8.945   6.571 -0.0880 -0.5820 -0.0675
    5FIC    C2733831   1.467   8.856   6.656  0.0133 -0.3204  0.2896
    5FIC    C2833832   1.323   8.826   6.675  0.0473 -0.4241  0.3893
    5FIC    C2933833   1.218   8.885   6.608 -0.0180 -0.8235  0.1355
    5FIC    C3033834   1.236   8.985   6.508 -0.1311 -1.2021 -0.2718
    5FIC    C3133835   1.082   8.850   6.633  0.0221 -0.8929  0.2586
    1BTD     S233836   8.875   5.493   4.859 -0.2194  0.0332  0.2971
    1BTD     N133837   8.795   5.354   4.939 -0.2263 -0.1923 -0.0963
    1BTD     N233838   8.726   5.548   4.774 -0.2522  0.3703  0.5671
    1BTD     N333839   8.279   5.407   4.746 -0.3309  0.6500  0.4070
    1BTD     N433840   8.364   5.168   4.950 -0.2992 -0.0432 -0.4103
    1BTD     C533841   8.569   5.259   4.942 -0.2644 -0.1061 -0.2505
    1BTD     C633842   8.669   5.355   4.901 -0.2508 -0.0141 -0.0105
    1BTD     C733843   8.630   5.464   4.808 -0.2656  0.3009  0.3607
    1BTD     C833844   8.494   5.472   4.762 -0.2930  0.5078  0.4736
    1BTD    C1533845   8.400   5.376   4.805 -0.3053  0.4078  0.2295
    1BTD    C1633846   8.437   5.271   4.894 -0.2911  0.1044 -0.1281
    1BTD    C4333847   8.241   5.103   4.883  0.2623  0.3735  1.8154
    1BTD    C4433848   8.125   5.009   4.948  1.2604  0.0381  0.7151
    1BTD    C4533849   8.061   5.048   5.081 -0.3399  0.0735  0.8746
    1BTD    C4633850   8.145   5.071   5.208  0.8361 -0.2231  1.2796
    1BTD    C4733851   8.044   4.944   4.835 -0.2520  0.8833 -0.5768
    1BTD    C4833852   7.902   4.914   4.846  1.4246 -1.5188 -0.5476
    1BTD    C4933853   7.800   4.948   4.740  1.0651  0.2907  1.4462
    1BTD    C5033854   7.703   5.069   4.733 -0.0528  0.7304  1.0068
    1BTD    C7533855   8.139   5.375   4.785  0.0619 -0.0710  0.1643
    1BTD    C7633856   8.046   5.452   4.881  0.5253  0.5201  0.1977
    1BTD    C7733857   8.141   5.463   5.002  0.0830  0.1961  0.7986
    1BTD    C7833858   8.097   5.507   5.136  0.0354 -0.3215  0.6787
    1BTD    C7933859   7.938   5.343   4.903  1.6323 -0.4579  1.1749
    1BTD    C8033860   7.788   5.391   4.898  1.1224  0.1428  0.8025
    1BTD    C8133861   7.764   5.541   4.944 -1.4226 -0.3411  0.7789
    1BTD    C8233862   7.643   5.563   5.044 -0.1333 -0.4681 -0.3563
    2TTP     S133863   8.703   5.049   5.116  0.1028 -0.3285  0.3882
    2TTP     S533864   8.348   4.811   5.070  0.0360 -0.1769  0.1147
    2TTP     C133865   8.478   4.707   5.143 -0.1747 -0.1331  0.5617
    2TTP     C233866   8.596   4.775   5.161 -0.1662 -0.1773  0.6727
    2TTP     C333867   8.587   4.911   5.118  0.0062 -0.2475  0.4083
    2TTP     C433868   8.573   5.153   5.043  0.3130 -0.3722 -0.0590
    2TTP    C1733869   8.455   5.086   5.025  0.3048 -0.3281 -0.1699
    2TTP    C1833870   8.464   4.950   5.067  0.1318 -0.2580  0.0945
    2TTP    C3233871   8.737   4.705   5.176  0.0886 -1.2214  0.5701
    2TTP    C3333872   8.835   4.710   5.285 -0.2605  0.4174  0.4372
    2TTP    C3433873   8.876   4.836   5.328 -0.1665 -0.9199 -1.7126
    2TTP    C3533874   8.956   4.865   5.459 -0.2599  0.7405 -0.9322
    2TTP    C3633875   8.902   4.804   5.591 -0.1483  0.0646 -0.7978
    2TTP    C3733876   8.758   4.847   5.604  1.2175  1.0737 -0.4827
    2TTP    C3833877   8.689   4.752   5.709 -0.3806 -1.2403  1.4890
    2TTP    C3933878   8.545   4.797   5.736 -0.4509 -0.8617 -1.3076
    2TTP    C4033879   8.508   4.806   5.898 -0.0573  0.4106 -0.8669
    2TTP    C4133880   8.527   4.686   5.986 -1.1905 -0.5617 -0.9029
    2TTP    C4233881   8.394   4.676   6.069  0.4085  0.8818  0.2600
    3TTP     S133882   8.453   5.724   4.603 -0.2005 -0.0795  0.3886
    3TTP     S533883   8.031   5.645   4.606 -0.1452 -0.3675  0.6070
    3TTP     C133884   8.058   5.813   4.543 -0.3120 -0.2356  0.8839
    3TTP     C233885   8.190   5.848   4.538 -0.3388 -0.1390  0.8326
    3TTP     C333886   8.274   5.742   4.584 -0.2291 -0.1655  0.5730
    3TTP     C433887   8.426   5.555   4.666 -0.0339 -0.2112  0.1115
    3TTP    C1733888   8.294   5.521   4.670 -0.0070 -0.3079  0.1630
    3TTP    C1833889   8.210   5.626   4.624 -0.1173 -0.2813  0.4226
    3TTP    C3233890   8.254   5.982   4.498 -1.2271 -0.1860 -0.6488
    3TTP    C3333891   8.328   6.047   4.624 -0.9759  0.7069  0.7908
    3TTP    C3433892   8.450   6.139   4.568  1.4939  0.5386 -0.8040
    3TTP    C3533893   8.417   6.271   4.499  1.3364  0.3230  0.4880
    3TTP    C3633894   8.395   6.378   4.613 -0.3114  1.0258  0.3758
    3TTP    C3733895   8.524   6.420   4.680 -1.4641  0.8097 -1.4070
    3TTP    C3833896   8.629   6.481   4.591 -1.2287  0.1518 -1.2937
    3TTP    C3933897   8.585   6.608   4.535 -0.3602 -1.0581  1.6235
    3TTP    C4033898   8.553   6.732   4.618  0.5027 -0.6360 -0.5417
    3TTP    C4133899   8.677   6.780   4.678 -0.2996 -0.1039 -1.9129
    3TTP    C4233900   8.696   6.929   4.665  0.5913 -0.3279 -0.1615
    4FIC     F133901   7.909   4.354   5.625 -0.0405 -0.0384  0.0026
    4FIC     F233902   8.016   4.111   5.563  0.2668 -0.0396  0.5298
    4FIC     O133903   8.245   4.684   5.358 -0.4120 -0.1838 -0.6497
    4FIC     N533904   8.409   3.998   5.285  0.4444 -0.1453  0.8225
    4FIC     N633905   8.650   4.305   5.089  0.0923 -0.2587  0.2066
    4FIC    C1933906   8.467   4.570   5.204 -0.2501 -0.2368 -0.3781
    4FIC    C2033907   8.378   4.496   5.274 -0.1688 -0.2003 -0.2345
    4FIC    C2133908   8.267   4.562   5.350 -0.2606 -0.1749 -0.3891
    4FIC    C2233909   8.190   4.454   5.414 -0.1357 -0.1370 -0.1708
    4FIC    C2333910   8.077   4.466   5.495 -0.1616 -0.1042 -0.2118
    4FIC    C2433911   8.021   4.349   5.544 -0.0239 -0.0721  0.0278
    4FIC    C2533912   8.076   4.224   5.512  0.1344 -0.0726  0.2992
    4FIC    C2633913   8.188   4.211   5.431  0.1612 -0.1053  0.3417
    4FIC    C2733914   8.247   4.329   5.381  0.0234 -0.1383  0.1014
    4FIC    C2833915   8.365   4.349   5.294  0.0093 -0.1771  0.0732
    4FIC    C2933916   8.446   4.252   5.241  0.1369 -0.1893  0.2908
    4FIC    C3033917   8.425   4.112   5.265  0.3054 -0.1650  0.5825
    4FIC    C3133918   8.558   4.281   5.157  0.1116 -0.2275  0.2431
    5FIC     F133919   7.264   5.703   4.402  0.5015 -0.3799 -0.6181
    5FIC     F233920   7.222   5.966   4.460  0.1541 -0.5852  0.0852
    5FIC     O133921   7.802   5.672   4.453  0.5724  0.2520 -0.9623
    5FIC     N533922   7.545   6.321   4.579 -0.2947 -0.4300  0.8516
    5FIC     N633923   7.974   6.244   4.607 -0.1693  0.1051  0.4411
    5FIC    C1933924   7.953   5.912   4.526  0.2657  0.2802 -0.4123
    5FIC    C2033925   7.820   5.910   4.511  0.2614  0.1293 -0.3532
    5FIC    C2133926   7.749   5.783   4.473  0.4246  0.1251 -0.6496
    5FIC    C2233927   7.605   5.815   4.465  0.3741 -0.0579 -0.4950
    5FIC    C2333928   7.501   5.729   4.433  0.4809 -0.1260 -0.6670
    5FIC    C2433929   7.373   5.783   4.432  0.4034 -0.3039 -0.4650
    5FIC    C2533930   7.351   5.918   4.462  0.2245 -0.4095 -0.1025
    5FIC    C2633931   7.455   6.004   4.494  0.1168 -0.3424  0.0707
    5FIC    C2733932   7.586   5.952   4.496  0.1934 -0.1625 -0.1293
    5FIC    C2833933   7.716   6.015   4.525  0.1169 -0.0515 -0.0278
    5FIC    C2933934   7.737   6.147   4.558 -0.0550 -0.1063  0.3043
    5FIC    C3033935   7.632   6.242   4.570 -0.1861 -0.2842  0.6042
    5FIC    C3133936   7.867   6.200   4.585 -0.1168  0.0103  0.3775
    1BTD     S233937  10.027   0.177   3.717  0.2040 -0.6936 -0.8334
    1BTD     N133938  10.019   0.355   3.735  0.4189 -0.7022 -0.6319
    1BTD     N233939   9.900   0.169   3.590 -0.0842 -0.4372 -0.5676
    1BTD     N333940   9.628   0.475   3.361 -0.2825  0.0698  0.3383
    1BTD     N433941   9.773   0.705   3.540  0.3376 -0.2567  0.2589
    1BTD     C533942   9.889   0.535   3.631  0.3688 -0.4657 -0.1658
    1BTD     C633943   9.927   0.398   3.649  0.2725 -0.5228 -0.3894
    1BTD     C733944   9.861   0.293   3.568 -0.0091 -0.3745 -0.3533
    1BTD     C833945   9.760   0.331   3.473 -0.1802 -0.1764 -0.0955
    1BTD    C1533946   9.726   0.467   3.458 -0.0774 -0.1272  0.1175
    1BTD    C1633947   9.790   0.568   3.536  0.1942 -0.2701  0.0828
    1BTD    C4333948   9.671   0.784   3.475  0.1359 -1.6252 -1.9421
    1BTD    C4433949   9.544   0.821   3.552  0.4393 -0.7778  0.2676
    1BTD    C4533950   9.465   0.934   3.483  0.7120  0.1577  0.4873
    1BTD    C4633951   9.508   1.064   3.464 -0.1780 -0.0089  1.0278
    1BTD    C4733952   9.445   0.711   3.598 -1.6940 -0.0611 -0.1288
    1BTD    C4833953   9.508   0.583   3.680 -0.1689 -0.3504 -0.5648
    1BTD    C4933954   9.409   0.498   3.779 -1.7551 -2.1791  1.9117
    1BTD    C5033955   9.357   0.587   3.892  1.2079  0.0680  0.9448
    1BTD    C7533956   9.634   0.568   3.249  0.2399  0.6148  1.0160
    1BTD    C7633957   9.697   0.554   3.102  0.0796 -0.2286  1.9506
    1BTD    C7733958   9.731   0.682   3.011  0.5084  0.2948 -0.7544
    1BTD    C7833959   9.861   0.771   3.049  1.9112  0.8069 -0.3344
    1BTD    C7933960   9.635   0.446   3.007 -1.3257 -0.6762 -0.1441
    1BTD    C8033961   9.711   0.409   2.877  0.6336 -0.2945 -1.0937
    1BTD    C8133962   9.619   0.384   2.766 -0.1426  0.7115 -0.6652
    1BTD    C8233963   9.692   0.277   2.687  0.4607 -0.4643 -0.0648
    2TTP     S133964  10.065   0.712   3.798 -0.2930 -0.4674  0.1932
    2TTP     S533965   9.898   1.060   3.608  1.1537 -0.0240 -0.2956
    2TTP     C133966  10.033   1.113   3.717  0.9593 -0.3750  0.1251
    2TTP     C233967  10.093   1.009   3.782  0.5009 -0.5326  0.3008
    2TTP     C333968  10.034   0.883   3.749  0.2868 -0.3819  0.1096
    2TTP     C433969   9.929   0.659   3.690 -0.0987 -0.1164 -0.2275
    2TTP    C1733970   9.869   0.763   3.625  0.3595  0.0413 -0.4033
    2TTP    C1833971   9.929   0.889   3.658  0.5736 -0.1095 -0.2120
    2TTP    C3233972  10.232   1.018   3.855  0.2812 -0.0246  0.2533
    2TTP    C3333973  10.272   0.892   3.930 -0.5700  1.2519 -0.6193
    2TTP    C3433974  10.411   0.867   3.975 -0.6306  0.4851 -0.1843
    2TTP    C3533975  10.458   0.718   4.005 -0.9243 -0.4655 -0.1834
    2TTP    C3633976  10.401   0.638   4.123 -0.3248 -0.1054 -0.0815
    2TTP    C3733977  10.437   0.491   4.116 -0.5605  0.5775  1.3204
    2TTP    C3833978  10.577   0.459   4.140 -0.9388  0.7270 -0.3120
    2TTP    C3933979  10.631   0.330   4.101  0.6208  1.3370 -0.0557
    2TTP    C4033980  10.685   0.259   4.229  0.5075  0.8126 -0.2145
    2TTP    C4133981  10.592   0.219   4.342  0.6230 -0.2327  0.4023
    2TTP    C4233982  10.440   0.168   4.354 -0.5121  1.1958  0.3004
    3TTP     S133983   9.640   0.084   3.349 -0.0647 -0.1899 -0.4608
    3TTP     S533984   9.358   0.334   3.141  0.3467 -0.0689 -0.8783
    3TTP     C133985   9.318   0.160   3.106  0.2403 -0.0555 -0.8257
    3TTP     C233986   9.403   0.073   3.168  0.1070 -0.0921 -0.6936
    3TTP     C333987   9.502   0.140   3.246  0.0842 -0.1320 -0.6292
    3TTP     C433988   9.679   0.258   3.384  0.0412 -0.2034 -0.5133
    3TTP    C1733989   9.595   0.346   3.322  0.1748 -0.1668 -0.6455
    3TTP    C1833990   9.495   0.278   3.244  0.1979 -0.1268 -0.7098
    3TTP    C3233991   9.403  -0.090   3.177  0.6260 -0.3429  0.2105
    3TTP    C3333992   9.301  -0.132   3.282  1.4195  0.6376  1.2179
    3TTP    C3433993   9.323  -0.139   3.421 -0.6002 -0.9265  0.9615
    3TTP    C3533994   9.207  -0.183   3.526  0.2584 -0.9678 -0.3829
    3TTP    C3633995   9.172  -0.324   3.506  1.7379 -0.8521  0.0758
    3TTP    C3733996   9.235  -0.422   3.613 -0.3270  0.3129 -0.2374
    3TTP    C3833997   9.199  -0.569   3.620  0.7237 -0.4810 -0.5873
    3TTP    C3933998   9.100  -0.623   3.504  0.3376  1.0618 -0.4428
    3TTP    C4033999   9.059  -0.760   3.540  0.2686 -0.4117 -0.2147
    3TTP    C4134000   9.008  -0.836   3.415  0.2807 -0.7127 -0.0299
    3TTP    C4234001   8.956  -0.972   3.434 -0.6626  0.5152 -0.0199
    4FIC     F134002   9.764   1.866   3.479  0.2966  0.3190 -0.2515
    4FIC     F234003  10.002   1.969   3.562  0.5956 -0.0270 -0.6678
    4FIC     O134004   9.823   1.346   3.619 -0.4787  0.3553  0.2247
    4FIC     N534005  10.386   1.747   3.781  0.4721 -0.4985 -0.9270
    4FIC     N634006  10.384   1.320   3.874 -0.1941 -0.4004 -0.4712
    4FIC    C1934007  10.071   1.260   3.748 -0.4689  0.0376 -0.0040
    4FIC    C2034008  10.047   1.387   3.710 -0.2856  0.0420 -0.1075
    4FIC    C2134009   9.917   1.424   3.644 -0.3042  0.2104  0.0213
    4FIC    C2234010   9.924   1.568   3.615 -0.0751  0.1689 -0.1408
    4FIC    C2334011   9.827   1.647   3.555 -0.0079  0.2830 -0.0996
    4FIC    C2434012   9.856   1.782   3.538  0.2191  0.2134 -0.2802
    4FIC    C2534013   9.978   1.835   3.581  0.3720  0.0352 -0.4945
    4FIC    C2634014  10.076   1.756   3.642  0.3064 -0.0794 -0.5368
    4FIC    C2734015  10.048   1.620   3.659  0.0780 -0.0114 -0.3561
    4FIC    C2834016  10.129   1.511   3.719 -0.0455 -0.0965 -0.3441
    4FIC    C2934017  10.255   1.522   3.772  0.0455 -0.2704 -0.5192
    4FIC    C3034018  10.327   1.646   3.777  0.2797 -0.3952 -0.7427
    4FIC    C3134019  10.325   1.411   3.828 -0.0868 -0.3409 -0.4917
    5FIC     F134020   8.812   0.466   2.540  0.1891  0.0088  0.1237
    5FIC     F234021   8.745   0.211   2.472  0.2139  0.0280  0.0263
    5FIC     O134022   9.165   0.376   2.941  0.0877 -0.1064  0.1872
    5FIC     N534023   8.900  -0.220   2.660  0.1774 -0.0265 -0.0684
    5FIC     N634024   9.189  -0.239   2.987  0.0930 -0.1204  0.0009
    5FIC    C1934025   9.226   0.100   3.019  0.0755 -0.1289  0.1168
    5FIC    C2034026   9.140   0.133   2.920  0.1001 -0.1007  0.1045
    5FIC    C2134027   9.113   0.277   2.886  0.1047 -0.0908  0.1428
    5FIC    C2234028   9.016   0.277   2.776  0.1333 -0.0591  0.1174
    5FIC    C2334029   8.961   0.387   2.711  0.1471 -0.0402  0.1376
    5FIC    C2434030   8.870   0.362   2.609  0.1743 -0.0110  0.1060
    5FIC    C2534031   8.836   0.230   2.574  0.1872 -0.0012  0.0560
    5FIC    C2634032   8.890   0.120   2.639  0.1731 -0.0199  0.0355
    5FIC    C2734033   8.982   0.143   2.742  0.1457 -0.0495  0.0668
    5FIC    C2834034   9.057   0.050   2.830  0.1256 -0.0747  0.0569
    5FIC    C2934035   9.051  -0.088   2.827  0.1304 -0.0741  0.0123
    5FIC    C3034036   8.968  -0.160   2.735  0.1559 -0.0477 -0.0318
    5FIC    C3134037   9.127  -0.170   2.915  0.1097 -0.0994  0.0062
    1BTD     S234038   2.251  10.558   3.270 -0.0305 -0.7830  0.3460
    1BTD     N134039   2.076  10.518   3.265  0.2672 -2.0964 -1.0751
    1BTD     N234040   2.243  10.675   3.133 -0.1026  0.7331  1.5846
    1BTD     N334041   1.912  10.840   2.845  0.2877  1.4522  1.5426
    1BTD     N434042   1.705  10.647   3.007  0.7434 -2.0342 -1.7347
    1BTD     C534043   1.885  10.588   3.128  0.5103 -2.0218 -1.3800
    1BTD     C634044   2.023  10.590   3.166  0.2959 -1.3742 -0.5789
    1BTD     C734045   2.117  10.678   3.093  0.0889  0.2096  0.9100
    1BTD     C834046   2.068  10.759   2.984  0.1066  1.0667  1.5231
    1BTD    C1534047   1.931  10.753   2.951  0.3202  0.3857  0.6987
    1BTD    C1634048   1.841  10.669   3.022  0.5196 -1.1401 -0.7358
    1BTD    C4334049   1.613  10.692   2.900  0.8665  0.4288 -0.4210
    1BTD    C4434050   1.464  10.700   2.903  1.6223  0.7562  0.6780
    1BTD    C4534051   1.387  10.738   2.778  0.6381 -0.6144 -0.2357
    1BTD    C4634052   1.245  10.711   2.760 -0.4096 -0.8436  0.0327
    1BTD    C4734053   1.401  10.748   3.047  0.9746 -0.4338  0.3347
    1BTD    C4834054   1.260  10.721   3.082  0.0669  0.8059  0.2045
    1BTD    C4934055   1.212  10.795   3.191  0.5817  0.6590  1.1667
    1BTD    C5034056   1.064  10.747   3.222 -0.8222 -0.4269  0.2783
    1BTD    C7534057   1.817  10.951   2.827  1.6716  0.3527  0.5026
    1BTD    C7634058   1.765  10.968   2.673  0.4409 -0.5558 -0.3118
    1BTD    C7734059   1.671  11.083   2.664 -1.8628 -1.1975  0.1574
    1BTD    C7834060   1.531  11.075   2.708  1.2166  0.1110 -0.3361
    1BTD    C7934061   1.722  10.847   2.591 -2.2186  0.6434 -1.7775
    1BTD    C8034062   1.727  10.851   2.452 -0.6444 -0.6830  0.4377
    1BTD    C8134063   1.824  10.763   2.384 -0.4939  0.9703  1.3727
    1BTD    C8234064   1.875  10.639   2.451  0.6005  0.4848  0.0930
    2TTP     S134065   1.757  10.355   3.267  0.1436  0.0376 -0.2951
    2TTP     S534066   1.413  10.405   3.015 -0.5188 -0.0675  0.5805
    2TTP     C134067   1.396  10.248   3.105 -0.0380 -0.2769  0.3122
    2TTP     C234068   1.501  10.223   3.188  0.1949 -0.2570  0.0259
    2TTP     C334069   1.599  10.327   3.184  0.0020 -0.0753  0.0082
    2TTP     C434070   1.774  10.512   3.177 -0.3372  0.2470 -0.0269
    2TTP    C1734071   1.669  10.537   3.093 -0.5701  0.2275  0.2594
    2TTP    C1834072   1.571  10.433   3.098 -0.3772  0.0455  0.2772
    2TTP    C3234073   1.518  10.103   3.263  0.0539  0.4497  0.3259
    2TTP    C3334074   1.594  10.090   3.396 -0.5528  0.5654 -0.6118
    2TTP    C3434075   1.684   9.970   3.363 -0.4758 -1.4796  0.3089
    2TTP    C3534076   1.766   9.923   3.479  0.6409  0.2656  0.5072
    2TTP    C3634077   1.700   9.816   3.571 -0.5906 -0.2368 -0.5677
    2TTP    C3734078   1.552   9.833   3.613 -0.3137 -1.5342 -0.1641
    2TTP    C3834079   1.452   9.745   3.697  1.8966  0.3500 -0.7098
    2TTP    C3934080   1.447   9.590   3.717  0.8935  0.8086 -0.7116
    2TTP    C4034081   1.535   9.505   3.793 -0.6260  0.4918  0.4535
    2TTP    C4134082   1.481   9.366   3.794  0.0525  1.7904  0.4516
    2TTP    C4234083   1.513   9.298   3.936 -0.5263 -1.6950 -0.6169
    3TTP     S134084   2.299  10.872   2.830  0.0139 -0.0942  0.3313
    3TTP     S534085   2.026  11.060   2.556 -0.1863 -0.2837  0.4004
    3TTP     C134086   2.196  11.098   2.504 -0.2273  0.1898  0.6036
    3TTP     C234087   2.290  11.043   2.585 -0.1680  0.2761  0.5942
    3TTP     C334088   2.232  10.967   2.692 -0.0878 -0.0286  0.4262
    3TTP     C434089   2.129  10.834   2.882  0.0549 -0.5679  0.1282
    3TTP    C1734090   2.035  10.890   2.801 -0.0045 -0.6542  0.1376
    3TTP    C1834091   2.093  10.965   2.694 -0.0845 -0.3493  0.3055
    3TTP    C3234092   2.446  11.046   2.590  0.3426 -0.2887  0.5953
    3TTP    C3334093   2.534  10.925   2.591  0.3078  1.3069 -0.7461
    3TTP    C3434094   2.659  10.967   2.654 -0.5762 -0.8305  1.5288
    3TTP    C3534095   2.665  10.910   2.790 -0.1845  1.0596 -0.7879
    3TTP    C3634096   2.754  10.964   2.897 -0.8108 -0.8114  1.2361
    3TTP    C3734097   2.858  10.875   2.955 -0.0574 -0.4965  0.1395
    3TTP    C3834098   2.911  10.911   3.092 -0.1068 -1.1740 -0.3167
    3TTP    C3934099   2.994  10.812   3.176  0.6906  0.4001  0.5131
    3TTP    C4034100   2.933  10.681   3.220 -0.4751  0.3228 -0.1501
    3TTP    C4134101   3.023  10.582   3.283 -0.1154 -0.9791 -0.5192
    3TTP    C4234102   3.146  10.537   3.206 -0.0475  0.1105  0.1008
    4FIC     F134103   0.747  10.139   2.619  0.1662 -0.1709 -0.1507
    4FIC     F234104   0.754   9.873   2.677 -0.0440 -0.0994  0.2095
    4FIC     O134105   1.155  10.321   2.924  0.2448 -0.0632 -0.3193
    4FIC     N534106   1.055   9.621   2.978 -0.2902  0.0803  0.6070
    4FIC     N634107   1.372   9.817   3.206 -0.1864  0.1502  0.4026
    4FIC    C1934108   1.306  10.132   3.089  0.0719  0.0435 -0.0352
    4FIC    C2034109   1.204  10.097   3.009  0.0603  0.0136 -0.0068
    4FIC    C2134110   1.131  10.200   2.928  0.1530 -0.0408 -0.1598
    4FIC    C2234111   1.025  10.128   2.854  0.1131 -0.0622 -0.0826
    4FIC    C2334112   0.932  10.181   2.765  0.1699 -0.1113 -0.1723
    4FIC    C2434113   0.842  10.093   2.707  0.1149 -0.1225 -0.0706
    4FIC    C2534114   0.846   9.956   2.737  0.0066 -0.0861  0.1150
    4FIC    C2634115   0.939   9.902   2.826 -0.0505 -0.0365  0.2053
    4FIC    C2734116   1.031   9.990   2.885  0.0038 -0.0243  0.1045
    4FIC    C2834117   1.140   9.965   2.982 -0.0330  0.0234  0.1585
    4FIC    C2934118   1.176   9.844   3.036 -0.1341  0.0687  0.3292
    4FIC    C3034119   1.110   9.722   3.004 -0.2196  0.0749  0.4813
    4FIC    C3134120   1.284   9.830   3.129 -0.1623  0.1132  0.3685
    5FIC     F134121   1.809  11.748   2.189 -0.3937 -0.1146 -0.0415
    5FIC     F234122   2.018  11.786   2.019 -0.1207  0.0485  0.3272
    5FIC     O134123   1.987  11.327   2.478 -0.7285 -0.2032  0.0362
    5FIC     N534124   2.446  11.539   1.980  0.0330  0.2198  0.9124
    5FIC     N634125   2.543  11.202   2.241 -0.2836  0.1177  0.8987
    5FIC    C1934126   2.250  11.213   2.418 -0.5866 -0.0788  0.4158
    5FIC    C2034127   2.197  11.317   2.352 -0.5131 -0.0629  0.3819
    5FIC    C2134128   2.061  11.370   2.389 -0.5937 -0.1301  0.1827
    5FIC    C2234129   2.035  11.483   2.298 -0.4815 -0.0920  0.1967
    5FIC    C2334130   1.921  11.564   2.294 -0.5034 -0.1299  0.0492
    5FIC    C2434131   1.918  11.665   2.199 -0.3800 -0.0811  0.0974
    5FIC    C2534132   2.026  11.684   2.111 -0.2395  0.0029  0.2873
    5FIC    C2634133   2.140  11.604   2.115 -0.2168  0.0411  0.4352
    5FIC    C2734134   2.144  11.501   2.210 -0.3405 -0.0073  0.3893
    5FIC    C2834135   2.249  11.400   2.240 -0.3543  0.0139  0.5106
    5FIC    C2934136   2.369  11.386   2.176 -0.2413  0.0902  0.7051
    5FIC    C3034137   2.411  11.470   2.069 -0.0908  0.1612  0.8184
    5FIC    C3134138   2.464  11.285   2.212 -0.2652  0.1049  0.8105
    1BTD     S234139   4.233   3.745   6.458 -0.4110  0.2576 -0.0069
    1BTD     N134140   4.350   3.769   6.593  0.1671 -1.0110 -0.2561
    1BTD     N234141   4.099   3.691   6.564 -0.7582  1.6005  0.2693
    1BTD     N334142   4.035   3.624   7.025 -0.4224  2.0462  0.3821
    1BTD     N434143   4.345   3.720   7.060  0.7176 -1.1716 -0.2654
    1BTD     C534144   4.344   3.742   6.836  0.4407 -1.0561 -0.2531
    1BTD     C634145   4.286   3.737   6.704  0.0759 -0.3999 -0.1273
    1BTD     C734146   4.145   3.694   6.688 -0.4419  1.0619  0.1668
    1BTD     C834147   4.069   3.658   6.805 -0.5692  1.7943  0.3202
    1BTD    C1534148   4.130   3.664   6.932 -0.1998  1.1100  0.1885
    1BTD    C1634149   4.265   3.706   6.947  0.2992 -0.2985 -0.0949
    1BTD    C4334150   4.328   3.661   7.188  0.0124 -0.7112 -0.5901
    1BTD    C4434151   4.410   3.536   7.233  0.5973  0.0543 -1.2038
    1BTD    C4534152   4.573   3.556   7.247  0.5400  0.4401  0.2388
    1BTD    C4634153   4.645   3.436   7.312  0.6779 -0.4245 -0.2342
    1BTD    C4734154   4.366   3.414   7.140  1.3098 -0.5974  1.1585
    1BTD    C4834155   4.205   3.385   7.141 -1.0375 -0.4539 -0.9947
    1BTD    C4934156   4.175   3.274   7.239  0.0186 -0.5851 -2.0085
    1BTD    C5034157   4.099   3.158   7.211  0.1609  0.5826  0.3476
    1BTD    C7534158   4.007   3.681   7.158  1.4499  0.0294 -0.2002
    1BTD    C7634159   3.899   3.662   7.267  0.4445  0.6668  0.9297
    1BTD    C7734160   3.786   3.765   7.298 -1.1847 -1.3919  1.4022
    1BTD    C7834161   3.685   3.741   7.196 -0.3644 -0.8324  0.0168
    1BTD    C7934162   3.961   3.621   7.400 -0.8738  0.0165  1.4374
    1BTD    C8034163   4.056   3.722   7.463  0.2755 -0.5660 -0.3727
    1BTD    C8134164   4.095   3.675   7.597  0.5263 -0.0952  0.6050
    1BTD    C8234165   4.134   3.799   7.677  0.5510  0.7597 -0.7495
    2TTP     S134166   4.627   3.828   6.818 -0.7033 -0.1736  0.2315
    2TTP     S534167   4.604   3.914   7.239 -0.2325  0.0993  0.2030
    2TTP     C134168   4.760   3.982   7.174 -0.7023  0.8309 -0.1953
    2TTP     C234169   4.777   3.959   7.041 -0.8755  0.7897 -0.2098
    2TTP     C334170   4.667   3.888   6.984 -0.6431  0.1789  0.0930
    2TTP     C434171   4.471   3.761   6.882 -0.2334 -0.9052  0.6297
    2TTP    C1734172   4.455   3.783   7.016 -0.0602 -0.8641  0.6444
    2TTP    C1834173   4.565   3.855   7.073 -0.2925 -0.2532  0.3417
    2TTP    C3234174   4.911   3.970   6.952  0.2477 -1.1109 -0.0740
    2TTP    C3334175   4.973   3.857   6.869 -0.5174  0.2754  1.0877
    2TTP    C3434176   4.962   3.715   6.923 -0.7154  0.2307 -0.8052
    2TTP    C3534177   5.099   3.670   6.997 -0.2101 -0.2013  0.6725
    2TTP    C3634178   5.170   3.761   7.093 -1.1437 -0.6796  0.4591
    2TTP    C3734179   5.243   3.692   7.209 -0.3109 -0.7652 -0.0307
    2TTP    C3834180   5.266   3.804   7.320  0.0317 -0.2717  0.7197
    2TTP    C3934181   5.379   3.805   7.425  0.0474  1.2876 -0.3378
    2TTP    C4034182   5.371   3.819   7.573  1.4654  1.3090 -0.3469
    2TTP    C4134183   5.495   3.883   7.628 -1.3554  0.7469  0.5260
    2TTP    C4234184   5.483   3.844   7.770  0.6266 -0.5285  1.4033
    3TTP     S134185   3.832   3.515   6.710  0.2433 -0.4175 -0.0569
    3TTP     S534186   3.786   3.356   7.107 -0.1536  0.6443  0.3314
    3TTP     C134187   3.679   3.262   6.994 -0.0624  0.3596  0.4794
    3TTP     C234188   3.687   3.306   6.865  0.0656  0.0149  0.3679
    3TTP     C334189   3.778   3.415   6.850  0.0962 -0.0368  0.1622
    3TTP     C434190   3.940   3.609   6.823  0.1520 -0.1328 -0.2047
    3TTP    C1734191   3.932   3.565   6.953  0.0241  0.2118 -0.0935
    3TTP    C1834192   3.841   3.456   6.967 -0.0065  0.2635  0.1125
    3TTP    C3234193   3.617   3.267   6.734  0.2050  0.0058 -0.3828
    3TTP    C3334194   3.481   3.313   6.718  1.2288 -1.4904  0.5774
    3TTP    C3434195   3.410   3.282   6.590 -0.0547 -0.1757  0.5977
    3TTP    C3534196   3.478   3.333   6.449 -2.0740  0.1217  0.0670
    3TTP    C3634197   3.385   3.398   6.367 -1.3794  0.7982  1.2291
    3TTP    C3734198   3.470   3.469   6.258 -1.5014  0.2097  1.1284
    3TTP    C3834199   3.398   3.579   6.152 -0.7764  0.6346 -0.1337
    3TTP    C3934200   3.271   3.529   6.076 -0.6746  0.6079  0.7598
    3TTP    C4034201   3.210   3.627   5.972 -0.3819  1.4271 -0.5722
    3TTP    C4134202   3.289   3.680   5.850 -0.5720  0.6291  1.5459
    3TTP    C4234203   3.300   3.823   5.862 -0.4400 -0.7415  0.0889
    4FIC     F134204   5.009   3.822   7.943 -0.1280  0.4088 -0.0508
    4FIC     F234205   5.195   4.018   7.918  0.5469 -0.2457 -0.2280
    4FIC     O134206   4.780   3.836   7.452 -0.4560  1.1157  0.1197
    4FIC     N534207   5.301   4.310   7.533  1.2835 -0.6828 -0.3617
    4FIC     N634208   5.085   4.282   7.155  0.8913  0.0014 -0.1930
    4FIC    C1934209   4.878   4.028   7.254  0.0723  0.7414  0.0104
    4FIC    C2034210   4.928   4.017   7.379  0.1284  0.5893 -0.0252
    4FIC    C2134211   4.872   3.916   7.475 -0.1563  0.7991  0.0352
    4FIC    C2234212   4.949   3.930   7.600 -0.0086  0.5547 -0.0254
    4FIC    C2334213   4.934   3.858   7.718 -0.1740  0.6287 -0.0006
    4FIC    C2434214   5.018   3.889   7.823  0.0193  0.3542 -0.0703
    4FIC    C2534215   5.114   3.991   7.811  0.3671  0.0174 -0.1617
    4FIC    C2634216   5.130   4.063   7.693  0.5338 -0.0583 -0.1868
    4FIC    C2734217   5.046   4.033   7.585  0.3424  0.2161 -0.1173
    4FIC    C2834218   5.036   4.090   7.449  0.4402  0.2239 -0.1209
    4FIC    C2934219   5.114   4.192   7.397  0.7592 -0.0545 -0.1979
    4FIC    C3034220   5.216   4.257   7.472  1.0465 -0.3990 -0.2877
    4FIC    C3134221   5.098   4.241   7.264  0.8302 -0.0219 -0.1948
    5FIC     F134222   3.560   2.877   7.698 -0.3115  0.6511  0.1378
    5FIC     F234223   3.314   2.802   7.610 -0.3306  0.5526  0.2743
    5FIC     O134224   3.746   3.143   7.265 -0.4541  0.2809 -0.1525
    5FIC     N534225   3.093   2.882   7.174 -0.4597  0.1471  0.2636
    5FIC     N634226   3.289   3.105   6.854 -0.5674 -0.1223  0.0093
    5FIC    C1934227   3.578   3.165   7.027 -0.5231  0.0552 -0.1252
    5FIC    C2034228   3.540   3.102   7.139 -0.4865  0.1523 -0.0575
    5FIC    C2134229   3.633   3.094   7.258 -0.4525  0.2651 -0.0769
    5FIC    C2234230   3.561   3.018   7.362 -0.4172  0.3521  0.0112
    5FIC    C2334231   3.607   2.986   7.489 -0.3788  0.4692  0.0277
    5FIC    C2434232   3.521   2.913   7.571 -0.3502  0.5347  0.1168
    5FIC    C2534233   3.395   2.874   7.525 -0.3601  0.4837  0.1871
    5FIC    C2634234   3.349   2.906   7.398 -0.3985  0.3668  0.1712
    5FIC    C2734235   3.434   2.980   7.314 -0.4277  0.2992  0.0812
    5FIC    C2834236   3.416   3.029   7.175 -0.4707  0.1744  0.0418
    5FIC    C2934237   3.305   3.012   7.096 -0.4918  0.0947  0.0886
    5FIC    C3034238   3.189   2.941   7.139 -0.4740  0.1238  0.1845
    5FIC    C3134239   3.297   3.063   6.963 -0.5332 -0.0242  0.0447
    1BTD     S234240   1.030   8.676   4.297  0.0303  0.2148 -0.1208
    1BTD     N134241   0.860   8.621   4.277  0.1959 -0.2475 -0.2782
    1BTD     N234242   1.014   8.709   4.473 -0.2984  0.4325 -0.1905
    1BTD     N334243   0.674   8.678   4.795 -0.6696  0.0415 -0.6170
    1BTD     N434244   0.484   8.569   4.554 -0.0605 -0.7963 -0.7254
    1BTD     C534245   0.666   8.595   4.424  0.0547 -0.5240 -0.5103
    1BTD     C634246   0.803   8.630   4.396  0.0073 -0.2174 -0.3700
    1BTD     C734247   0.889   8.679   4.506 -0.2694  0.1633 -0.3209
    1BTD     C834248   0.834   8.692   4.638 -0.4849  0.2182 -0.4146
    1BTD    C1534249   0.699   8.657   4.661 -0.4290 -0.0903 -0.5512
    1BTD    C1634250   0.617   8.609   4.555 -0.1624 -0.4573 -0.5984
    1BTD    C4334251   0.407   8.514   4.665  0.6515 -0.2956  0.7337
    1BTD    C4434252   0.451   8.369   4.714  2.3272  0.0927  0.7975
    1BTD    C4534253   0.557   8.292   4.637 -0.2383 -0.0178 -0.8586
    1BTD    C4634254   0.576   8.145   4.670  0.1174 -0.6304  0.3529
    1BTD    C4734255   0.329   8.286   4.788 -0.5229  0.4591 -0.1079
    1BTD    C4834256   0.207   8.241   4.704 -0.1402 -0.3188 -0.1754
    1BTD    C4934257   0.096   8.204   4.804  0.3191  0.9067  0.4297
    1BTD    C5034258  -0.038   8.255   4.762  0.3538  0.7821 -0.8670
    1BTD    C7534259   0.547   8.752   4.835 -0.2306  0.8002  0.2924
    1BTD    C7634260   0.503   8.807   4.962 -0.6195  0.8491  1.0204
    1BTD    C7734261   0.422   8.706   5.052 -0.2176 -0.3379  0.3826
    1BTD    C7834262   0.492   8.588   5.093 -0.8767 -0.4406  0.5854
    1BTD    C7934263   0.429   8.935   4.930  0.0773  0.3978  0.3874
    1BTD    C8034264   0.333   9.008   5.022 -0.1189 -0.4233  0.1258
    1BTD    C8134265   0.315   9.149   4.988 -0.1965 -0.9964 -0.0500
    1BTD    C8234266   0.270   9.189   4.859 -0.3233  0.7858  1.2201
    2TTP     S134267   0.517   8.533   4.164 -0.4955  0.8382 -0.5785
    2TTP     S534268   0.150   8.499   4.386 -0.2902  0.2265 -0.3265
    2TTP     C134269   0.115   8.471   4.209 -0.3636  0.1675 -0.3021
    2TTP     C234270   0.226   8.479   4.131 -0.4313  0.3529 -0.3784
    2TTP     C334271   0.343   8.509   4.206 -0.4277  0.5484 -0.4591
    2TTP     C434272   0.553   8.561   4.340 -0.4221  0.8969 -0.6030
    2TTP    C1734273   0.442   8.553   4.419 -0.3543  0.7117 -0.5266
    2TTP    C1834274   0.324   8.523   4.343 -0.3580  0.5162 -0.4461
    2TTP    C3234275   0.231   8.423   3.988  0.0860 -0.7416  0.0197
    2TTP    C3334276   0.306   8.311   3.929 -1.9882  0.9641 -0.4671
    2TTP    C3434277   0.307   8.359   3.787 -0.3937  0.5424  1.4097
    2TTP    C3534278   0.420   8.300   3.699  0.0030 -0.5343  0.5034
    2TTP    C3634279   0.554   8.355   3.714 -2.1749 -1.1676 -1.1619
    2TTP    C3734280   0.653   8.330   3.601 -0.5450 -0.5599  1.3368
    2TTP    C3834281   0.615   8.386   3.458  0.7250 -0.7105  0.8866
    2TTP    C3934282   0.677   8.523   3.410 -0.8387 -0.3445 -0.7248
    2TTP    C4034283   0.794   8.541   3.303 -0.2525  0.2759 -0.2276
    2TTP    C4134284   0.743   8.559   3.162  0.1093  0.6193 -0.7328
    2TTP    C4234285   0.865   8.594   3.072  0.8782  1.0687 -0.8049
    3TTP     S134286   1.052   8.777   4.830 -0.3770  0.0511  0.2656
    3TTP     S534287   0.780   8.747   5.162 -0.1496 -1.0474  0.3599
    3TTP     C134288   0.942   8.799   5.225 -0.3174 -0.4515  0.3114
    3TTP     C234289   1.036   8.811   5.126 -0.3975 -0.0770  0.2797
    3TTP     C334290   0.983   8.780   4.997 -0.3292 -0.2477  0.2922
    3TTP     C434291   0.889   8.725   4.767 -0.2092 -0.5448  0.3140
    3TTP    C1734292   0.796   8.712   4.866 -0.1291 -0.9193  0.3459
    3TTP    C1834293   0.849   8.744   4.995 -0.1973 -0.7491  0.3333
    3TTP    C3234294   1.180   8.848   5.150 -1.3021  1.5621 -0.7258
    3TTP    C3334295   1.223   8.998   5.126  1.2713  0.3076 -0.8748
    3TTP    C3434296   1.185   9.112   5.223  1.0512 -0.5555 -0.5952
    3TTP    C3534297   1.050   9.185   5.227  0.1546  0.7534  0.1589
    3TTP    C3634298   1.037   9.313   5.327  0.4396  0.4762  0.5251
    3TTP    C3734299   0.905   9.356   5.404 -0.1376 -0.6726 -0.2449
    3TTP    C3834300   0.785   9.380   5.310  0.2111 -0.8941  0.2915
    3TTP    C3934301   0.651   9.422   5.385 -1.0484 -0.3114  1.0091
    3TTP    C4034302   0.535   9.441   5.293 -0.9617 -0.4723 -0.1498
    3TTP    C4134303   0.403   9.495   5.362  0.6543  0.9288  0.0659
    3TTP    C4234304   0.266   9.469   5.290 -0.3752 -0.9056  0.1841
    4FIC     F134305  -0.660   8.616   4.436 -0.0870 -0.3486 -0.0215
    4FIC     F234306  -0.742   8.485   4.212  0.0379 -0.0124 -0.2664
    4FIC     O134307  -0.122   8.579   4.383 -0.0560 -0.1440  0.1500
    4FIC     N534308  -0.478   8.270   3.852  0.2394  0.6166 -0.4968
    4FIC     N634309  -0.041   8.268   3.856  0.2384  0.7088 -0.3135
    4FIC    C1934310  -0.010   8.441   4.150  0.0742  0.2499 -0.0235
    4FIC    C2034311  -0.142   8.455   4.172  0.0615  0.1855 -0.0569
    4FIC    C2134312  -0.192   8.528   4.294 -0.0067 -0.0193  0.0377
    4FIC    C2234313  -0.339   8.525   4.287 -0.0033 -0.0412 -0.0297
    4FIC    C2334314  -0.430   8.579   4.378 -0.0541 -0.2053  0.0188
    4FIC    C2434315  -0.565   8.564   4.350 -0.0387 -0.1915 -0.0630
    4FIC    C2534316  -0.607   8.497   4.235  0.0254 -0.0182 -0.1892
    4FIC    C2634317  -0.517   8.442   4.144  0.0765  0.1464 -0.2383
    4FIC    C2734318  -0.380   8.457   4.170  0.0620  0.1349 -0.1569
    4FIC    C2834319  -0.261   8.411   4.095  0.1044  0.2811 -0.1787
    4FIC    C2934320  -0.260   8.341   3.976  0.1707  0.4690 -0.2902
    4FIC    C3034321  -0.380   8.303   3.909  0.2084  0.5493 -0.4034
    4FIC    C3134322  -0.140   8.302   3.911  0.2074  0.6001 -0.3024
    5FIC     F134323   0.496   8.898   5.911 -0.2389 -0.4742 -0.1296
    5FIC     F234324   0.727   8.919   6.053 -0.3857  0.3169  0.0007
    5FIC     O134325   0.689   8.831   5.409  0.2715 -0.5653  0.0786
    5FIC     N534326   1.197   8.902   5.900 -0.2330  1.3895  0.3358
    5FIC     N634327   1.302   8.846   5.479  0.1953  1.1585  0.4721
    5FIC    C1934328   0.979   8.828   5.367  0.3125  0.1580  0.2766
    5FIC    C2034329   0.921   8.844   5.488  0.1898  0.1500  0.2193
    5FIC    C2134330   0.772   8.845   5.501  0.1769 -0.2339  0.1183
    5FIC    C2234331   0.743   8.864   5.645  0.0308 -0.1369  0.0762
    5FIC    C2334332   0.618   8.871   5.706 -0.0309 -0.3958 -0.0160
    5FIC    C2434333   0.616   8.890   5.843 -0.1712 -0.2350 -0.0396
    5FIC    C2534334   0.735   8.900   5.916 -0.2467  0.1727  0.0278
    5FIC    C2634335   0.860   8.893   5.856 -0.1858  0.4330  0.1197
    5FIC    C2734336   0.864   8.875   5.717 -0.0438  0.2756  0.1448
    5FIC    C2834337   0.978   8.863   5.623  0.0510  0.4683  0.2356
    5FIC    C2934338   1.112   8.868   5.656  0.0164  0.8647  0.3184
    5FIC    C3034339   1.158   8.887   5.790 -0.1206  1.1518  0.3277
    5FIC    C3134340   1.216   8.856   5.559  0.1151  1.0242  0.4026
    1BTD     S234341   1.030   2.426   7.927  0.2097 -0.1688  0.1450
    1BTD     N134342   1.132   2.555   7.855 -0.3106  0.4638  0.5165
    1BTD     N234343   1.113   2.427   8.086  0.5757 -0.7093 -0.0346
    1BTD     N334344   1.469   2.664   8.282  0.3821 -0.6686  0.2699
    1BTD     N434345   1.492   2.821   7.997 -0.7100  0.7769  0.9494
    1BTD     C534346   1.320   2.692   7.933 -0.5060  0.6098  0.7342
    1BTD     C634347   1.219   2.591   7.949 -0.1909  0.2506  0.4890
    1BTD     C734348   1.208   2.519   8.078  0.3053 -0.4061  0.1802
    1BTD     C834349   1.299   2.553   8.185  0.4615 -0.6707  0.1326
    1BTD    C1534350   1.396   2.653   8.164  0.1406 -0.3013  0.3794
    1BTD    C1634351   1.407   2.721   8.040 -0.3374  0.3314  0.6770
    1BTD    C4334352   1.628   2.815   8.043 -1.4410  1.1779 -0.3171
    1BTD    C4434353   1.743   2.911   8.030 -0.7513  0.1594  1.1361
    1BTD    C4534354   1.878   2.856   8.001  0.7852  0.5689 -1.9733
    1BTD    C4634355   1.932   2.772   8.110 -1.1364  0.5803  0.7018
    1BTD    C4734356   1.734   3.030   8.117 -0.2788 -0.2377 -1.6207
    1BTD    C4834357   1.832   3.142   8.099  0.3485 -0.4449  1.3355
    1BTD    C4934358   1.783   3.274   8.156 -0.9505 -1.1575 -0.2108
    1BTD    C5034359   1.692   3.368   8.070  0.5721 -0.1993 -0.2498
    1BTD    C7534360   1.530   2.796   8.341 -1.2360 -0.4922  0.8024
    1BTD    C7634361   1.464   2.871   8.451  0.5559  0.4716  0.4987
    1BTD    C7734362   1.316   2.926   8.437  0.3411 -0.7779  0.0292
    1BTD    C7834363   1.271   2.995   8.308 -0.8232  0.7934 -0.3460
    1BTD    C7934364   1.539   3.001   8.459  0.8168 -0.0808 -1.5122
    1BTD    C8034365   1.625   3.035   8.606  0.8358  0.1496 -0.0879
    1BTD    C8134366   1.681   3.174   8.636 -0.6187 -0.5871  0.2608
    1BTD    C8234367   1.724   3.260   8.513 -0.1308  0.5514  1.2525
    2TTP     S134368   1.316   2.795   7.649 -0.1069  0.3228 -0.3809
    2TTP     S534369   1.594   3.103   7.761 -0.0713  0.4418 -0.7949
    2TTP     C134370   1.541   3.132   7.590 -0.2501  0.3531 -0.7548
    2TTP     C234371   1.452   3.039   7.545 -0.2716  0.3111 -0.6247
    2TTP     C334372   1.422   2.941   7.645 -0.1477  0.3475 -0.5517
    2TTP     C434373   1.369   2.765   7.821  0.0719  0.4117 -0.4209
    2TTP    C1734374   1.458   2.859   7.865  0.0934  0.4537 -0.5511
    2TTP    C1834375   1.488   2.957   7.766 -0.0305  0.4172 -0.6241
    2TTP    C3234376   1.379   3.031   7.413  0.2497  0.7261 -0.1639
    2TTP    C3334377   1.225   3.035   7.411  0.4174 -0.2888  1.1009
    2TTP    C3434378   1.164   3.036   7.278  0.5646  0.4332 -0.5475
    2TTP    C3534379   1.016   3.023   7.291  0.2336  0.3018 -1.8113
    2TTP    C3634380   0.922   2.948   7.201 -0.6269 -1.7618  1.3017
    2TTP    C3734381   0.804   3.016   7.188  1.1852 -0.3324 -0.0276
    2TTP    C3834382   0.801   3.116   7.068 -0.8324 -0.2270 -1.0100
    2TTP    C3934383   0.654   3.165   7.094  0.0823 -0.3012  0.3150
    2TTP    C4034384   0.609   3.288   7.014  0.6299  0.6160  0.2054
    2TTP    C4134385   0.686   3.334   6.891 -0.1111  0.0845 -0.0195
    2TTP    C4234386   0.728   3.482   6.906 -1.0067  0.0345  1.0708
    3TTP     S134387   1.234   2.389   8.438 -0.1825  0.5049  0.1665
    3TTP     S534388   1.605   2.529   8.605  0.1780 -0.4950  0.2184
    3TTP     C134389   1.528   2.414   8.723 -0.0336 -0.4714  0.1044
    3TTP     C234390   1.409   2.364   8.678 -0.1574 -0.1612  0.0818
    3TTP     C334391   1.374   2.415   8.549 -0.0896  0.0689  0.1535
    3TTP     C434392   1.311   2.505   8.320  0.0291  0.4812  0.2806
    3TTP    C1734393   1.430   2.555   8.365  0.1529  0.1711  0.3031
    3TTP    C1834394   1.465   2.504   8.494  0.0851 -0.0591  0.2315
    3TTP    C3234395   1.328   2.246   8.727 -0.0315  1.3165  0.2088
    3TTP    C3334396   1.367   2.124   8.637  1.4739 -0.9995  0.1016
    3TTP    C3434397   1.497   2.062   8.637  0.0882  1.2908 -0.7427
    3TTP    C3534398   1.543   1.951   8.743  0.8733 -1.6214  0.4476
    3TTP    C3634399   1.437   1.866   8.811 -0.3088  0.0860  0.3878
    3TTP    C3734400   1.469   1.746   8.898 -0.6419  0.1907 -0.4282
    3TTP    C3834401   1.540   1.812   9.016 -0.1416  0.7267 -0.6383
    3TTP    C3934402   1.468   1.844   9.139  0.2316 -0.7666 -0.3215
    3TTP    C4034403   1.408   1.715   9.222 -0.1820  0.4247 -0.3331
    3TTP    C4134404   1.467   1.729   9.370  1.2105 -0.7234 -1.6293
    3TTP    C4234405   1.530   1.611   9.446 -0.5897  0.3288 -0.6906
    4FIC     F134406   2.163   3.660   7.567  0.4459 -0.5795 -0.2532
    4FIC     F234407   2.014   3.822   7.407  0.3366 -0.2386  0.1888
    4FIC     O134408   1.829   3.239   7.629  0.3264 -0.5347 -0.5912
    4FIC     N534409   1.560   3.754   7.221  0.0941  0.2835  0.5832
    4FIC     N634410   1.329   3.392   7.302  0.0227  0.2498  0.2298
    4FIC    C1934411   1.567   3.244   7.498  0.1794 -0.1930 -0.2889
    4FIC    C2034412   1.657   3.343   7.489  0.2138 -0.2176 -0.2211
    4FIC    C2134413   1.789   3.334   7.559  0.2894 -0.3973 -0.3866
    4FIC    C2234414   1.862   3.458   7.528  0.3102 -0.3774 -0.2578
    4FIC    C2334415   1.990   3.495   7.571  0.3754 -0.5078 -0.3388
    4FIC    C2434416   2.038   3.618   7.529  0.3828 -0.4573 -0.1846
    4FIC    C2534417   1.961   3.701   7.446  0.3264 -0.2815  0.0429
    4FIC    C2634418   1.834   3.665   7.403  0.2612 -0.1508  0.1248
    4FIC    C2734419   1.783   3.541   7.445  0.2527 -0.1993 -0.0286
    4FIC    C2834420   1.654   3.473   7.417  0.1912 -0.0942  0.0029
    4FIC    C2934421   1.551   3.523   7.340  0.1259  0.0836  0.2018
    4FIC    C3034422   1.556   3.649   7.275  0.1087  0.1928  0.4107
    4FIC    C3134423   1.429   3.450   7.320  0.0695  0.1740  0.2161
    5FIC     F134424   2.155   2.671   9.176 -0.7243  0.6126  0.3295
    5FIC     F234425   2.043   2.552   9.394  0.0551 -0.9047 -0.0672
    5FIC     O134426   1.799   2.535   8.791 -0.8667  1.2789  0.2229
    5FIC     N534427   1.628   2.285   9.433  1.0740 -2.6110 -0.7133
    5FIC     N634428   1.373   2.203   9.088  0.8055 -1.7845 -0.7167
    5FIC    C1934429   1.566   2.373   8.863 -0.1728  0.0661 -0.1939
    5FIC    C2034430   1.659   2.412   8.951 -0.1673 -0.0422 -0.1514
    5FIC    C2134431   1.777   2.495   8.907 -0.5363  0.6098  0.0668
    5FIC    C2234432   1.859   2.520   9.027 -0.4270  0.2961  0.0577
    5FIC    C2334433   1.977   2.592   9.036 -0.6706  0.6837  0.2215
    5FIC    C2434434   2.037   2.601   9.160 -0.5003  0.2652  0.1748
    5FIC    C2534435   1.979   2.540   9.272 -0.0987 -0.5164 -0.0298
    5FIC    C2634436   1.861   2.468   9.264  0.1460 -0.9069 -0.1941
    5FIC    C2734437   1.799   2.457   9.139 -0.0211 -0.4928 -0.1497
    5FIC    C2834438   1.674   2.389   9.097  0.1545 -0.7317 -0.2868
    5FIC    C2934439   1.589   2.317   9.178  0.5413 -1.4541 -0.4976
    5FIC    C3034440   1.611   2.300   9.318  0.8328 -2.0877 -0.6156
    5FIC    C3134441   1.470   2.255   9.128  0.6844 -1.6317 -0.6170
    1BTD     S234442   1.402   8.916   7.666  0.1382 -0.0356 -0.2133
    1BTD     N134443   1.427   9.083   7.602  0.0026 -0.2363 -0.8000
    1BTD     N234444   1.571   8.863   7.632  0.3015  0.1030  0.3556
    1BTD     N334445   1.958   9.054   7.448  0.3895  0.0224  0.4561
    1BTD     N434446   1.780   9.325   7.411  0.0210 -0.3958 -0.9677
    1BTD     C534447   1.613   9.206   7.503  0.0166 -0.3145 -0.8702
    1BTD     C634448   1.553   9.089   7.561  0.0819 -0.1922 -0.5541
    1BTD     C734449   1.633   8.966   7.578  0.2492 -0.0024  0.0927
    1BTD     C834450   1.771   8.966   7.535  0.3430  0.0558  0.3909
    1BTD    C1534451   1.826   9.082   7.479  0.2741 -0.0688  0.0632
    1BTD    C1634452   1.748   9.201   7.463  0.1129 -0.2513 -0.5598
    1BTD    C4334453   1.851   9.357   7.281  0.9457  0.9096 -1.0653
    1BTD    C4434454   1.796   9.330   7.145 -1.1919  1.8671  0.6467
    1BTD    C4534455   1.679   9.391   7.081 -0.0804  0.9932 -0.0563
    1BTD    C4634456   1.700   9.542   7.035  1.0531  0.1303  1.4449
    1BTD    C4734457   1.824   9.181   7.092  0.1201  0.5075 -1.5704
    1BTD    C4834458   1.866   9.170   6.949  0.1670  0.1814 -0.0371
    1BTD    C4934459   1.980   9.247   6.871  0.3702 -0.2850 -0.5340
    1BTD    C5034460   2.096   9.153   6.860  0.2410  0.8336  0.3615
    1BTD    C7534461   2.076   9.151   7.423 -0.1553  0.5558  0.8730
    1BTD    C7634462   2.208   9.130   7.340 -0.4079 -0.9873  0.4176
    1BTD    C7734463   2.230   9.094   7.192 -0.0152 -1.2019  0.1478
    1BTD    C7834464   2.205   8.945   7.165 -0.2610  0.7488 -0.0518
    1BTD    C7934465   2.313   9.246   7.346 -0.1269 -0.3331 -0.1160
    1BTD    C8034466   2.469   9.236   7.328 -0.1503  0.5627  0.5542
    1BTD    C8134467   2.537   9.156   7.446  1.0889 -0.9322 -0.0908
    1BTD    C8234468   2.669   9.124   7.396 -0.8136  0.4759 -0.0079
    2TTP     S134469   1.425   9.448   7.512 -0.4164 -0.1491 -0.2003
    2TTP     S534470   1.751   9.692   7.375  0.2571 -0.3929  0.9389
    2TTP     C134471   1.610   9.801   7.416  0.2197 -0.2812  0.5225
    2TTP     C234472   1.501   9.732   7.461  0.0095 -0.1991  0.1463
    2TTP     C334473   1.525   9.591   7.464 -0.1296 -0.2222  0.1731
    2TTP     C434474   1.565   9.340   7.471 -0.3790 -0.2611  0.2160
    2TTP    C1734475   1.674   9.409   7.427 -0.1688 -0.3430  0.5924
    2TTP    C1834476   1.650   9.550   7.423 -0.0297 -0.3202  0.5655
    2TTP    C3234477   1.382   9.812   7.524  0.5944 -0.8084 -1.1793
    2TTP    C3334478   1.339   9.775   7.662 -0.0615  0.4407 -1.5371
    2TTP    C3434479   1.207   9.847   7.685  1.4260  0.2611 -1.2070
    2TTP    C3534480   1.149   9.912   7.833 -0.8509 -0.0097  0.0818
    2TTP    C3634481   1.195  10.062   7.842 -0.4590  1.4065  0.2301
    2TTP    C3734482   1.108  10.118   7.949 -0.3190  0.3573  0.1564
    2TTP    C3834483   1.132  10.261   8.000  0.5893  0.3758 -0.0902
    2TTP    C3934484   1.245  10.269   8.099 -1.6044  1.4354  0.8526
    2TTP    C4034485   1.326  10.399   8.117  1.2624  0.1775  0.7112
    2TTP    C4134486   1.215  10.505   8.159 -0.7564 -0.1019  0.2823
    2TTP    C4234487   1.290  10.629   8.188 -0.2149  0.6524 -1.3809
    3TTP     S134488   1.897   8.720   7.634 -0.2750 -0.3505 -0.5265
    3TTP     S534489   2.283   8.882   7.539  0.1349 -0.4148  0.9701
    3TTP     C134490   2.307   8.732   7.639 -0.2724 -0.5913  0.8040
    3TTP     C234491   2.189   8.673   7.674 -0.4230 -0.5820  0.3319
    3TTP     C334492   2.076   8.744   7.624 -0.2221 -0.4349  0.0845
    3TTP     C434493   1.873   8.870   7.535  0.1323 -0.1740 -0.3604
    3TTP    C1734494   1.991   8.929   7.499  0.2828 -0.1835  0.1117
    3TTP    C1834495   2.105   8.858   7.550  0.0821 -0.3304  0.3591
    3TTP    C3234496   2.144   8.539   7.731 -0.5576  0.2382 -0.9055
    3TTP    C3334497   2.209   8.491   7.867 -0.6429  1.2446  2.1396
    3TTP    C3434498   2.144   8.346   7.918 -0.0038 -1.2815  0.2590
    3TTP    C3534499   2.232   8.256   8.006 -0.7385  1.0841  1.1817
    3TTP    C3634500   2.303   8.147   7.931 -0.1910  0.9417 -0.1573
    3TTP    C3734501   2.436   8.073   7.976 -0.3646  0.6103 -0.2286
    3TTP    C3834502   2.523   8.038   7.847  0.1012  0.5215 -0.3072
    3TTP    C3934503   2.657   7.959   7.871  1.7177  1.0011 -1.1346
    3TTP    C4034504   2.747   7.912   7.764  1.3085 -1.6183  0.0768
    3TTP    C4134505   2.851   8.020   7.713 -1.2651  0.8430 -0.4922
    3TTP    C4234506   3.000   7.967   7.687 -0.4856 -1.7841  1.6182
    4FIC     F134507   2.220  10.337   7.280  0.1235 -0.1874 -0.2472
    4FIC     F234508   2.033  10.530   7.239  0.1224 -0.0072  0.5577
    4FIC     O134509   1.905   9.911   7.395  0.1634 -0.3130 -0.6025
    4FIC     N534510   1.539  10.504   7.260  0.1490  0.1621  1.4615
    4FIC     N634511   1.331  10.132   7.357  0.1805  0.0277  1.0216
    4FIC    C1934512   1.615   9.944   7.395  0.1765 -0.1856  0.0403
    4FIC    C2034513   1.701  10.044   7.368  0.1664 -0.1609  0.0982
    4FIC    C2134514   1.849  10.019   7.370  0.1603 -0.2303 -0.2472
    4FIC    C2234515   1.914  10.147   7.336  0.1498 -0.1812 -0.0805
    4FIC    C2334516   2.050  10.174   7.326  0.1414 -0.2167 -0.2857
    4FIC    C2434517   2.087  10.303   7.293  0.1323 -0.1564 -0.0632
    4FIC    C2534518   1.990  10.403   7.271  0.1316 -0.0641  0.3513
    4FIC    C2634519   1.854  10.377   7.282  0.1400 -0.0279  0.5580
    4FIC    C2734520   1.815  10.246   7.315  0.1493 -0.0877  0.3380
    4FIC    C2834521   1.680  10.187   7.334  0.1596 -0.0715  0.4641
    4FIC    C2934522   1.559  10.251   7.321  0.1621  0.0105  0.8472
    4FIC    C3034523   1.549  10.390   7.288  0.1549  0.0937  1.1836
    4FIC    C3134524   1.434  10.186   7.341  0.1722  0.0196  0.9410
    5FIC     F134525   3.057   8.759   7.306 -0.0371  0.2379  0.2087
    5FIC     F234526   3.150   8.635   7.530 -0.0519 -0.3266 -0.0947
    5FIC     O134527   2.528   8.787   7.417  0.0394  0.5093  0.5085
    5FIC     N534528   2.907   8.477   7.930 -0.0186 -0.9453 -0.3169
    5FIC     N634529   2.474   8.524   7.972  0.0441 -0.6196 -0.0216
    5FIC    C1934530   2.429   8.678   7.670  0.0525  0.0661  0.3252
    5FIC    C2034531   2.558   8.676   7.633  0.0337  0.0196  0.2615
    5FIC    C2134532   2.601   8.734   7.501  0.0281  0.2587  0.3636
    5FIC    C2234533   2.748   8.715   7.493  0.0070  0.1359  0.2576
    5FIC    C2334534   2.832   8.753   7.390 -0.0049  0.2749  0.2981
    5FIC    C2434535   2.967   8.724   7.405 -0.0246  0.1138  0.1770
    5FIC    C2534536   3.015   8.661   7.520 -0.0321 -0.1770  0.0209
    5FIC    C2634537   2.931   8.623   7.624 -0.0205 -0.3171 -0.0201
    5FIC    C2734538   2.794   8.651   7.611 -0.0005 -0.1576  0.1007
    5FIC    C2834539   2.680   8.624   7.701  0.0157 -0.2406  0.0969
    5FIC    C2934540   2.685   8.563   7.824  0.0142 -0.5076 -0.0345
    5FIC    C3034541   2.807   8.516   7.882 -0.0038 -0.7474 -0.1893
    5FIC    C3134542   2.569   8.542   7.905  0.0308 -0.5677 -0.0266
    1BTD     S234543  10.061   5.132   2.986 -0.3140 -0.0925 -0.5363
    1BTD     N134544   9.883   5.110   2.971 -0.3228 -0.3355 -0.0983
    1BTD     N234545  10.060   5.139   3.165  0.0653  0.3699 -0.5479
    1BTD     N334546   9.737   5.113   3.505  0.8228  0.8737  0.2190
    1BTD     N434547   9.519   5.078   3.265  0.3445  0.0043  0.7731
    1BTD     C534548   9.696   5.094   3.128  0.0312 -0.1476  0.3499
    1BTD     C634549   9.835   5.109   3.094 -0.0563 -0.0731  0.0111
    1BTD     C734550   9.934   5.125   3.203  0.1609  0.3221 -0.2407
    1BTD     C834551   9.889   5.125   3.340  0.4549  0.6225 -0.1408
    1BTD    C1534552   9.752   5.110   3.367  0.5310  0.5361  0.1939
    1BTD    C1634553   9.656   5.094   3.263  0.3215  0.1556  0.4363
    1BTD    C4334554   9.455   4.999   3.373 -0.4477 -0.5840  0.4843
    1BTD    C4434555   9.351   4.889   3.343  1.0804  1.0100 -0.4917
    1BTD    C4534556   9.289   4.862   3.487 -0.3745 -0.4266 -0.0366
    1BTD    C4634557   9.371   4.842   3.615  0.1710  1.1865 -0.3352
    1BTD    C4734558   9.406   4.746   3.278 -0.0777 -0.6764  1.3486
    1BTD    C4834559   9.347   4.722   3.138 -0.0348 -0.0472 -0.2763
    1BTD    C4934560   9.453   4.644   3.052  0.4800  0.2009 -0.3615
    1BTD    C5034561   9.434   4.655   2.897  1.1070  0.1732 -1.5208
    1BTD    C7534562   9.631   5.168   3.585 -0.5550  0.0422  0.0232
    1BTD    C7634563   9.529   5.268   3.537  0.2396  0.5506  0.9524
    1BTD    C7734564   9.626   5.390   3.496  1.7713 -0.6909 -1.0574
    1BTD    C7834565   9.549   5.479   3.397 -0.5195  0.0662 -0.1621
    1BTD    C7934566   9.431   5.286   3.652 -0.5978  1.4038 -0.6858
    1BTD    C8034567   9.304   5.366   3.662  0.3836  0.1875  2.0211
    1BTD    C8134568   9.179   5.316   3.751 -1.9888  0.4059 -0.2864
    1BTD    C8234569   9.121   5.178   3.707 -0.6382  0.0525 -1.1084
    2TTP     S134570   9.529   5.102   2.875 -0.2385  0.1150  0.2525
    2TTP     S534571   9.189   5.156   3.132 -0.1948 -0.3917  0.4191
    2TTP     C134572   9.135   5.176   2.960 -0.2142 -0.0001  0.4683
    2TTP     C234573   9.237   5.161   2.870 -0.2289  0.1795  0.4196
    2TTP     C334574   9.361   5.133   2.934 -0.2251  0.0142  0.3420
    2TTP     C434575   9.583   5.083   3.047 -0.2189 -0.2768  0.2033
    2TTP    C1734576   9.482   5.098   3.137 -0.2043 -0.4562  0.2519
    2TTP    C1834577   9.357   5.126   3.073 -0.2077 -0.2909  0.3297
    2TTP    C3234578   9.228   5.180   2.721  0.0232 -0.4987 -0.2098
    2TTP    C3334579   9.352   5.250   2.656 -0.1979  0.9623 -1.2728
    2TTP    C3434580   9.348   5.232   2.503  0.1848  0.3356  0.3795
    2TTP    C3534581   9.251   5.333   2.430  0.4392  1.0677  0.0674
    2TTP    C3634582   9.344   5.437   2.360 -0.5091  0.5858  0.3337
    2TTP    C3734583   9.422   5.533   2.443  0.1037  0.2284 -1.6826
    2TTP    C3834584   9.341   5.642   2.512 -0.2625 -1.9986  1.0481
    2TTP    C3934585   9.396   5.730   2.640 -0.6290  0.0118  1.0972
    2TTP    C4034586   9.536   5.802   2.662  1.1961  0.0939 -0.3858
    2TTP    C4134587   9.539   5.857   2.809 -0.1432 -0.9030  0.1454
    2TTP    C4234588   9.659   5.947   2.868  0.5082 -0.5735 -1.9590
    3TTP     S134589  10.120   5.130   3.535  0.3777  0.1892 -0.1596
    3TTP     S534590   9.837   5.187   3.854  0.2565  0.8446 -0.3818
    3TTP     C134591  10.005   5.202   3.923  0.2332  0.7901 -0.3120
    3TTP     C234592  10.103   5.185   3.828  0.2687  0.5846 -0.2392
    3TTP     C334593  10.048   5.160   3.698  0.3164  0.4627 -0.2360
    3TTP     C434594   9.952   5.115   3.467  0.4013  0.2437 -0.2294
    3TTP    C1734595   9.855   5.132   3.562  0.3655  0.4492 -0.3021
    3TTP    C1834596   9.909   5.157   3.691  0.3178  0.5711 -0.3053
    3TTP    C3234597  10.257   5.197   3.834  1.4689  0.8650 -0.1654
    3TTP    C3334598  10.316   5.312   3.763  0.3443  0.8706  1.7846
    3TTP    C3434599  10.449   5.341   3.805  0.3628  0.0141  0.9061
    3TTP    C3534600  10.482   5.485   3.791 -0.1064 -0.9534 -0.8697
    3TTP    C3634601  10.622   5.511   3.831 -0.1038 -0.7151 -0.4798
    3TTP    C3734602  10.682   5.651   3.852 -0.6358  1.1320  0.3887
    3TTP    C3834603  10.617   5.750   3.950  1.1977 -0.0166 -0.3299
    3TTP    C3934604  10.714   5.849   4.013 -0.6106  0.7528  0.3641
    3TTP    C4034605  10.684   5.952   4.123  0.2892  0.0001 -0.3576
    3TTP    C4134606  10.581   5.920   4.227  1.2689 -1.0928 -0.8983
    3TTP    C4234607  10.452   5.859   4.212 -0.4601  0.1458  0.7116
    4FIC     F134608   8.417   5.231   3.355 -0.0741 -0.6332  0.1641
    4FIC     F234609   8.318   5.370   3.143  0.0029 -0.0391  0.5113
    4FIC     O134610   8.920   5.127   3.182 -0.2432 -0.7806 -0.2412
    4FIC     N534611   8.533   5.494   2.715 -0.0069  0.7106  0.7216
    4FIC     N634612   8.945   5.385   2.622 -0.1543  0.4759  0.3350
    4FIC    C1934613   9.003   5.222   2.918 -0.2295 -0.2649 -0.0535
    4FIC    C2034614   8.881   5.243   2.970 -0.1903 -0.2512  0.0349
    4FIC    C2134615   8.845   5.191   3.106 -0.2000 -0.5260 -0.0712
    4FIC    C2234616   8.706   5.231   3.132 -0.1493 -0.4325  0.0663
    4FIC    C2334617   8.629   5.205   3.245 -0.1388 -0.6099  0.0338
    4FIC    C2434618   8.499   5.253   3.246 -0.0874 -0.4713  0.1862
    4FIC    C2534619   8.448   5.324   3.137 -0.0475 -0.1651  0.3649
    4FIC    C2634620   8.524   5.350   3.023 -0.0577  0.0130  0.3983
    4FIC    C2734621   8.656   5.302   3.020 -0.1097 -0.1231  0.2457
    4FIC    C2834622   8.761   5.313   2.916 -0.1333  0.0005  0.2337
    4FIC    C2934623   8.750   5.375   2.794 -0.1073  0.2925  0.3789
    4FIC    C3034624   8.630   5.440   2.751 -0.0522  0.5214  0.5668
    4FIC    C3134625   8.857   5.380   2.701 -0.1333  0.3917  0.3539
    5FIC     F134626   9.572   5.035   4.612  0.1252 -0.0947  0.2145
    5FIC     F234627   9.752   5.182   4.753 -0.0527  0.1048  0.2347
    5FIC     O134628   9.778   5.072   4.113  0.3586 -0.1988  0.3029
    5FIC     N534629  10.158   5.420   4.601 -0.1423  0.3173  0.3269
    5FIC     N634630  10.283   5.419   4.182  0.0761  0.1957  0.3918
    5FIC    C1934631  10.024   5.225   4.071  0.2714 -0.0453  0.3538
    5FIC    C2034632   9.965   5.210   4.191  0.2196 -0.0268  0.3306
    5FIC    C2134633   9.838   5.130   4.205  0.2694 -0.1099  0.3053
    5FIC    C2234634   9.802   5.134   4.347  0.1926 -0.0641  0.2842
    5FIC    C2334635   9.692   5.074   4.408  0.2034 -0.1116  0.2574
    5FIC    C2434636   9.678   5.092   4.545  0.1195 -0.0528  0.2411
    5FIC    C2534637   9.771   5.167   4.618  0.0282  0.0498  0.2515
    5FIC    C2634638   9.880   5.228   4.557  0.0165  0.0976  0.2785
    5FIC    C2734639   9.896   5.211   4.419  0.1009  0.0392  0.2952
    5FIC    C2834640  10.000   5.261   4.326  0.1137  0.0665  0.3240
    5FIC    C2934641  10.109   5.339   4.358  0.0412  0.1600  0.3414
    5FIC    C3034642  10.136   5.383   4.491 -0.0594  0.2462  0.3333
    5FIC    C3134643  10.204   5.382   4.261  0.0608  0.1792  0.3691
    1BTD     S234644   8.874   1.773   5.985  0.5088  0.9654  0.1984
    1BTD     N134645   8.842   1.882   6.125 -0.0622  0.4717  0.4591
    1BTD     N234646   8.931   1.636   6.086  0.8655  0.8872 -0.1056
    1BTD     N334647   8.990   1.551   6.544  0.5608 -0.1635 -0.2546
    1BTD     N434648   8.880   1.854   6.592 -0.5827 -0.6756  0.4412
    1BTD     C534649   8.863   1.864   6.368 -0.3200 -0.1211  0.4413
    1BTD     C634650   8.874   1.813   6.234  0.0370  0.2837  0.3135
    1BTD     C734651   8.924   1.676   6.212  0.5567  0.5164 -0.0025
    1BTD     C834652   8.960   1.595   6.325  0.6926  0.3325 -0.1751
    1BTD    C1534653   8.948   1.649   6.455  0.3303 -0.0647 -0.0407
    1BTD    C1634654   8.900   1.781   6.476 -0.1699 -0.2888  0.2640
    1BTD    C4334655   8.860   1.794   6.730  0.4125 -1.1068 -0.7156
    1BTD    C4434656   8.854   1.872   6.862  0.0632 -0.2020 -1.3113
    1BTD    C4534657   8.768   1.820   6.990 -0.1099  0.3112  0.7883
    1BTD    C4634658   8.627   1.832   6.991  1.0272 -0.2305 -0.1844
    1BTD    C4734659   9.002   1.908   6.903  1.1507  0.0190  0.0981
    1BTD    C4834660   9.028   1.996   7.014 -0.7856 -0.2614 -1.0094
    1BTD    C4934661   9.178   2.013   7.061 -0.1258  0.1882 -0.6244
    1BTD    C5034662   9.184   2.084   7.188  1.8694 -0.6771 -1.4893
    1BTD    C7534663   9.077   1.578   6.660  0.2989 -0.1706 -1.8544
    1BTD    C7634664   9.068   1.501   6.794  0.6239  0.5747  0.9464
    1BTD    C7734665   9.201   1.507   6.862 -0.5752 -0.5391  0.5482
    1BTD    C7834666   9.284   1.641   6.870  0.5588  1.0782  0.5922
    1BTD    C7934667   8.929   1.488   6.872 -0.3016 -0.5808 -0.2793
    1BTD    C8034668   8.909   1.399   6.986  0.7336  0.2982  0.0723
    1BTD    C8134669   8.760   1.389   7.018  0.2512  0.0706  0.3386
    1BTD    C8234670   8.721   1.400   7.166  0.2299 -0.2379  1.2654
    2TTP     S134671   8.730   2.127   6.345 -0.2514 -0.0589  0.0216
    2TTP     S534672   8.751   2.173   6.772 -0.0873  0.1051 -0.0043
    2TTP     C134673   8.662   2.316   6.702  0.5412  0.4607 -0.0978
    2TTP     C234674   8.650   2.310   6.566  0.5279  0.4310 -0.0954
    2TTP     C334675   8.711   2.192   6.512  0.0203  0.1264 -0.0194
    2TTP     C434676   8.819   1.984   6.414 -0.8795 -0.4144  0.1152
    2TTP    C1734677   8.831   1.990   6.550 -0.8661 -0.3847  0.1127
    2TTP    C1834678   8.770   2.108   6.604 -0.3588 -0.0800  0.0370
    2TTP    C3234679   8.584   2.425   6.474  1.2719 -0.2981 -0.7256
    2TTP    C3334680   8.672   2.482   6.361  0.0411  1.0070  0.2980
    2TTP    C3434681   8.600   2.590   6.297 -0.4150 -0.2834  1.4975
    2TTP    C3534682   8.650   2.604   6.147  1.4717  0.3095  0.1513
    2TTP    C3634683   8.600   2.726   6.061 -0.2912  1.0512 -1.0321
    2TTP    C3734684   8.660   2.739   5.918  1.0888  2.4088 -0.4098
    2TTP    C3834685   8.648   2.627   5.819  0.2458 -0.5642  0.0658
    2TTP    C3934686   8.708   2.656   5.683  0.1291 -0.2507  0.6673
    2TTP    C4034687   8.637   2.760   5.592 -0.0408  0.7965 -1.2539
    2TTP    C4134688   8.719   2.779   5.460  0.8045  1.1315 -0.8082
    2TTP    C4234689   8.735   2.914   5.405  1.1489 -0.8131  0.1383
    3TTP     S134690   8.995   1.298   6.234  0.3516 -0.2787  0.2501
    3TTP     S534691   9.104   1.201   6.639  0.8810  0.4314  0.2820
    3TTP     C134692   9.115   1.050   6.538  1.0329  0.3151  0.4715
    3TTP     C234693   9.083   1.071   6.407  0.8783  0.0890  0.4728
    3TTP     C334694   9.047   1.207   6.382  0.6344 -0.0006  0.3241
    3TTP     C434695   8.984   1.449   6.335  0.1998 -0.1624  0.0606
    3TTP    C1734696   9.017   1.428   6.466  0.3543  0.0637  0.0593
    3TTP    C1834697   9.052   1.292   6.491  0.5982  0.1533  0.2079
    3TTP    C3234698   9.047   0.963   6.302 -0.0341 -0.2017 -0.1599
    3TTP    C3334699   9.120   0.960   6.166  0.9820 -0.6916  0.5527
    3TTP    C3434700   9.268   0.991   6.117 -0.2800 -0.8828 -0.0515
    3TTP    C3534701   9.362   0.916   6.196  0.5775  1.4730  0.4558
    3TTP    C3634702   9.485   0.921   6.124  0.4766  0.0553 -0.1997
    3TTP    C3734703   9.619   0.833   6.156  0.7302 -1.2447 -0.8266
    3TTP    C3834704   9.615   0.694   6.208 -1.3029  0.9685 -1.0481
    3TTP    C3934705   9.538   0.572   6.165 -0.1668 -0.0834 -1.0149
    3TTP    C4034706   9.576   0.455   6.255 -0.3517  0.5418 -0.0357
    3TTP    C4134707   9.601   0.325   6.173 -0.0337  0.9094 -0.0852
    3TTP    C4234708   9.737   0.298   6.116 -1.1097  0.7612  0.3254
    4FIC     F134709   8.639   2.529   7.500 -0.4361 -0.2595  0.0277
    4FIC     F234710   8.440   2.705   7.441  0.2286  0.4354 -0.1770
    4FIC     O134711   8.748   2.328   7.009 -0.5760 -0.5810  0.1277
    4FIC     N534712   8.231   2.814   7.006  1.0841  1.2053 -0.4004
    4FIC     N634713   8.357   2.622   6.634  0.8409  0.8140 -0.2809
    4FIC    C1934714   8.597   2.424   6.778  0.0092 -0.0312 -0.0324
    4FIC    C2034715   8.577   2.468   6.904  0.0184  0.0225 -0.0497
    4FIC    C2134716   8.659   2.414   7.018 -0.2928 -0.2733  0.0367
    4FIC    C2234717   8.612   2.482   7.140 -0.1950 -0.1255 -0.0082
    4FIC    C2334718   8.658   2.465   7.270 -0.3986 -0.2994  0.0417
    4FIC    C2434719   8.598   2.541   7.369 -0.2493 -0.1041 -0.0169
    4FIC    C2534720   8.496   2.631   7.338  0.0929  0.2538 -0.1225
    4FIC    C2634721   8.449   2.649   7.209  0.2975  0.4290 -0.1730
    4FIC    C2734722   8.509   2.573   7.107  0.1512  0.2357 -0.1148
    4FIC    C2834723   8.483   2.568   6.961  0.2959  0.3409 -0.1445
    4FIC    C2934724   8.390   2.642   6.892  0.6242  0.6704 -0.2410
    4FIC    C3034725   8.303   2.736   6.955  0.8759  0.9633 -0.3282
    4FIC    C3134726   8.372   2.630   6.750  0.7415  0.7475 -0.2624
    5FIC     F134727   9.402   0.756   7.253  0.7305  0.1476 -0.2490
    5FIC     F234728   9.483   0.532   7.122 -0.4137 -0.3281 -0.1642
    5FIC     O134729   9.169   1.032   6.850  0.6955  0.4559 -0.0182
    5FIC     N534730   9.433   0.406   6.646 -2.0831 -0.7922  0.1224
    5FIC     N634731   9.234   0.667   6.357 -1.8804 -0.4554  0.2855
    5FIC    C1934732   9.163   0.916   6.582 -0.4103  0.1109  0.1450
    5FIC    C2034733   9.218   0.855   6.688 -0.3567  0.0520  0.0834
    5FIC    C2134734   9.217   0.921   6.823  0.2267  0.2394  0.0013
    5FIC    C2234735   9.286   0.829   6.915  0.1297  0.1153 -0.0507
    5FIC    C2334736   9.309   0.847   7.051  0.5414  0.2147 -0.1321
    5FIC    C2434737   9.376   0.745   7.118  0.3465  0.0612 -0.1687
    5FIC    C2534738   9.417   0.629   7.050 -0.2431 -0.1838 -0.1249
    5FIC    C2634739   9.394   0.611   6.915 -0.6564 -0.2842 -0.0436
    5FIC    C2734740   9.327   0.713   6.845 -0.4673 -0.1317 -0.0056
    5FIC    C2834741   9.287   0.724   6.703 -0.7896 -0.1803  0.0787
    5FIC    C2934742   9.310   0.632   6.604 -1.3771 -0.3988  0.1404
    5FIC    C3034743   9.377   0.508   6.627 -1.7629 -0.6144  0.1303
    5FIC    C3134744   9.268   0.652   6.469 -1.6503 -0.4287  0.2199
    1BTD     S234745   9.723   6.579   8.099  0.2014 -0.0882  0.3032
    1BTD     N134746   9.650   6.602   7.936 -0.0350 -0.3550  0.3706
    1BTD     N234747   9.883   6.527   8.035  0.3135  0.4233  0.1562
    1BTD     N334748  10.076   6.462   7.612  0.1152  0.9832 -0.0223
    1BTD     N434749   9.789   6.555   7.490 -0.3150  0.0242  0.2424
    1BTD     C534750   9.726   6.576   7.705 -0.1762 -0.1454  0.3006
    1BTD     C634751   9.744   6.571   7.847 -0.0191 -0.0644  0.2846
    1BTD     C734752   9.874   6.529   7.903  0.1760  0.3713  0.1644
    1BTD     C834753   9.981   6.494   7.813  0.2046  0.7039  0.0660
    1BTD    C1534754   9.959   6.501   7.674  0.0471  0.6098  0.0862
    1BTD    C1634755   9.833   6.541   7.620 -0.1410  0.1902  0.2019
    1BTD    C4334756   9.799   6.475   7.368 -1.1179 -0.0499  0.5160
    1BTD    C4434757   9.683   6.399   7.304  0.4169  0.8148  0.2809
    1BTD    C4534758   9.554   6.342   7.395 -0.5477 -0.3400  0.0566
    1BTD    C4634759   9.546   6.194   7.432 -0.2835  0.2742 -0.6512
    1BTD    C4734760   9.701   6.284   7.200 -1.1437 -0.2170 -0.0917
    1BTD    C4834761   9.766   6.297   7.057  1.6270  0.2650  0.2655
    1BTD    C4934762   9.755   6.414   6.952  0.8121 -1.4371  0.6392
    1BTD    C5034763   9.797   6.370   6.814 -0.8210 -0.6948 -0.0745
    1BTD    C7534764  10.077   6.394   7.481  0.2444  1.4464  0.4868
    1BTD    C7634765  10.209   6.405   7.409  0.8500 -1.5344  0.9702
    1BTD    C7734766  10.272   6.546   7.380 -0.1543  0.5597 -0.7072
    1BTD    C7834767  10.222   6.625   7.257 -0.7986  0.7015  0.7126
    1BTD    C7934768  10.196   6.322   7.284  0.0023  1.3064  0.7092
    1BTD    C8034769  10.159   6.172   7.299  1.0113  0.2610 -0.3272
    1BTD    C8134770  10.174   6.075   7.180 -0.7380 -0.6652 -0.0045
    1BTD    C8234771  10.319   6.053   7.148 -0.8556  0.5380  0.3315
    2TTP     S134772   9.465   6.714   7.656 -0.2697 -0.1138 -0.2653
    2TTP     S534773   9.542   6.695   7.233 -0.4325 -0.0232 -0.2993
    2TTP     C134774   9.381   6.774   7.259 -0.3277  0.1630 -0.2116
    2TTP     C234775   9.347   6.785   7.391 -0.2713  0.1460 -0.1956
    2TTP     C334776   9.448   6.731   7.477 -0.3088 -0.0148 -0.2526
    2TTP     C434777   9.627   6.635   7.630 -0.3743 -0.2999 -0.3532
    2TTP    C1734778   9.660   6.624   7.498 -0.4306 -0.2830 -0.3689
    2TTP    C1834779   9.559   6.678   7.413 -0.3932 -0.1222 -0.3121
    2TTP    C3234780   9.216   6.846   7.448 -1.3518 -0.0848  0.2151
    2TTP    C3334781   9.137   6.744   7.529 -0.2105 -0.4288 -0.2154
    2TTP    C3434782   9.036   6.814   7.610  0.7839  0.7897  0.5216
    2TTP    C3534783   8.940   6.733   7.685  0.5950 -0.2241 -0.4973
    2TTP    C3634784   8.855   6.648   7.592  1.1682 -0.7795 -0.5644
    2TTP    C3734785   8.794   6.523   7.637  1.0340  1.2222  0.3657
    2TTP    C3834786   8.636   6.503   7.607 -1.3316  0.3192  1.8947
    2TTP    C3934787   8.528   6.538   7.698 -1.3216 -0.9059 -0.8113
    2TTP    C4034788   8.572   6.554   7.844 -1.1054 -0.5431  0.9078
    2TTP    C4134789   8.467   6.474   7.916 -0.9677 -0.8593  0.4318
    2TTP    C4234790   8.504   6.462   8.062  0.4336 -0.4787  0.6392
    3TTP     S134791  10.168   6.341   7.962 -0.4753 -0.4793 -0.4739
    3TTP     S534792  10.347   6.184   7.603  0.1042 -0.3793 -0.2314
    3TTP     C134793  10.399   6.081   7.743  0.2078 -0.1758 -0.1192
    3TTP     C234794  10.347   6.123   7.862  0.0353 -0.1947 -0.1876
    3TTP     C334795  10.264   6.239   7.847 -0.1857 -0.3705 -0.3309
    3TTP     C434796  10.116   6.444   7.821 -0.5789 -0.6829 -0.5863
    3TTP    C1734797  10.168   6.402   7.702 -0.4064 -0.6641 -0.5178
    3TTP    C1834798  10.251   6.286   7.718 -0.1857 -0.4880 -0.3744
    3TTP    C3234799  10.381   6.059   8.006  0.0862  0.8486 -1.1185
    3TTP    C3334800  10.270   6.052   8.099  0.4613 -1.0283 -1.0204
    3TTP    C3434801  10.280   5.969   8.216  1.0299 -0.4939 -0.5440
    3TTP    C3534802  10.314   5.818   8.197  1.1984 -2.5359 -1.1901
    3TTP    C3634803  10.283   5.725   8.332  1.2234 -0.4375  0.6455
    3TTP    C3734804  10.364   5.744   8.466  0.4134 -0.1904  0.0223
    3TTP    C3834805  10.517   5.723   8.477 -0.0700  0.4255 -0.1163
    3TTP    C3934806  10.548   5.662   8.613  0.5743  0.5868  0.0245
    3TTP    C4034807  10.685   5.600   8.640 -1.4751  0.6197  0.6341
    3TTP    C4134808  10.684   5.440   8.615 -0.2762 -0.0609  0.9235
    3TTP    C4234809  10.631   5.375   8.476  0.8115  0.4358 -0.8019
    4FIC     F134810   9.147   6.424   6.557  0.2503  0.1190 -0.0870
    4FIC     F234811   8.993   6.644   6.508 -0.2730 -0.2161  0.0354
    4FIC     O134812   9.352   6.548   7.042 -0.0174  0.3515 -0.0329
    4FIC     N534813   8.919   7.048   6.784 -1.2169 -0.5324  0.2503
    4FIC     N634814   9.110   7.100   7.173 -1.3206 -0.2830  0.2680
    4FIC    C1934815   9.278   6.802   7.168 -0.6133  0.1140  0.1034
    4FIC    C2034816   9.232   6.762   7.048 -0.5252  0.0687  0.0851
    4FIC    C2134817   9.275   6.630   6.990 -0.2155  0.1979  0.0139
    4FIC    C2234818   9.207   6.618   6.859 -0.1945  0.1066  0.0112
    4FIC    C2334819   9.216   6.513   6.768  0.0503  0.1732 -0.0441
    4FIC    C2434820   9.143   6.525   6.651  0.0172  0.0615 -0.0344
    4FIC    C2534821   9.064   6.638   6.626 -0.2525 -0.1110  0.0286
    4FIC    C2634822   9.055   6.743   6.716 -0.4976 -0.1785  0.0842
    4FIC    C2734823   9.128   6.733   6.836 -0.4683 -0.0674  0.0753
    4FIC    C2834824   9.140   6.826   6.951 -0.6824 -0.0975  0.1234
    4FIC    C2934825   9.078   6.948   6.964 -0.9713 -0.2502  0.1900
    4FIC    C3034826   8.991   7.002   6.865 -1.1051 -0.4048  0.2232
    4FIC    C3134827   9.096   7.031   7.079 -1.1618 -0.2674  0.2325
    5FIC     F134828  11.007   5.866   7.252 -0.3872 -0.1460 -0.1630
    5FIC     F234829  10.976   5.608   7.332 -0.2508 -0.1000  0.0407
    5FIC     O134830  10.630   6.113   7.553  0.0768  0.0170  0.2890
    5FIC     N534831  10.662   5.413   7.662  0.2770  0.0826  0.6553
    5FIC     N634832  10.374   5.658   7.880  0.6127  0.2006  0.9674
    5FIC    C1934833  10.466   5.954   7.736  0.3727  0.1189  0.6438
    5FIC    C2034834  10.562   5.902   7.657  0.2508  0.0761  0.5224
    5FIC    C2134835  10.642   5.990   7.565  0.1025  0.0252  0.3426
    5FIC    C2234836  10.737   5.902   7.495 -0.0055 -0.0129  0.2440
    5FIC    C2334837  10.832   5.939   7.400 -0.1574 -0.0656  0.0718
    5FIC    C2434838  10.911   5.838   7.347 -0.2370 -0.0940  0.0068
    5FIC    C2534839  10.895   5.705   7.388 -0.1661 -0.0701  0.1119
    5FIC    C2634840  10.800   5.668   7.483 -0.0145 -0.0176  0.2841
    5FIC    C2734841  10.720   5.769   7.538  0.0677  0.0117  0.3523
    5FIC    C2834842  10.611   5.763   7.639  0.2277  0.0675  0.5271
    5FIC    C2934843  10.566   5.651   7.704  0.3350  0.1040  0.6671
    5FIC    C3034844  10.619   5.520   7.680  0.3028  0.0920  0.6602
    5FIC    C3134845  10.460   5.655   7.801  0.4871  0.1569  0.8315
    1BTD     S234846   7.398   2.518   0.628  0.4987  0.1429 -0.1592
    1BTD     N134847   7.301   2.602   0.502  0.4625  0.4606  0.0775
    1BTD     N234848   7.256   2.473   0.728  0.5153 -0.2290 -0.3007
    1BTD     N334849   6.791   2.532   0.704  0.4846 -0.4133 -0.1617
    1BTD     N434850   6.847   2.692   0.425  0.4195  0.4364  0.3043
    1BTD     C534851   7.063   2.647   0.465  0.4410  0.4377  0.1903
    1BTD     C634852   7.174   2.593   0.539  0.4649  0.2822  0.0408
    1BTD     C734853   7.149   2.520   0.666  0.4944 -0.1038 -0.1710
    1BTD     C834854   7.014   2.506   0.712  0.4985 -0.3150 -0.2225
    1BTD    C1534855   6.908   2.561   0.637  0.4744 -0.1514 -0.0711
    1BTD    C1634856   6.933   2.630   0.515  0.4460  0.2206  0.1329
    1BTD    C4334857   6.686   2.685   0.412 -1.1159  1.1909 -0.3677
    1BTD    C4434858   6.595   2.776   0.350  0.7093 -0.6449 -0.6564
    1BTD    C4534859   6.447   2.741   0.350 -0.7845 -0.1890  0.1019
    1BTD    C4634860   6.347   2.713   0.477  0.1086 -1.0999 -0.3140
    1BTD    C4734861   6.616   2.909   0.422  0.1854 -0.7703 -0.3400
    1BTD    C4834862   6.580   3.035   0.334 -0.3799  1.3648  0.6495
    1BTD    C4934863   6.575   3.172   0.401 -1.3336  0.9389 -0.2893
    1BTD    C5034864   6.467   3.211   0.505 -1.0025 -0.4163  0.3687
    1BTD    C7534865   6.666   2.610   0.736 -1.1288 -0.4998  0.1917
    1BTD    C7634866   6.667   2.733   0.824  0.5810  0.8042 -1.2687
    1BTD    C7734867   6.762   2.836   0.781  0.1301 -1.2338 -0.0825
    1BTD    C7834868   6.898   2.846   0.852  1.2116 -0.3654  0.4539
    1BTD    C7934869   6.522   2.787   0.830  0.6163 -0.0540 -1.0228
    1BTD    C8034870   6.395   2.697   0.861  0.7126  0.3415  0.1114
    1BTD    C8134871   6.254   2.753   0.856  0.6149 -0.6358  0.9152
    1BTD    C8234872   6.216   2.897   0.886  0.5300  0.3242  0.4585
    2TTP     S134873   7.147   2.761   0.192  0.1823 -0.4644 -0.7104
    2TTP     S534874   6.745   2.892   0.111  0.3681  0.3558 -0.3336
    2TTP     C134875   6.851   2.938  -0.030  0.2798 -0.1094 -0.5586
    2TTP     C234876   6.981   2.901  -0.013  0.2172 -0.3902 -0.6881
    2TTP     C334877   7.002   2.834   0.112  0.2366 -0.2480 -0.6145
    2TTP     C434878   7.041   2.714   0.333  0.2704  0.0007 -0.4854
    2TTP    C1734879   6.911   2.752   0.316  0.3331  0.2815 -0.3558
    2TTP    C1834880   6.890   2.819   0.191  0.3136  0.1393 -0.4295
    2TTP    C3234881   7.103   2.900  -0.125 -0.1150  0.6564 -0.7167
    2TTP    C3334882   7.197   3.028  -0.118 -1.2918 -1.2138 -0.4989
    2TTP    C3434883   7.306   3.005  -0.223 -0.0385  0.6113  0.0884
    2TTP    C3534884   7.452   3.052  -0.213 -0.0269  0.7449  0.6876
    2TTP    C3634885   7.531   3.008  -0.334 -0.3430  0.5285  0.0686
    2TTP    C3734886   7.679   3.050  -0.324 -0.4894 -0.0281  1.3365
    2TTP    C3834887   7.742   3.078  -0.468  0.1649  0.0057 -0.3063
    2TTP    C3934888   7.885   3.156  -0.472  0.6036  0.9513 -0.2972
    2TTP    C4034889   7.921   3.275  -0.391  0.5683  0.1842 -0.2746
    2TTP    C4134890   7.997   3.236  -0.265 -0.1307  0.0434  0.4479
    2TTP    C4234891   8.033   3.367  -0.214 -0.8803 -1.0796 -0.3353
    3TTP     S134892   7.009   2.344   0.966 -0.3879  0.1320 -0.1842
    3TTP     S534893   6.580   2.372   0.966 -0.3656  0.5031  0.3194
    3TTP     C134894   6.632   2.270   1.108 -0.3361 -0.3792 -0.3078
    3TTP     C234895   6.767   2.255   1.116 -0.3413 -0.5459 -0.5003
    3TTP     C334896   6.835   2.324   1.011 -0.3686  0.0173 -0.1594
    3TTP     C434897   6.958   2.445   0.824 -0.4175  1.0142  0.4430
    3TTP    C1734898   6.823   2.460   0.816 -0.4120  1.1808  0.6354
    3TTP    C1834899   6.754   2.391   0.921 -0.3849  0.6177  0.2945
    3TTP    C3234900   6.839   2.218   1.243 -1.5048 -0.1099  0.3516
    3TTP    C3334901   6.969   2.148   1.208 -0.3888  0.8026 -0.5691
    3TTP    C3434902   7.048   2.068   1.325 -0.1261 -0.0268  0.2877
    3TTP    C3534903   7.178   2.015   1.253  1.7302 -0.7357 -0.0189
    3TTP    C3634904   7.275   1.920   1.321 -0.6648 -0.0662 -0.7404
    3TTP    C3734905   7.354   1.842   1.225 -0.1791 -1.7969  0.4968
    3TTP    C3834906   7.331   1.798   1.078  0.5031 -1.0691 -0.1162
    3TTP    C3934907   7.200   1.715   1.044 -0.0238  0.0158  0.0001
    3TTP    C4034908   7.076   1.795   1.020 -0.1238 -0.2328 -0.4979
    3TTP    C4134909   6.958   1.725   0.965 -0.4614  0.1059 -0.5529
    3TTP    C4234910   6.854   1.818   0.923  1.0938 -0.6995 -0.1292
    4FIC     F134911   6.253   3.486  -0.163 -0.2725 -0.4861  0.3524
    4FIC     F234912   6.340   3.507  -0.420  0.1588  0.2480  0.5534
    4FIC     O134913   6.606   3.126   0.034 -0.3747 -0.7706  0.0188
    4FIC     N534914   6.716   3.282  -0.649  0.7061  1.1007  0.6046
    4FIC     N634915   6.975   2.996  -0.443  0.5392  0.7304  0.3035
    4FIC    C1934916   6.814   3.019  -0.141  0.0010 -0.1703  0.0921
    4FIC    C2034917   6.722   3.108  -0.181  0.0100 -0.1274  0.1686
    4FIC    C2134918   6.618   3.159  -0.085 -0.1901 -0.4494  0.1237
    4FIC    C2234919   6.535   3.254  -0.160 -0.1237 -0.3074  0.2291
    4FIC    C2334920   6.425   3.327  -0.113 -0.2534 -0.5034  0.2320
    4FIC    C2434921   6.362   3.411  -0.203 -0.1540 -0.3094  0.3426
    4FIC    C2534922   6.406   3.422  -0.335  0.0684  0.0689  0.4463
    4FIC    C2634923   6.515   3.350  -0.383  0.1986  0.2661  0.4435
    4FIC    C2734924   6.581   3.264  -0.293  0.1009  0.0745  0.3328
    4FIC    C2834925   6.698   3.175  -0.311  0.1917  0.2000  0.2997
    4FIC    C2934926   6.771   3.157  -0.427  0.4040  0.5526  0.3755
    4FIC    C3034927   6.740   3.226  -0.549  0.5693  0.8527  0.5014
    4FIC    C3134928   6.882   3.069  -0.435  0.4773  0.6484  0.3355
    5FIC     F134929   5.840   2.021   1.149 -0.0123  0.5420  0.1197
    5FIC     F234930   5.887   1.941   1.405 -0.0075 -0.4457 -0.1835
    5FIC     O134931   6.331   2.201   1.007  0.0592  0.8113  0.6994
    5FIC     N534932   6.304   1.953   1.671  0.0504 -1.6739 -0.2062
    5FIC     N634933   6.678   2.109   1.509  0.1050 -1.2643  0.3079
    5FIC    C1934934   6.550   2.187   1.201  0.0890 -0.0367  0.6157
    5FIC    C2034935   6.425   2.145   1.227  0.0709 -0.0658  0.4817
    5FIC    C2134936   6.318   2.155   1.122  0.0564  0.3866  0.5358
    5FIC    C2234937   6.194   2.101   1.182  0.0383  0.2252  0.3573
    5FIC    C2334938   6.069   2.090   1.124  0.0207  0.5141  0.3353
    5FIC    C2434939   5.967   2.036   1.201  0.0055  0.2784  0.1517
    5FIC    C2534940   5.992   1.994   1.333  0.0080 -0.2305 -0.0042
    5FIC    C2634941   6.117   2.005   1.392  0.0256 -0.5210  0.0165
    5FIC    C2734942   6.221   2.060   1.315  0.0410 -0.2890  0.2013
    5FIC    C2834943   6.363   2.086   1.348  0.0612 -0.4882  0.2716
    5FIC    C2934944   6.426   2.059   1.467  0.0693 -0.9714  0.1627
    5FIC    C3034945   6.359   2.001   1.579  0.0589 -1.3559 -0.0398
    5FIC    C3134946   6.564   2.087   1.489  0.0889 -1.1297  0.2432
    1BTD     S234947  10.618   6.303  10.734  0.0448  0.5415  0.4654
    1BTD     N134948  10.526   6.270  10.583  0.5422  0.2899  0.2120
    1BTD     N234949  10.697   6.452  10.671 -0.0467  0.6566  0.6196
    1BTD     N334950  10.693   6.695  10.269  0.6657  0.4369  0.4768
    1BTD     N434951  10.482   6.471  10.161  1.3909 -0.0150 -0.0257
    1BTD     C534952  10.506   6.378  10.364  0.9768  0.1361  0.0937
    1BTD     C634953  10.558   6.367  10.498  0.6111  0.3040  0.2534
    1BTD     C734954  10.654   6.468  10.547  0.2811  0.5093  0.4816
    1BTD     C834955  10.693   6.576  10.460  0.3340  0.5364  0.5391
    1BTD    C1534956  10.639   6.583  10.330  0.6972  0.3678  0.3775
    1BTD    C1634957  10.547   6.485  10.282  1.0145  0.1699  0.1577
    1BTD    C4334958  10.545   6.472  10.023  0.5386  1.0381 -0.7539
    1BTD    C4434959  10.513   6.537   9.885 -0.2488 -0.4644 -0.9495
    1BTD    C4534960  10.613   6.511   9.774  0.5351 -0.9425  1.0163
    1BTD    C4634961  10.706   6.389   9.775 -0.0775 -1.0726  0.6695
    1BTD    C4734962  10.423   6.655   9.905  0.4453 -0.3093  0.0880
    1BTD    C4834963  10.370   6.747   9.778 -0.9671 -0.5853  0.2090
    1BTD    C4934964  10.473   6.806   9.686 -0.2840  0.2129 -0.4119
    1BTD    C5034965  10.411   6.905   9.595  0.0074 -0.5228  0.1519
    1BTD    C7534966  10.655   6.779  10.141  2.3900  0.0385  0.3247
    1BTD    C7634967  10.547   6.901  10.164  0.3805  0.1339  0.1259
    1BTD    C7734968  10.544   6.987  10.031 -0.0696 -1.0574 -0.4699
    1BTD    C7834969  10.673   7.041   9.987  0.8151 -1.6979  0.7469
    1BTD    C7934970  10.401   6.853  10.209  0.6784 -0.2299  0.2339
    1BTD    C8034971  10.280   6.925  10.233 -0.4466 -1.4148  0.2436
    1BTD    C8134972  10.157   6.832  10.258  0.3621  0.6113  1.0409
    1BTD    C8234973  10.025   6.915  10.272 -1.4202 -0.0380 -0.6788
    2TTP     S134974  10.288   6.166  10.308  0.4441 -0.2568 -0.0447
    2TTP     S534975  10.225   6.337   9.919 -0.3328 -0.0260  0.1788
    2TTP     C134976  10.123   6.188   9.933 -0.4783  0.0928  0.3780
    2TTP     C234977  10.136   6.126  10.054 -0.2472  0.0286  0.3209
    2TTP     C334978  10.228   6.194  10.140  0.0534 -0.1167  0.1171
    2TTP     C434979  10.391   6.315  10.293  0.5898 -0.3755 -0.2439
    2TTP    C1734980  10.378   6.377  10.172  0.3583 -0.3115 -0.1869
    2TTP    C1834981  10.286   6.308  10.087  0.0579 -0.1659  0.0165
    2TTP    C3234982  10.057   5.996  10.091 -0.0939 -0.7453 -0.0399
    2TTP    C3334983   9.968   6.038  10.208  0.7821 -0.1703 -0.5073
    2TTP    C3434984   9.831   5.975  10.198 -0.1395 -0.7593 -0.7254
    2TTP    C3534985   9.727   6.015  10.091 -0.1792  0.1315  0.6142
    2TTP    C3634986   9.684   6.151  10.046  0.9237 -0.2973 -0.5425
    2TTP    C3734987   9.558   6.144   9.942  0.1488  0.1336 -0.5867
    2TTP    C3834988   9.556   6.069   9.810 -0.5542 -0.4311  0.4006
    2TTP    C3934989   9.466   6.097   9.690  1.0023 -0.0363 -0.5246
    2TTP    C4034990   9.489   6.243   9.652  1.1695 -1.4225 -0.5477
    2TTP    C4134991   9.535   6.241   9.511  0.2904  0.3112 -0.5392
    2TTP    C4234992   9.534   6.388   9.488 -0.1393 -0.3904  0.1470
    3TTP     S134993  10.870   6.782  10.610  0.2500  0.2020 -0.1023
    3TTP     S534994  10.915   7.005  10.245  0.0255 -0.0492 -0.2840
    3TTP     C134995  11.005   7.091  10.377  0.1044  0.0437 -0.3984
    3TTP     C234996  10.996   7.028  10.497  0.1786  0.1268 -0.3488
    3TTP     C334997  10.919   6.908  10.490  0.1752  0.1200 -0.2191
    3TTP     C434998  10.781   6.695  10.477  0.1707  0.1090  0.0119
    3TTP    C1734999  10.789   6.759  10.357  0.0967  0.0258 -0.0375
    3TTP    C1835000  10.867   6.878  10.365  0.1001  0.0327 -0.1674
    3TTP    C3235001  11.043   7.077  10.647 -0.4809  1.1113  1.1688
    3TTP    C3335002  11.185   7.038  10.692 -0.3512 -0.2854  0.9285
    3TTP    C3435003  11.236   7.089  10.825 -0.1264 -0.6499  0.9858
    3TTP    C3535004  11.160   7.059  10.957 -0.2081  0.5753  1.4615
    3TTP    C3635005  11.092   6.924  11.008  0.2211 -0.8610 -0.5096
    3TTP    C3735006  10.995   6.948  11.124 -1.0991 -0.5925 -1.2999
    3TTP    C3835007  10.943   6.820  11.207 -0.1289 -0.5445 -0.3185
    3TTP    C3935008  10.900   6.688  11.155  0.4112 -0.0479 -0.4162
    3TTP    C4035009  10.808   6.605  11.255 -0.8212 -0.3178  0.8615
    3TTP    C4135010  10.700   6.685  11.326  0.1026 -0.0498  0.2520
    3TTP    C4235011  10.615   6.604  11.423  0.2955 -0.9894 -0.7729
    4FIC     F135012   9.998   6.293   9.122  0.3452 -0.4524 -0.2978
    4FIC     F235013   9.916   6.034   9.108 -0.9542 -0.0896  0.2732
    4FIC     O135014  10.096   6.343   9.652  0.9916  0.1062 -0.4668
    4FIC     N535015   9.869   5.696   9.467 -2.3613  0.8302  0.9739
    4FIC     N635016   9.963   5.787   9.884 -1.5945  1.1935  0.7265
    4FIC    C1935017  10.054   6.112   9.827 -0.0204  0.6513  0.0186
    4FIC    C2035018  10.032   6.110   9.695 -0.1323  0.4965  0.0389
    4FIC    C2135019  10.056   6.233   9.611  0.4132  0.2183 -0.2205
    4FIC    C2235020  10.023   6.196   9.472  0.1252  0.1069 -0.1237
    4FIC    C2335021  10.030   6.276   9.359  0.4404 -0.1457 -0.2875
    4FIC    C2435022   9.993   6.219   9.238  0.0649 -0.2063 -0.1484
    4FIC    C2535023   9.952   6.086   9.231 -0.6044 -0.0190  0.1457
    4FIC    C2635024   9.944   6.005   9.344 -0.9222  0.2332  0.3109
    4FIC    C2735025   9.981   6.061   9.467 -0.5503  0.2983  0.1738
    4FIC    C2835026   9.985   6.003   9.604 -0.7348  0.5454  0.2851
    4FIC    C2935027   9.951   5.874   9.639 -1.3475  0.7749  0.5636
    4FIC    C3035028   9.906   5.777   9.544 -1.9023  0.8044  0.7882
    4FIC    C3135029   9.958   5.827   9.774 -1.4799  1.0039  0.6514
    5FIC     F135030  10.917   7.744   9.870  0.6537 -0.1521 -0.6683
    5FIC     F235031  11.104   7.876  10.017  0.0072  0.0770 -0.0384
    5FIC     O135032  10.887   7.275  10.137  0.1714 -0.1023 -0.6318
    5FIC     N535033  11.352   7.730  10.420 -1.2655  0.4423  0.8924
    5FIC     N635034  11.292   7.337  10.599 -1.5118  0.4351  0.7939
    5FIC    C1935035  11.056   7.233  10.373 -0.6172  0.1344 -0.0174
    5FIC    C2035036  11.056   7.346  10.300 -0.4706  0.1130 -0.0510
    5FIC    C2135037  10.966   7.360  10.180 -0.0622 -0.0111 -0.3750
    5FIC    C2235038  10.991   7.494  10.124  0.0031 -0.0029 -0.3262
    5FIC    C2335039  10.932   7.552  10.013  0.3386 -0.0950 -0.5567
    5FIC    C2435040  10.972   7.681   9.979  0.3317 -0.0654 -0.4528
    5FIC    C2535041  11.068   7.748  10.055 -0.0015  0.0527 -0.1287
    5FIC    C2635042  11.128   7.691  10.166 -0.3374  0.1451  0.1028
    5FIC    C2735043  11.089   7.561  10.202 -0.3359  0.1168  0.0021
    5FIC    C2835044  11.133   7.473  10.313 -0.6404  0.1929  0.1843
    5FIC    C2935045  11.226   7.503  10.410 -1.0087  0.3138  0.5088
    5FIC    C3035046  11.295   7.628  10.415 -1.1485  0.3841  0.7184
    5FIC    C3135047  11.261   7.411  10.513 -1.2832  0.3798  0.6638
    1BTD     S235048   6.202   4.749   3.991  0.3766  0.1680 -0.5313
    1BTD     N135049   6.241   4.581   4.044  0.1438  0.1936 -0.2750
    1BTD     N235050   6.357   4.819   4.049  0.4095  0.0705 -0.5002
    1BTD     N335051   6.743   4.661   4.265  0.0560 -0.0817  0.0257
    1BTD     N435052   6.601   4.368   4.258 -0.2714  0.0700  0.3033
    1BTD     C535053   6.431   4.474   4.156 -0.0690  0.1271  0.0236
    1BTD     C635054   6.361   4.587   4.100  0.1045  0.1314 -0.1843
    1BTD     C735055   6.426   4.720   4.103  0.2532  0.0626 -0.3103
    1BTD     C835056   6.557   4.733   4.162  0.2209 -0.0072 -0.2223
    1BTD    C1535057   6.620   4.620   4.216  0.0488 -0.0085 -0.0182
    1BTD    C1635058   6.558   4.492   4.213 -0.0945  0.0576  0.1033
    1BTD    C4335059   6.684   4.364   4.375  0.8654  0.1271  0.0292
    1BTD    C4435060   6.787   4.246   4.379  0.3229  0.9437 -0.5767
    1BTD    C4535061   6.890   4.253   4.266 -0.1884 -0.7850  0.5696
    1BTD    C4635062   6.960   4.133   4.245 -0.7008 -0.4778 -0.4644
    1BTD    C4735063   6.845   4.231   4.527  0.3530  0.6116  0.4698
    1BTD    C4835064   6.863   4.091   4.580  0.5057 -0.6194 -0.1869
    1BTD    C4935065   6.975   4.100   4.682  0.5481 -0.5082 -0.4727
    1BTD    C5035066   7.016   3.995   4.782 -0.3515  1.1949  0.4042
    1BTD    C7535067   6.869   4.602   4.217  0.9068  0.2900  0.0310
    1BTD    C7635068   7.021   4.619   4.233 -0.4698 -0.6906  1.3677
    1BTD    C7735069   7.092   4.575   4.358 -1.3214  0.8381 -0.5175
    1BTD    C7835070   7.238   4.606   4.382  0.5752  0.3496  0.1539
    1BTD    C7935071   7.085   4.570   4.096 -0.4608  0.6246 -2.5315
    1BTD    C8035072   7.106   4.421   4.064  0.5958 -0.7918  0.1266
    1BTD    C8135073   7.219   4.391   3.976 -0.1670  1.1143  0.9381
    1BTD    C8235074   7.217   4.453   3.839  0.2102  0.6429 -0.2074
    2TTP     S135075   6.278   4.216   4.117 -0.1122 -0.0386 -0.0685
    2TTP     S535076   6.539   4.019   4.396 -0.0732  0.1491  0.0280
    2TTP     C135077   6.402   3.907   4.356 -0.0423  0.0962  0.0702
    2TTP     C235078   6.313   3.961   4.268 -0.0523  0.0351  0.0429
    2TTP     C335079   6.350   4.093   4.228 -0.0850  0.0279 -0.0124
    2TTP     C435080   6.415   4.329   4.158 -0.1431  0.0143 -0.1107
    2TTP    C1735081   6.504   4.274   4.246 -0.1328  0.0755 -0.0834
    2TTP    C1835082   6.467   4.142   4.285 -0.1003  0.0827 -0.0283
    2TTP    C3235083   6.199   3.887   4.194 -0.8433  0.1095  0.4170
    2TTP    C3335084   6.234   3.793   4.074 -0.2922  1.0297  0.2272
    2TTP    C3435085   6.113   3.799   3.974 -0.2961  0.4937  0.3972
    2TTP    C3535086   6.007   3.703   4.013  0.4197 -0.7132  0.1882
    2TTP    C3635087   5.856   3.744   4.020  0.7379  0.2743  0.7791
    2TTP    C3735088   5.803   3.879   4.019  0.1484  0.1507 -0.5409
    2TTP    C3835089   5.653   3.883   4.041  0.1313  0.5971  0.9958
    2TTP    C3935090   5.613   4.033   4.019 -0.1369  0.3396  0.1170
    2TTP    C4035091   5.481   4.045   3.942  0.5502  0.2558 -0.6568
    2TTP    C4135092   5.499   4.130   3.821  0.7066 -0.1979 -0.6702
    2TTP    C4235093   5.436   4.270   3.833 -1.0419 -0.4241  0.3114
    3TTP     S135094   6.636   5.032   4.193  0.2758 -0.0391 -0.0447
    3TTP     S535095   6.960   4.904   4.445 -0.2211  0.4450  0.8508
    3TTP     C135096   6.949   5.086   4.452  0.0546  0.4958  0.1159
    3TTP     C235097   6.849   5.136   4.374  0.2244  0.3493 -0.2038
    3TTP     C335098   6.776   5.033   4.307  0.1427  0.1916  0.1198
    3TTP     C435099   6.646   4.851   4.186  0.0001 -0.0899  0.6902
    3TTP    C1735100   6.747   4.801   4.263 -0.1697  0.0567  1.0099
    3TTP    C1835101   6.819   4.904   4.331 -0.0880  0.2142  0.6863
    3TTP    C3235102   6.809   5.285   4.343  0.7382 -0.1942 -0.7111
    3TTP    C3335103   6.827   5.332   4.196 -0.5444  0.6073  0.1411
    3TTP    C3435104   6.965   5.367   4.131  0.5981  1.0727 -0.7774
    3TTP    C3535105   6.976   5.372   3.986  0.4633  0.4541  0.4946
    3TTP    C3635106   7.008   5.493   3.900  0.6891 -0.9610  0.1624
    3TTP    C3735107   6.951   5.506   3.746 -0.8696  1.1352 -1.4439
    3TTP    C3835108   7.050   5.585   3.670 -0.6139  0.9948 -1.3598
    3TTP    C3935109   7.132   5.499   3.573  1.2136  0.4251  1.0137
    3TTP    C4035110   7.278   5.539   3.559 -0.0537  0.8107 -0.8411
    3TTP    C4135111   7.341   5.495   3.430 -1.5922  0.6016 -1.4126
    3TTP    C4235112   7.407   5.365   3.450  0.0073  1.1184  0.6638
    4FIC     F135113   6.675   3.582   5.057  0.1441 -0.3399  0.0895
    4FIC     F235114   6.615   3.335   4.959  0.4184 -0.2918 -0.2029
    4FIC     O135115   6.491   3.898   4.657 -0.0697 -0.0759  0.3948
    4FIC     N535116   6.398   3.205   4.534  0.6603 -0.0346 -0.4053
    4FIC     N635117   6.266   3.502   4.241  0.4379  0.1621 -0.1076
    4FIC    C1935118   6.368   3.774   4.422  0.1163  0.0638  0.2241
    4FIC    C2035119   6.417   3.704   4.526  0.1595 -0.0045  0.1585
    4FIC    C2135120   6.478   3.775   4.644  0.0575 -0.0737  0.2540
    4FIC    C2235121   6.521   3.670   4.738  0.1384 -0.1378  0.1478
    4FIC    C2335122   6.583   3.687   4.862  0.0892 -0.2134  0.1830
    4FIC    C2435123   6.613   3.573   4.934  0.1857 -0.2641  0.0628
    4FIC    C2535124   6.582   3.446   4.884  0.3270 -0.2392 -0.0878
    4FIC    C2635125   6.520   3.428   4.760  0.3769 -0.1637 -0.1237
    4FIC    C2735126   6.489   3.543   4.686  0.2806 -0.1117 -0.0035
    4FIC    C2835127   6.424   3.559   4.554  0.2992 -0.0288 -0.0029
    4FIC    C2935128   6.379   3.458   4.472  0.4224  0.0167 -0.1279
    4FIC    C3035129   6.389   3.319   4.506  0.5529 -0.0116 -0.2799
    4FIC    C3135130   6.317   3.482   4.345  0.4302  0.0964 -0.1160
    5FIC     F135131   7.389   4.994   5.131  0.7671 -0.6534 -0.3216
    5FIC     F235132   7.544   5.204   5.052 -0.0006  0.1823  0.3489
    5FIC     O135133   7.027   4.978   4.728  0.8305 -0.6943 -0.3768
    5FIC     N535134   7.509   5.493   4.652 -1.0592  1.3542  1.2732
    5FIC     N635135   7.195   5.438   4.354 -0.8552  1.1538  1.0948
    5FIC    C1935136   7.047   5.172   4.510  0.1193  0.0894  0.2439
    5FIC    C2035137   7.132   5.168   4.614  0.1334  0.0672  0.2316
    5FIC    C2135138   7.115   5.065   4.723  0.5101 -0.3476 -0.0970
    5FIC    C2235139   7.223   5.089   4.820  0.4225 -0.2594 -0.0205
    5FIC    C2335140   7.249   5.018   4.937  0.6796 -0.5454 -0.2452
    5FIC    C2435141   7.358   5.059   5.013  0.5292 -0.3878 -0.1139
    5FIC    C2535142   7.437   5.167   4.973  0.1335  0.0425  0.2319
    5FIC    C2635143   7.412   5.238   4.856 -0.1247  0.3297  0.4570
    5FIC    C2735144   7.303   5.198   4.777  0.0222  0.1763  0.3289
    5FIC    C2835145   7.250   5.251   4.649 -0.1711  0.3941  0.4976
    5FIC    C2935146   7.300   5.357   4.577 -0.5585  0.8177  0.8357
    5FIC    C3035147   7.415   5.431   4.619 -0.8323  1.1113  1.0750
    5FIC    C3135148   7.242   5.401   4.455 -0.7194  1.0002  0.9762
    1BTD     S235149   2.413   7.642   6.306  0.2443 -0.3195  0.2104
    1BTD     N135150   2.408   7.724   6.146  0.4165 -0.3767  0.1764
    1BTD     N235151   2.344   7.783   6.396 -0.0122 -0.3481  0.0613
    1BTD     N335152   2.197   8.216   6.289 -0.2240 -0.5093 -0.3045
    1BTD     N435153   2.276   8.143   5.981  0.3041 -0.5448 -0.1628
    1BTD     C535154   2.338   7.944   6.064  0.3515 -0.4640 -0.0024
    1BTD     C635155   2.359   7.845   6.166  0.2809 -0.4123  0.0615
    1BTD     C735156   2.323   7.878   6.306  0.0410 -0.3964 -0.0030
    1BTD     C835157   2.268   8.008   6.336 -0.1163 -0.4327 -0.1280
    1BTD    C1535158   2.250   8.101   6.232 -0.0397 -0.4833 -0.1868
    1BTD    C1635159   2.285   8.069   6.098  0.1914 -0.4984 -0.1246
    1BTD    C4335160   2.281   8.287   5.971 -1.3444 -0.3177 -1.0246
    1BTD    C4435161   2.413   8.359   5.926 -1.4424 -0.6751  0.8591
    1BTD    C4535162   2.415   8.515   5.927  0.9008  0.7140  1.2323
    1BTD    C4635163   2.531   8.584   5.858 -0.1595 -0.3850 -0.7743
    1BTD    C4735164   2.552   8.304   5.977 -0.9344  0.3715 -0.8913
    1BTD    C4835165   2.571   8.336   6.135 -1.0117 -0.1817  0.7468
    1BTD    C4935166   2.591   8.233   6.236 -0.7887 -0.3504 -0.0391
    1BTD    C5035167   2.632   8.301   6.359 -1.2455  0.3052 -0.1171
    1BTD    C7535168   2.142   8.340   6.236 -0.9485 -0.6838  0.6142
    1BTD    C7635169   2.002   8.376   6.200 -0.9818  0.2674 -0.6955
    1BTD    C7735170   1.984   8.502   6.117  0.3458  0.2817 -1.3710
    1BTD    C7835171   1.903   8.496   5.987  0.3864 -0.3800  0.2323
    1BTD    C7935172   1.892   8.339   6.307  0.9314  1.0322 -0.3589
    1BTD    C8035173   1.879   8.438   6.421 -0.8092  0.2374 -1.5408
    1BTD    C8135174   1.753   8.418   6.508  0.1838  0.9706 -0.6610
    1BTD    C8235175   1.777   8.311   6.623  0.5324 -0.1757 -0.0024
    2TTP     S135176   2.415   7.847   5.785  0.4312 -0.0190 -0.1640
    2TTP     S535177   2.312   8.235   5.632  0.2928  0.1652  0.3904
    2TTP     C135178   2.387   8.137   5.497  0.1976  0.3340  0.2137
    2TTP     C235179   2.423   8.012   5.537  0.2347  0.2871  0.0321
    2TTP     C335180   2.393   7.988   5.675  0.3396  0.1161  0.0260
    2TTP     C435181   2.340   7.944   5.919  0.5264 -0.1880  0.0129
    2TTP    C1735182   2.304   8.070   5.880  0.4893 -0.1407  0.1943
    2TTP    C1835183   2.334   8.094   5.742  0.3843  0.0303  0.2005
    2TTP    C3235184   2.488   7.898   5.453  0.4931  0.6982 -0.5012
    2TTP    C3335185   2.626   7.842   5.484 -0.2643 -0.0270 -0.2624
    2TTP    C3435186   2.648   7.723   5.393 -1.5862 -0.1948  1.7522
    2TTP    C3535187   2.625   7.688   5.248  0.9142  0.1612 -0.1189
    2TTP    C3635188   2.660   7.783   5.133  1.6452 -0.6585  0.3478
    2TTP    C3735189   2.594   7.745   4.992 -0.4787 -0.0435  0.7455
    2TTP    C3835190   2.644   7.596   4.940  0.4020  0.6719  0.3856
    2TTP    C3935191   2.776   7.584   4.872  0.6916  0.4235 -1.2237
    2TTP    C4035192   2.828   7.675   4.764  0.3168  0.8293 -0.9347
    2TTP    C4135193   2.754   7.671   4.639  2.2555 -0.3738  0.5590
    2TTP    C4235194   2.814   7.762   4.533 -0.2651 -0.0557  1.0026
    3TTP     S135195   2.332   8.048   6.621  0.1168  0.3424  0.1488
    3TTP     S535196   2.253   8.468   6.573 -0.5255  0.1926 -0.1264
    3TTP     C135197   2.336   8.442   6.733 -0.3381  0.4425 -0.1827
    3TTP     C235198   2.365   8.311   6.757 -0.1287  0.5038 -0.1011
    3TTP     C335199   2.323   8.226   6.651 -0.1087  0.3550  0.0089
    3TTP     C435200   2.249   8.073   6.462 -0.0705  0.0918  0.2053
    3TTP    C1735201   2.220   8.204   6.437 -0.2799  0.0310  0.1236
    3TTP    C1835202   2.262   8.290   6.544 -0.2999  0.1798  0.0135
    3TTP    C3235203   2.413   8.242   6.894 -0.9912  0.0382 -0.3596
    3TTP    C3335204   2.493   8.112   6.901 -0.1745  0.3802  0.1594
    3TTP    C3435205   2.468   7.994   6.999 -0.6607 -0.8013 -0.4825
    3TTP    C3535206   2.418   8.045   7.146  0.4801 -0.8017 -0.2834
    3TTP    C3635207   2.390   7.903   7.211 -0.6656 -0.1721 -0.2348
    3TTP    C3735208   2.269   7.833   7.179  0.3611  1.8762  0.6888
    3TTP    C3835209   2.269   7.678   7.194  0.1854 -0.0277  0.5247
    3TTP    C3935210   2.367   7.598   7.112  0.8062  1.5579 -0.0172
    3TTP    C4035211   2.356   7.442   7.070  0.1428 -1.2829 -0.1802
    3TTP    C4135212   2.259   7.414   6.964 -0.4988  0.4538  0.6809
    3TTP    C4235213   2.213   7.266   6.954 -1.9532  0.9664  0.2841
    4FIC     F135214   2.503   8.870   5.137  0.0634  0.2639 -0.1342
    4FIC     F235215   2.425   8.757   4.901  0.0047  0.3378 -0.1507
    4FIC     O135216   2.490   8.440   5.465 -0.0859  0.2079 -0.2120
    4FIC     N535217   2.304   8.288   4.798 -0.1863  0.4046 -0.2297
    4FIC     N635218   2.310   7.975   5.102 -0.2910  0.3458 -0.2872
    4FIC    C1935219   2.411   8.179   5.358 -0.1950  0.2588 -0.2553
    4FIC    C2035220   2.418   8.292   5.284 -0.1552  0.2699 -0.2352
    4FIC    C2135221   2.459   8.422   5.347 -0.1001  0.2420 -0.2136
    4FIC    C2235222   2.455   8.523   5.239 -0.0668  0.2632 -0.1950
    4FIC    C2335223   2.485   8.659   5.249 -0.0128  0.2496 -0.1718
    4FIC    C2435224   2.474   8.735   5.134  0.0102  0.2754 -0.1574
    4FIC    C2535225   2.434   8.677   5.013 -0.0201  0.3134 -0.1659
    4FIC    C2635226   2.404   8.541   5.002 -0.0740  0.3273 -0.1889
    4FIC    C2735227   2.414   8.463   5.118 -0.0980  0.3018 -0.2038
    4FIC    C2835228   2.390   8.318   5.141 -0.1535  0.3073 -0.2289
    4FIC    C2935229   2.349   8.226   5.047 -0.1954  0.3409 -0.2434
    4FIC    C3035230   2.324   8.261   4.910 -0.1901  0.3755 -0.2358
    4FIC    C3135231   2.328   8.089   5.078 -0.2478  0.3433 -0.2674
    5FIC     F135232   2.400   9.259   6.628  0.0173  0.3421  0.1690
    5FIC     F235233   2.566   9.267   6.843  0.4529  0.2384 -0.1611
    5FIC     O135234   2.282   8.731   6.608  0.0146  0.3443  0.1249
    5FIC     N535235   2.721   8.901   7.139  1.0774  0.0908 -0.6669
    5FIC     N635236   2.595   8.487   7.079  0.9875  0.1137 -0.6348
    5FIC    C1935237   2.399   8.551   6.806  0.4299  0.2461 -0.2060
    5FIC    C2035238   2.422   8.683   6.803  0.4135  0.2494 -0.1820
    5FIC    C2135239   2.358   8.770   6.698  0.1941  0.3014 -0.0081
    5FIC    C2235240   2.404   8.907   6.723  0.2353  0.2911 -0.0271
    5FIC    C2335241   2.372   9.022   6.651  0.0820  0.3273  0.0993
    5FIC    C2435242   2.428   9.142   6.694  0.1599  0.3082  0.0505
    5FIC    C2535243   2.514   9.145   6.805  0.3844  0.2549 -0.1196
    5FIC    C2635244   2.546   9.031   6.877  0.5383  0.2186 -0.2463
    5FIC    C2735245   2.491   8.909   6.835  0.4625  0.2372 -0.1993
    5FIC    C2835246   2.505   8.771   6.889  0.5810  0.2093 -0.3014
    5FIC    C2935247   2.581   8.733   6.997  0.8034  0.1564 -0.4735
    5FIC    C3035248   2.658   8.826   7.075  0.9533  0.1206 -0.5794
    5FIC    C3135249   2.588   8.598   7.042  0.9034  0.1333 -0.5612
    1BTD     S235250   6.554   7.718   2.013  0.1041 -0.1705 -0.1541
    1BTD     N135251   6.556   7.876   1.928 -0.7285 -0.2251 -0.2901
    1BTD     N235252   6.588   7.621   1.866  0.9867 -0.1017 -0.0066
    1BTD     N335253   6.661   7.708   1.410  1.2821 -0.0601  0.0481
    1BTD     N435254   6.621   8.023   1.486 -0.8314 -0.2120 -0.3012
    1BTD     C535255   6.590   7.949   1.696 -0.7566 -0.2166 -0.2917
    1BTD     C635256   6.580   7.850   1.800 -0.3264 -0.1911 -0.2222
    1BTD     C735257   6.598   7.707   1.766  0.6336 -0.1220 -0.0635
    1BTD     C835258   6.625   7.670   1.629  1.1156 -0.0818  0.0177
    1BTD    C1535259   6.634   7.771   1.531  0.6668 -0.1089 -0.0549
    1BTD    C1635260   6.617   7.909   1.564 -0.2583 -0.1753 -0.2078
    1BTD    C4335261   6.576   8.043   1.344 -2.2305  1.1434 -0.3826
    1BTD    C4435262   6.430   8.083   1.307 -1.3894  0.3920 -0.5368
    1BTD    C4535263   6.413   8.225   1.254 -0.1244  0.3701  1.1244
    1BTD    C4635264   6.500   8.260   1.126 -0.3928 -0.1968 -1.6536
    1BTD    C4735265   6.310   7.997   1.355 -1.1407 -0.0961 -2.5757
    1BTD    C4835266   6.241   8.072   1.472 -0.3111 -0.0344  0.1685
    1BTD    C4935267   6.247   8.027   1.610  0.2686 -0.6936 -0.9020
    1BTD    C5035268   6.164   8.109   1.706  0.3824 -0.2266  0.4520
    1BTD    C7535269   6.734   7.767   1.287 -0.0977  0.8742  0.0662
    1BTD    C7635270   6.661   7.727   1.158 -0.5168 -0.1935  0.5670
    1BTD    C7735271   6.774   7.764   1.057  1.3001 -0.6142  1.1908
    1BTD    C7835272   6.771   7.698   0.928  0.0152  1.0329 -0.1663
    1BTD    C7935273   6.519   7.779   1.149 -0.0152 -0.9328  1.0041
    1BTD    C8035274   6.394   7.689   1.197  0.2681  0.0502  0.0684
    1BTD    C8135275   6.381   7.535   1.138  1.0623 -0.9445 -0.8970
    1BTD    C8235276   6.333   7.524   1.000  0.5380 -0.9296 -0.1329
    2TTP     S135277   6.607   8.223   1.823  0.1455  0.6439  0.3444
    2TTP     S535278   6.692   8.392   1.437  0.9300  0.2985  0.3629
    2TTP     C135279   6.718   8.520   1.563  0.8092  0.3720  0.3127
    2TTP     C235280   6.693   8.476   1.690  0.5597  0.4833  0.3041
    2TTP     C335281   6.653   8.339   1.692  0.4553  0.5140  0.3368
    2TTP     C435282   6.581   8.095   1.697  0.2664  0.5703  0.3946
    2TTP    C1735283   6.606   8.139   1.570  0.5158  0.4593  0.4033
    2TTP    C1835284   6.646   8.276   1.568  0.6204  0.4282  0.3706
    2TTP    C3235285   6.706   8.565   1.808 -1.5629 -0.3317 -1.0947
    2TTP    C3335286   6.570   8.640   1.847  0.7269  1.9163 -1.4003
    2TTP    C3435287   6.548   8.701   1.985 -1.0604 -0.8470 -0.7001
    2TTP    C3535288   6.587   8.602   2.098  0.1386 -2.2532  0.1642
    2TTP    C3635289   6.612   8.701   2.216 -0.5208  0.4151 -0.3544
    2TTP    C3735290   6.592   8.660   2.363 -0.8771 -0.0686 -0.4745
    2TTP    C3835291   6.456   8.630   2.408  0.4676 -0.9649  0.3043
    2TTP    C3935292   6.414   8.636   2.553 -0.3047 -0.9899  0.4532
    2TTP    C4035293   6.464   8.533   2.661  0.6870 -0.6517  0.8309
    2TTP    C4135294   6.415   8.387   2.648 -0.2868  0.6319 -0.5870
    2TTP    C4235295   6.285   8.343   2.719  0.3713  0.4916 -0.5636
    3TTP     S135296   6.679   7.374   1.630  0.3418 -0.7012  0.2313
    3TTP     S535297   6.765   7.410   1.210  0.3141 -1.0579  0.1944
    3TTP     C135298   6.795   7.238   1.261 -0.4061 -1.1968  0.1744
    3TTP     C235299   6.770   7.216   1.393 -0.4398 -1.0948  0.1845
    3TTP     C335300   6.727   7.335   1.460  0.1017 -0.9032  0.2086
    3TTP     C435301   6.649   7.546   1.579  1.0619 -0.5624  0.2513
    3TTP    C1735302   6.673   7.567   1.446  1.0956 -0.6644  0.2411
    3TTP    C1835303   6.717   7.448   1.380  0.5542 -0.8556  0.2171
    3TTP    C3235304   6.783   7.088   1.483 -0.2071 -0.0128  0.3829
    3TTP    C3335305   6.652   7.008   1.481  1.2347  0.1106 -0.4685
    3TTP    C3435306   6.642   6.915   1.601  1.3142 -0.2958 -0.2503
    3TTP    C3535307   6.504   6.914   1.668  0.7818  0.3643 -1.1143
    3TTP    C3635308   6.385   6.871   1.582  0.8891  0.2580 -0.5422
    3TTP    C3735309   6.269   6.800   1.635  0.5458 -0.3522 -0.1391
    3TTP    C3835310   6.205   6.714   1.530  0.7773  0.2979  1.4554
    3TTP    C3935311   6.066   6.665   1.588 -0.2585 -0.9300  0.7218
    3TTP    C4035312   5.989   6.602   1.473 -0.2538  0.8154 -0.0778
    3TTP    C4135313   5.868   6.683   1.407 -1.7738  0.2807 -0.8328
    3TTP    C4235314   5.755   6.718   1.506  0.9490 -0.1434 -0.7628
    4FIC     F135315   6.688   9.021   0.912  0.3422  0.0236  0.1517
    4FIC     F235316   6.799   9.217   1.064  0.0134  0.1605  0.2185
    4FIC     O135317   6.648   8.620   1.274  0.2953  0.0889  0.2187
    4FIC     N535318   6.932   9.213   1.541 -0.4929  0.4036  0.3623
    4FIC     N635319   6.878   8.861   1.793 -0.4632  0.4270  0.4011
    4FIC    C1935320   6.741   8.665   1.548 -0.0356  0.2428  0.3063
    4FIC    C2035321   6.746   8.758   1.451 -0.0108  0.2210  0.2868
    4FIC    C2135322   6.697   8.728   1.313  0.1631  0.1407  0.2417
    4FIC    C2235323   6.717   8.850   1.233  0.1447  0.1369  0.2305
    4FIC    C2335324   6.687   8.870   1.099  0.2712  0.0737  0.1920
    4FIC    C2435325   6.715   8.994   1.044  0.2234  0.0834  0.1889
    4FIC    C2535326   6.773   9.095   1.123  0.0539  0.1541  0.2233
    4FIC    C2635327   6.804   9.076   1.257 -0.0731  0.2172  0.2618
    4FIC    C2735328   6.775   8.951   1.314 -0.0271  0.2084  0.2656
    4FIC    C2835329   6.795   8.898   1.451 -0.1295  0.2630  0.3015
    4FIC    C2935330   6.849   8.967   1.557 -0.3010  0.3381  0.3410
    4FIC    C3035331   6.894   9.102   1.548 -0.4059  0.3738  0.3525
    4FIC    C3135332   6.865   8.908   1.687 -0.3893  0.3865  0.3738
    5FIC     F135333   6.802   7.144   0.439  0.9592 -0.0426  0.0983
    5FIC     F235334   6.830   6.877   0.478 -0.5237 -0.1805  0.3189
    5FIC     O135335   6.796   7.322   0.951  1.3188  0.3482 -0.0322
    5FIC     N535336   6.865   6.618   0.899 -2.3997 -0.1006  0.5430
    5FIC     N635337   6.855   6.811   1.291 -1.8197  0.2327  0.3966
    5FIC    C1935338   6.820   7.130   1.170  0.0297  0.3552  0.1322
    5FIC    C2035339   6.820   7.095   1.039 -0.0027  0.2623  0.1564
    5FIC    C2135340   6.808   7.200   0.933  0.6841  0.2652  0.0674
    5FIC    C2235341   6.812   7.129   0.803  0.4534  0.1510  0.1217
    5FIC    C2335342   6.803   7.184   0.676  0.8972  0.1129  0.0728
    5FIC    C2435343   6.810   7.097   0.568  0.5534  0.0009  0.1412
    5FIC    C2535344   6.824   6.959   0.589 -0.2108 -0.0701  0.2548
    5FIC    C2635345   6.832   6.903   0.716 -0.6570 -0.0325  0.3041
    5FIC    C2735346   6.826   6.990   0.826 -0.3188  0.0807  0.2363
    5FIC    C2835347   6.832   6.964   0.972 -0.6297  0.1460  0.2621
    5FIC    C2935348   6.846   6.841   1.032 -1.3587  0.1066  0.3645
    5FIC    C3035349   6.856   6.719   0.959 -1.9286 -0.0073  0.4623
    5FIC    C3135350   6.851   6.825   1.174 -1.6083  0.1762  0.3816
    1BTD     S235351   6.261   5.432   1.982 -0.2241 -0.2435 -0.6050
    1BTD     N135352   6.081   5.426   1.984 -0.2444  0.1699 -0.9395
    1BTD     N235353   6.272   5.573   2.094 -0.0900 -0.5614 -0.2151
    1BTD     N335354   5.970   5.848   2.326  0.1458 -0.4623 -0.0244
    1BTD     N435355   5.735   5.668   2.190 -0.0442  0.4386 -0.9169
    1BTD     C535356   5.903   5.555   2.093 -0.1377  0.2992 -0.9170
    1BTD     C635357   6.041   5.524   2.064 -0.1550  0.0557 -0.7529
    1BTD     C735358   6.148   5.606   2.125 -0.0687 -0.3537 -0.3474
    1BTD     C835359   6.112   5.714   2.213  0.0309 -0.4989 -0.1262
    1BTD    C1535360   5.976   5.740   2.239  0.0442 -0.2496 -0.2989
    1BTD    C1635361   5.873   5.661   2.180 -0.0392  0.1447 -0.6895
    1BTD    C4335362   5.636   5.733   2.289 -1.7371  1.3757  1.7895
    1BTD    C4435363   5.632   5.701   2.445 -1.0251  0.8724  0.4264
    1BTD    C4535364   5.688   5.555   2.471  0.3253  0.3926 -0.6458
    1BTD    C4635365   5.691   5.481   2.606  0.2605 -0.1416  0.0409
    1BTD    C4735366   5.500   5.716   2.502  1.9120 -1.0566 -0.0931
    1BTD    C4835367   5.388   5.634   2.430 -0.3028 -0.5725 -0.7411
    1BTD    C4935368   5.285   5.585   2.528  0.3379  0.3447  0.1402
    1BTD    C5035369   5.176   5.594   2.412  0.4018 -0.5936  0.4795
    1BTD    C7535370   5.865   5.948   2.373 -0.1958  0.7198 -0.2257
    1BTD    C7635371   5.872   5.981   2.534  2.0442 -1.3865  0.9160
    1BTD    C7735372   5.759   6.078   2.584 -0.2975 -0.2480 -0.6189
    1BTD    C7835373   5.613   6.022   2.607 -0.8203 -0.7854 -0.0271
    1BTD    C7935374   5.894   5.879   2.637 -0.9340  0.0768  0.8140
    1BTD    C8035375   5.973   5.895   2.767  0.4310 -1.0296  0.5607
    1BTD    C8135376   6.122   5.943   2.767 -0.3227 -0.8779  1.2037
    1BTD    C8235377   6.192   5.954   2.898  0.4574  0.0267 -0.4381
    2TTP     S135378   5.714   5.368   1.942 -0.3637  0.0851 -0.2044
    2TTP     S535379   5.375   5.598   2.072 -0.1972  0.1756  0.0701
    2TTP     C135380   5.316   5.465   1.964 -0.3020  0.3004 -0.0266
    2TTP     C235381   5.418   5.386   1.917 -0.3593  0.2795 -0.1170
    2TTP     C335382   5.545   5.428   1.965 -0.3231  0.1647 -0.1133
    2TTP     C435383   5.773   5.502   2.051 -0.2588 -0.0396 -0.1078
    2TTP    C1735384   5.672   5.581   2.097 -0.2014 -0.0190 -0.0173
    2TTP    C1835385   5.544   5.538   2.049 -0.2379  0.0960 -0.0210
    2TTP    C3235386   5.421   5.285   1.805 -0.7162  1.0302  0.6364
    2TTP    C3335387   5.320   5.316   1.683  1.1926  0.6677  0.6798
    2TTP    C3435388   5.242   5.191   1.625 -1.1608 -0.0370 -0.5985
    2TTP    C3535389   5.169   5.219   1.497 -0.9503  0.1609 -0.4603
    2TTP    C3635390   5.159   5.101   1.405 -0.6763  0.1882 -0.1617
    2TTP    C3735391   5.116   4.963   1.462  0.0635  0.3374  0.0211
    2TTP    C3835392   5.136   4.867   1.357  0.6660  0.5811  0.3953
    2TTP    C3935393   5.241   4.750   1.364  0.9455 -0.4257 -0.9575
    2TTP    C4035394   5.233   4.641   1.261 -0.1187 -0.3349  0.0841
    2TTP    C4135395   5.302   4.540   1.334 -0.1330 -0.9065 -0.2750
    2TTP    C4235396   5.323   4.402   1.258  1.0913 -0.2231 -0.0172
    3TTP     S135397   6.363   5.849   2.312 -0.1696  0.1312 -0.7005
    3TTP     S535398   6.130   6.161   2.494  0.1246 -0.2412  0.3272
    3TTP     C135399   6.306   6.197   2.521  0.1726 -0.2431  0.0227
    3TTP     C235400   6.388   6.102   2.466  0.0845 -0.1281 -0.3126
    3TTP     C335401   6.315   5.998   2.401 -0.0240 -0.0346 -0.3411
    3TTP     C435402   6.186   5.813   2.285 -0.2176  0.1332 -0.3961
    3TTP    C1735403   6.104   5.907   2.339 -0.1294  0.0182 -0.0607
    3TTP    C1835404   6.177   6.011   2.404 -0.0211 -0.0753 -0.0321
    3TTP    C3235405   6.540   6.103   2.455  0.4163 -0.0030  1.4025
    3TTP    C3335406   6.619   6.162   2.343 -0.6559  1.2242 -0.1606
    3TTP    C3435407   6.759   6.194   2.362 -0.2024 -1.0809  1.1056
    3TTP    C3535408   6.842   6.057   2.376 -0.3810  0.6537 -1.7777
    3TTP    C3635409   6.991   6.077   2.424 -0.2252 -0.3337  0.1506
    3TTP    C3735410   7.061   6.196   2.364  0.2207  0.5604  0.1110
    3TTP    C3835411   7.046   6.184   2.212 -0.0108 -1.5409 -0.5403
    3TTP    C3935412   7.123   6.263   2.108  0.1160  0.8477  0.6471
    3TTP    C4035413   7.218   6.204   2.009 -1.1782  0.0710 -0.6021
    3TTP    C4135414   7.348   6.134   2.052 -0.8391  0.1768 -1.2819
    3TTP    C4235415   7.395   6.124   2.205  0.0393 -1.7376 -0.3727
    4FIC     F135416   4.638   5.909   2.027  0.3966  0.5474  0.7583
    4FIC     F235417   4.493   5.682   1.986  0.0890  0.8606  0.0692
    4FIC     O135418   5.143   5.716   1.990  0.1403 -0.1072  0.6406
    4FIC     N535419   4.645   5.218   1.902 -0.5361  0.8442 -1.0055
    4FIC     N635420   5.069   5.114   1.882 -0.6742  0.2695 -0.9586
    4FIC    C1935421   5.184   5.431   1.939 -0.2446 -0.0406 -0.0596
    4FIC    C2035422   5.062   5.488   1.950 -0.1681  0.1121 -0.0031
    4FIC    C2135423   5.049   5.636   1.976  0.0309  0.0654  0.3647
    4FIC    C2235424   4.905   5.665   1.982  0.0689  0.2645  0.3314
    4FIC    C2335425   4.844   5.788   2.004  0.2346  0.2996  0.6011
    4FIC    C2435426   4.705   5.790   2.005  0.2374  0.5019  0.5051
    4FIC    C2535427   4.631   5.673   1.984  0.0785  0.6627  0.1498
    4FIC    C2635428   4.691   5.550   1.962 -0.0871  0.6288 -0.1205
    4FIC    C2735429   4.831   5.546   1.961 -0.0926  0.4252 -0.0286
    4FIC    C2835430   4.925   5.433   1.940 -0.2446  0.3380 -0.2482
    4FIC    C2935431   4.891   5.301   1.917 -0.4221  0.4458 -0.6097
    4FIC    C3035432   4.756   5.256   1.909 -0.4840  0.6646 -0.8260
    4FIC    C3135433   4.989   5.199   1.898 -0.5597  0.3483 -0.7995
    5FIC     F135434   5.941   6.838   2.891 -0.2242 -0.7150 -0.0879
    5FIC     F235435   6.174   6.884   3.024 -0.2687 -0.1283 -0.2097
    5FIC     O135436   6.081   6.418   2.580  0.5060 -0.7248  0.2496
    5FIC     N535437   6.609   6.651   2.992  0.1880  0.7087 -0.1445
    5FIC     N635438   6.672   6.313   2.722  0.7675  0.5828  0.1438
    5FIC    C1935439   6.353   6.313   2.596  0.7229 -0.1674  0.2530
    5FIC    C2035440   6.309   6.417   2.669  0.5410 -0.1879  0.1729
    5FIC    C2135441   6.167   6.465   2.656  0.4389 -0.4824  0.1768
    5FIC    C2235442   6.153   6.578   2.749  0.2453 -0.4255  0.0779
    5FIC    C2335443   6.039   6.656   2.771  0.0985 -0.6307  0.0459
    5FIC    C2435444   6.049   6.758   2.864 -0.0731 -0.5244 -0.0513
    5FIC    C2535445   6.169   6.782   2.932 -0.0954 -0.2218 -0.1140
    5FIC    C2635446   6.283   6.705   2.910  0.0503 -0.0160 -0.0825
    5FIC    C2735447   6.275   6.601   2.816  0.2249 -0.1194  0.0157
    5FIC    C2835448   6.376   6.502   2.770  0.4057  0.0386  0.0716
    5FIC    C2935449   6.506   6.493   2.813  0.4411  0.3375  0.0361
    5FIC    C3035450   6.562   6.580   2.911  0.3017  0.5405 -0.0631
    5FIC    C3135451   6.596   6.394   2.763  0.6204  0.4706  0.0955
    1BTD     S235452   7.528   6.334   0.009 -0.1333 -0.2628 -0.0071
    1BTD     N135453   7.638   6.288   0.143  0.1694 -0.6536 -0.3845
    1BTD     N235454   7.645   6.445  -0.070 -0.4339  0.2360  0.2372
    1BTD     N335455   8.085   6.588   0.013 -0.5002  0.5468  0.0540
    1BTD     N435456   8.076   6.395   0.275  0.2432 -0.5497 -0.7121
    1BTD     C535457   7.867   6.346   0.209  0.1988 -0.5863 -0.5463
    1BTD     C635458   7.751   6.354   0.124  0.0376 -0.4052 -0.3126
    1BTD     C735459   7.755   6.442   0.004 -0.3002  0.0930  0.0355
    1BTD     C835460   7.875   6.517  -0.023 -0.4597  0.3850  0.1324
    1BTD    C1535461   7.986   6.506   0.063 -0.2920  0.1927 -0.1050
    1BTD    C1635462   7.982   6.422   0.177  0.0333 -0.2874 -0.4403
    1BTD    C4335463   8.229   6.399   0.272  0.2224 -0.0590  1.2740
    1BTD    C4435464   8.301   6.265   0.240 -0.5843 -0.0845  0.0639
    1BTD    C4535465   8.461   6.257   0.226  0.8240  0.5320  0.8068
    1BTD    C4635466   8.565   6.318   0.322  1.0251 -0.6473 -1.2030
    1BTD    C4735467   8.243   6.191   0.096  0.3561 -0.1953 -0.4615
    1BTD    C4835468   8.231   6.041   0.114 -0.0451 -0.0718 -0.9049
    1BTD    C4935469   8.211   5.959  -0.010 -0.5300 -0.3052 -0.1669
    1BTD    C5035470   8.068   5.955  -0.073 -1.4173  0.0586 -0.1033
    1BTD    C7535471   8.206   6.666   0.066 -0.9869 -0.7645  0.8019
    1BTD    C7635472   8.345   6.620   0.030 -0.4927 -0.4312 -0.5516
    1BTD    C7735473   8.363   6.472  -0.028  1.5655 -0.7517  0.9343
    1BTD    C7835474   8.492   6.430  -0.080  0.2561  0.0976 -0.6047
    1BTD    C7935475   8.467   6.695   0.092 -0.6782 -0.3870  0.4113
    1BTD    C8035476   8.478   6.824   0.020 -0.2617  0.0132  0.4927
    1BTD    C8135477   8.584   6.917   0.083 -0.5013  0.4175 -0.6396
    1BTD    C8235478   8.518   7.049   0.136  0.2919  0.9433 -0.8475
    2TTP     S135479   7.803   6.186   0.448  0.3546  0.5218 -0.7550
    2TTP     S535480   8.172   6.305   0.633  0.3648 -0.8461  0.1307
    2TTP     C135481   8.070   6.221   0.758 -0.0486 -0.8882 -0.2341
    2TTP     C235482   7.950   6.179   0.708 -0.0761 -0.4684 -0.5291
    2TTP     C335483   7.934   6.212   0.570  0.2285 -0.0981 -0.4777
    2TTP     C435484   7.906   6.270   0.324  0.7678  0.5640 -0.3902
    2TTP    C1735485   8.026   6.312   0.374  0.7955  0.1439 -0.0952
    2TTP    C1835486   8.041   6.279   0.512  0.4909 -0.2260 -0.1466
    2TTP    C3235487   7.862   6.086   0.789  0.8603 -1.1914  1.2852
    2TTP    C3335488   7.715   6.139   0.804  0.6779  0.8075  0.9435
    2TTP    C3435489   7.600   6.027   0.762 -0.5568 -0.8131 -0.6180
    2TTP    C3535490   7.582   5.902   0.858  0.5390  1.5109  0.5178
    2TTP    C3635491   7.674   5.792   0.816  0.8048  0.4231 -0.0221
    2TTP    C3735492   7.649   5.722   0.672 -0.8936 -0.5894  0.6455
    2TTP    C3835493   7.523   5.656   0.602  0.0060  0.8195  0.7384
    2TTP    C3935494   7.534   5.513   0.611 -0.5025  0.4895 -0.0504
    2TTP    C4035495   7.526   5.457   0.753  0.9882  0.1705  0.0066
    2TTP    C4135496   7.536   5.298   0.753  0.9177 -1.8587  0.0818
    2TTP    C4235497   7.478   5.250   0.887  0.5260  0.6790  0.0859
    3TTP     S135498   7.845   6.674  -0.286 -0.0471  0.2041 -0.0257
    3TTP     S535499   8.264   6.771  -0.276 -0.0999  0.4141  0.1717
    3TTP     C135500   8.195   6.829  -0.434  0.0465 -0.0403 -0.0608
    3TTP     C235501   8.061   6.802  -0.446  0.0715 -0.1321 -0.1352
    3TTP     C335502   8.009   6.735  -0.331 -0.0241  0.1535 -0.0117
    3TTP     C435503   7.914   6.617  -0.127 -0.1934  0.6586  0.2067
    3TTP    C1735504   8.048   6.643  -0.115 -0.2185  0.7504  0.2814
    3TTP    C1835505   8.100   6.710  -0.230 -0.1228  0.4647  0.1578
    3TTP    C3235506   7.953   6.813  -0.561 -1.7724 -1.4051 -0.8664
    3TTP    C3335507   7.887   6.942  -0.601  0.4684 -0.2089  0.2002
    3TTP    C3435508   7.957   7.081  -0.621 -0.0763 -0.0872 -1.2703
    3TTP    C3535509   8.020   7.144  -0.502  2.2243  0.4791 -1.1702
    3TTP    C3635510   8.064   7.287  -0.544  0.0831  1.1477  1.3004
    3TTP    C3735511   8.160   7.337  -0.427 -1.2280 -0.8900 -0.6175
    3TTP    C3835512   8.092   7.437  -0.318 -0.9914 -0.3530  0.4160
    3TTP    C3935513   7.976   7.506  -0.373  0.3871  0.5409  0.7570
    3TTP    C4035514   7.937   7.625  -0.283  0.5418  0.8649 -0.1125
    3TTP    C4135515   7.810   7.690  -0.332  1.7823 -0.1969  0.0345
    3TTP    C4235516   7.787   7.791  -0.214  0.1281  0.1707 -0.2974
    4FIC     F135517   8.482   6.726   1.259 -0.0405  0.2403 -0.1139
    4FIC     F235518   8.483   6.529   1.447 -0.2067  0.3303 -0.0182
    4FIC     O135519   8.210   6.485   0.858  0.1504  0.1142 -0.1676
    4FIC     N535520   8.289   6.074   1.431 -0.3097  0.3701  0.0812
    4FIC     N635521   8.077   5.925   1.080 -0.1273  0.2532  0.0199
    4FIC    C1935522   8.114   6.211   0.895  0.0589  0.1555 -0.0952
    4FIC    C2035523   8.183   6.279   0.989  0.0176  0.1837 -0.0854
    4FIC    C2135524   8.229   6.420   0.962  0.0689  0.1596 -0.1245
    4FIC    C2235525   8.299   6.464   1.084  0.0041  0.2007 -0.1018
    4FIC    C2335526   8.360   6.587   1.107  0.0205  0.1971 -0.1236
    4FIC    C2435527   8.421   6.606   1.230 -0.0514  0.2412 -0.0946
    4FIC    C2535528   8.421   6.505   1.327 -0.1372  0.2876 -0.0453
    4FIC    C2635529   8.361   6.381   1.304 -0.1540  0.2917 -0.0233
    4FIC    C2735530   8.299   6.360   1.180 -0.0820  0.2472 -0.0520
    4FIC    C2835531   8.227   6.243   1.126 -0.0770  0.2385 -0.0401
    4FIC    C2935532   8.205   6.123   1.190 -0.1469  0.2747  0.0046
    4FIC    C3035533   8.252   6.096   1.322 -0.2363  0.3270  0.0466
    4FIC    C3135534   8.135   6.015   1.129 -0.1357  0.2627  0.0128
    5FIC     F135535   8.948   7.118  -0.573  0.0751  0.7418 -0.1235
    5FIC     F235536   8.905   7.084  -0.839  0.5238 -0.3477 -0.0706
    5FIC     O135537   8.467   6.972  -0.372 -0.1209  1.1342 -0.3047
    5FIC     N535538   8.499   6.932  -1.079  1.0285 -1.6347 -0.1235
    5FIC     N635539   8.132   6.825  -0.868  0.7849 -1.1085 -0.2759
    5FIC    C1935540   8.255   6.888  -0.555  0.2378  0.2324 -0.3184
    5FIC    C2035541   8.377   6.926  -0.595  0.2699  0.1763 -0.2749
    5FIC    C2135542   8.481   6.968  -0.495  0.0768  0.6592 -0.2706
    5FIC    C2235543   8.602   7.003  -0.572  0.1695  0.4563 -0.2189
    5FIC    C2335544   8.725   7.047  -0.522  0.0546  0.7540 -0.1969
    5FIC    C2435545   8.825   7.074  -0.615  0.1782  0.4727 -0.1471
    5FIC    C2535546   8.802   7.056  -0.752  0.4090 -0.0888 -0.1200
    5FIC    C2635547   8.680   7.012  -0.802  0.5248 -0.3881 -0.1414
    5FIC    C2735548   8.578   6.985  -0.710  0.4025 -0.1105 -0.1919
    5FIC    C2835549   8.439   6.937  -0.730  0.4735 -0.3048 -0.2255
    5FIC    C2935550   8.378   6.908  -0.850  0.6871 -0.8304 -0.2127
    5FIC    C3035551   8.445   6.922  -0.976  0.8743 -1.2709 -0.1636
    5FIC    C3135552   8.243   6.863  -0.859  0.7398 -0.9805 -0.2475
    1BTD     S235553   2.585   6.061  10.686 -0.4723 -0.0644 -0.2191
    1BTD     N135554   2.718   5.947  10.647 -0.6790 -0.1366 -0.7327
    1BTD     N235555   2.693   6.203  10.706 -0.2263 -0.3191  0.3002
    1BTD     N335556   3.154   6.287  10.677 -0.0982 -0.9688  0.4320
    1BTD     N435557   3.185   5.971  10.604 -0.6561 -0.7440 -0.8411
    1BTD     C535558   2.962   5.963  10.626 -0.6603 -0.4565 -0.7737
    1BTD     C635559   2.831   6.017  10.651 -0.5602 -0.3366 -0.5021
    1BTD     C735560   2.817   6.161  10.684 -0.3068 -0.4388  0.0761
    1BTD     C835561   2.934   6.243  10.690 -0.1662 -0.6557  0.3536
    1BTD    C1535562   3.061   6.186  10.664 -0.2717 -0.7666  0.0715
    1BTD    C1635563   3.074   6.048  10.633 -0.5159 -0.6684 -0.4854
    1BTD    C4335564   3.327   5.996  10.622  0.4599  0.3161  0.1944
    1BTD    C4435565   3.404   5.954  10.751 -0.3022  0.4768  1.2714
    1BTD    C4535566   3.387   6.069  10.858 -0.3230 -0.2715  0.2681
    1BTD    C4635567   3.426   6.055  11.013 -0.0437 -0.0425 -0.2691
    1BTD    C4735568   3.541   5.867  10.727  0.2293 -0.1824 -0.1850
    1BTD    C4835569   3.672   5.938  10.672  0.0411  0.8773 -2.0353
    1BTD    C4935570   3.683   6.046  10.568  0.3409 -0.0620  0.4257
    1BTD    C5035571   3.842   6.080  10.548  0.6901  1.0478  0.0457
    1BTD    C7535572   3.262   6.310  10.576  1.5562  0.0241  0.3765
    1BTD    C7635573   3.378   6.398  10.574  0.6046 -1.9103  1.5511
    1BTD    C7735574   3.460   6.375  10.697 -0.0435 -0.1399 -0.2485
    1BTD    C7835575   3.600   6.446  10.724  1.8394 -1.1580 -1.1282
    1BTD    C7935576   3.435   6.370  10.431  0.5551  0.1285  0.8588
    1BTD    C8035577   3.523   6.479  10.370  0.3404  0.4613  0.0851
    1BTD    C8135578   3.616   6.449  10.243  1.4260  0.2511 -0.4476
    1BTD    C8235579   3.558   6.476  10.112  0.2663  0.7790  0.4257
    2TTP     S135580   2.924   5.686  10.509 -0.5036 -0.2393 -0.3195
    2TTP     S535581   3.350   5.635  10.519 -0.4704  0.0691 -0.1295
    2TTP     C135582   3.275   5.480  10.459 -0.3349  0.0011 -0.1264
    2TTP     C235583   3.139   5.487  10.453 -0.3372 -0.0979 -0.1848
    2TTP     C335584   3.089   5.615  10.495 -0.4460 -0.1239 -0.2341
    2TTP     C435585   2.999   5.841  10.569 -0.6390 -0.1712 -0.3226
    2TTP    C1735586   3.135   5.834  10.576 -0.6368 -0.0722 -0.2642
    2TTP    C1835587   3.185   5.706  10.534 -0.5280 -0.0463 -0.2148
    2TTP    C3235588   3.037   5.364  10.441 -0.5853 -0.0650  0.2811
    2TTP    C3335589   2.963   5.281  10.556 -1.0157 -1.3369 -0.5017
    2TTP    C3435590   2.835   5.363  10.580  0.2502  0.2749 -0.0557
    2TTP    C3535591   2.785   5.267  10.676 -0.5192 -1.6496 -0.7460
    2TTP    C3635592   2.665   5.342  10.724  0.2407 -1.4468  0.6372
    2TTP    C3735593   2.695   5.390  10.873 -0.5507 -0.7304 -0.8173
    2TTP    C3835594   2.604   5.509  10.910  0.5876  0.7309 -1.4315
    2TTP    C3935595   2.642   5.553  11.058  0.6608 -1.6580  0.6970
    2TTP    C4035596   2.557   5.484  11.158 -0.4803  0.5398  0.4285
    2TTP    C4135597   2.520   5.571  11.274 -0.4348 -0.3842 -1.0276
    2TTP    C4235598   2.391   5.553  11.343  0.4152  0.8717 -0.1888
    3TTP     S135599   2.850   6.533  10.707 -0.3257  0.2163  0.0737
    3TTP     S535600   3.262   6.629  10.786 -0.2132 -0.4021  0.2475
    3TTP     C135601   3.160   6.774  10.827 -0.0003 -0.2026  0.0785
    3TTP     C235602   3.027   6.753  10.805 -0.0225  0.0000  0.0150
    3TTP     C335603   3.001   6.622  10.755 -0.2084  0.0052  0.0973
    3TTP     C435604   2.952   6.389  10.666 -0.5386  0.0169  0.2429
    3TTP    C1735605   3.086   6.410  10.688 -0.5164 -0.1858  0.3064
    3TTP    C1835606   3.112   6.541  10.738 -0.3303 -0.1910  0.2241
    3TTP    C3235607   2.897   6.837  10.821 -1.1232 -0.7723 -0.0076
    3TTP    C3335608   2.890   6.986  10.869 -0.7963  1.3170  0.6050
    3TTP    C3435609   2.758   7.060  10.864 -0.7495 -0.6103 -0.2510
    3TTP    C3535610   2.692   7.061  10.730 -0.7018  0.0042 -0.1756
    3TTP    C3635611   2.777   7.088  10.589  1.0334  0.1542  0.3327
    3TTP    C3735612   2.698   7.099  10.465  0.1895 -0.2971  0.7458
    3TTP    C3835613   2.665   7.236  10.401  0.8899 -0.0638 -0.5372
    3TTP    C3935614   2.510   7.261  10.411  0.3664  0.5236  0.0161
    3TTP    C4035615   2.465   7.318  10.286 -1.0866 -0.8588  0.9373
    3TTP    C4135616   2.463   7.465  10.304  0.4330 -0.1529  0.3780
    3TTP    C4235617   2.344   7.543  10.253  0.7131 -2.6723  0.6572
    4FIC     F135618   4.052   5.173  10.448  0.3598  0.8998 -0.8571
    4FIC     F235619   3.952   4.946  10.336  0.2310 -0.0685  1.1356
    4FIC     O135620   3.601   5.467  10.505  0.2416  0.8783 -1.6515
    4FIC     N535621   3.486   4.830  10.216 -0.0386 -1.4764  3.4344
    4FIC     N635622   3.154   5.105  10.284 -0.1051 -1.2978  2.4123
    4FIC    C1935623   3.345   5.355  10.419  0.0763 -0.0545 -0.0299
    4FIC    C2035624   3.462   5.290  10.409  0.1112 -0.0113  0.0923
    4FIC    C2135625   3.590   5.354  10.455  0.1963  0.4810 -0.7777
    4FIC    C2235626   3.698   5.257  10.430  0.2152  0.3970 -0.3870
    4FIC    C2335627   3.833   5.272  10.457  0.2870  0.7437 -0.9141
    4FIC    C2435628   3.917   5.165  10.424  0.2905  0.5766 -0.3827
    4FIC    C2535629   3.865   5.049  10.366  0.2243  0.0776  0.6444
    4FIC    C2635630   3.729   5.033  10.340  0.1523 -0.2707  1.1749
    4FIC    C2735631   3.644   5.140  10.372  0.1475 -0.1084  0.6495
    4FIC    C2835632   3.497   5.155  10.357  0.0809 -0.3791  0.9847
    4FIC    C2935633   3.410   5.063  10.304  0.0057 -0.8755  1.9400
    4FIC    C3035634   3.452   4.935  10.256 -0.0184 -1.2041  2.7583
    4FIC    C3135635   3.269   5.086  10.293 -0.0548 -1.1051  2.1942
    5FIC     F135636   3.804   6.878  11.325 -0.4643  0.1153  0.5853
    5FIC     F235637   3.801   7.144  11.270  0.1194 -0.0350 -0.2115
    5FIC     O135638   3.371   6.710  11.048 -0.7405  0.2074  0.9589
    5FIC     N535639   3.487   7.408  10.992  0.7618 -0.1851 -1.0903
    5FIC     N635640   3.149   7.223  10.787  0.4284 -0.0830 -0.6375
    5FIC    C1935641   3.214   6.905  10.896 -0.2809  0.0965  0.3307
    5FIC    C2035642   3.323   6.937  10.968 -0.2343  0.0794  0.2677
    5FIC    C2135643   3.398   6.831  11.043 -0.4818  0.1394  0.6063
    5FIC    C2235644   3.511   6.899  11.110 -0.3560  0.1014  0.4351
    5FIC    C2335645   3.608   6.842  11.192 -0.5007  0.1341  0.6332
    5FIC    C2435646   3.705   6.927  11.244 -0.3352  0.0869  0.4082
    5FIC    C2535647   3.703   7.065  11.215 -0.0345  0.0094 -0.0023
    5FIC    C2635648   3.606   7.122  11.134  0.1113 -0.0235 -0.2019
    5FIC    C2735649   3.507   7.037  11.080 -0.0525  0.0235  0.0210
    5FIC    C2835650   3.392   7.066  10.992  0.0343  0.0069 -0.0980
    5FIC    C2935651   3.355   7.189  10.942  0.3106 -0.0627 -0.4756
    5FIC    C3035652   3.428   7.309  10.970  0.5577 -0.1297 -0.8121
    5FIC    C3135653   3.242   7.207  10.857  0.3737 -0.0734 -0.5624
    1BTD     S235654  10.950   2.163   1.765 -0.2193 -0.5724  0.5104
    1BTD     N135655  10.917   2.109   1.933  0.3865 -0.4965  0.6568
    1BTD     N235656  10.988   2.333   1.812 -0.6721 -0.3853  0.2206
    1BTD     N335657  11.008   2.579   2.211 -0.5009  0.1333 -0.1057
    1BTD     N435658  10.921   2.303   2.360  0.8032 -0.0038  0.4317
    1BTD     C535659  10.920   2.213   2.154  0.5882 -0.2375  0.5328
    1BTD     C635660  10.936   2.214   2.011  0.2282 -0.3435  0.4907
    1BTD     C735661  10.976   2.339   1.943 -0.3643 -0.2812  0.2465
    1BTD     C835662  10.998   2.458   2.022 -0.5670 -0.1162  0.0567
    1BTD    C1535663  10.981   2.453   2.162 -0.1991 -0.0169  0.1062
    1BTD    C1635664  10.943   2.332   2.227  0.3717 -0.0769  0.3415
    1BTD    C4335665  10.850   2.377   2.459  0.1627 -0.2088 -0.9875
    1BTD    C4435666  10.709   2.340   2.508  0.3872  0.4467  0.5651
    1BTD    C4535667  10.613   2.352   2.390 -0.7291  0.4798  0.2974
    1BTD    C4635668  10.480   2.281   2.407  1.2629  0.4281  0.4577
    1BTD    C4735669  10.665   2.391   2.644  0.3996  0.4212 -0.5924
    1BTD    C4835670  10.735   2.355   2.780  0.2904 -1.5513  0.1263
    1BTD    C4935671  10.644   2.390   2.897  0.2522  0.5000 -0.4104
    1BTD    C5035672  10.729   2.436   3.005  0.6027 -1.5197  1.4192
    1BTD    C7535673  10.926   2.644   2.310 -0.0618  0.2379 -0.0613
    1BTD    C7635674  10.813   2.718   2.250  0.0823 -0.5421 -1.6278
    1BTD    C7735675  10.746   2.787   2.374 -1.1149 -0.3979 -0.3679
    1BTD    C7835676  10.816   2.905   2.456 -0.4127 -0.5461  0.4173
    1BTD    C7935677  10.720   2.622   2.182  0.1846  0.4556 -0.5675
    1BTD    C8035678  10.563   2.620   2.166  0.6690  0.5345  1.2384
    1BTD    C8135679  10.488   2.725   2.088  1.3392 -0.2343  1.6814
    1BTD    C8235680  10.472   2.858   2.172 -0.2823 -0.6039 -0.5338
    2TTP     S135681  10.961   1.937   2.255 -0.0837  0.4493 -0.1924
    2TTP     S535682  10.956   2.082   2.660  0.1845  0.2221 -0.1070
    2TTP     C135683  10.994   1.904   2.663  0.7071  0.3264 -0.2618
    2TTP     C235684  10.997   1.849   2.538  0.6547  0.4027 -0.2973
    2TTP     C335685  10.971   1.945   2.435  0.2005  0.3816 -0.2035
    2TTP     C435686  10.924   2.115   2.253 -0.6061  0.3451 -0.0375
    2TTP    C1735687  10.920   2.170   2.377 -0.5536  0.2687 -0.0020
    2TTP    C1835688  10.947   2.074   2.480 -0.0997  0.2899 -0.0959
    2TTP    C3235689  11.042   1.710   2.495  0.2391 -0.9995 -0.6430
    2TTP    C3335690  11.152   1.668   2.412 -1.6869 -0.1226  0.5044
    2TTP    C3435691  11.294   1.710   2.449  0.1589 -0.5407 -1.4747
    2TTP    C3535692  11.381   1.596   2.476  0.3266  0.3097  0.7707
    2TTP    C3635693  11.502   1.584   2.370  0.3568  0.5725 -0.6120
    2TTP    C3735694  11.462   1.510   2.241 -0.3188 -0.4435  0.1551
    2TTP    C3835695  11.402   1.364   2.224  0.7495 -1.2960  0.1353
    2TTP    C3935696  11.243   1.347   2.257 -0.9006 -0.1314  0.6588
    2TTP    C4035697  11.175   1.214   2.201 -0.2682  0.1472 -0.0384
    2TTP    C4135698  11.038   1.239   2.140  0.3007  1.1805 -0.8332
    2TTP    C4235699  11.019   1.332   2.029 -0.5122  0.4032 -0.5085
    3TTP     S135700  11.095   2.686   1.852  0.1896 -0.1966  0.1728
    3TTP     S535701  11.212   2.897   2.208  0.1464 -0.3923  0.3030
    3TTP     C135702  11.263   2.995   2.064  0.6989 -0.5969  0.3562
    3TTP     C235703  11.230   2.936   1.945  0.7448 -0.5487  0.3191
    3TTP     C335704  11.163   2.811   1.964  0.3450 -0.3482  0.2474
    3TTP     C435705  11.043   2.589   1.997 -0.3631  0.0080  0.1196
    3TTP    C1735706  11.076   2.648   2.115 -0.4091 -0.0403  0.1568
    3TTP    C1835707  11.144   2.773   2.096 -0.0095 -0.2407  0.2285
    3TTP    C3235708  11.257   3.004   1.811 -0.6646  0.1120 -0.2546
    3TTP    C3335709  11.156   2.984   1.692  0.3191 -0.1878 -0.5730
    3TTP    C3435710  11.002   3.005   1.707 -0.3274  0.5950  0.8890
    3TTP    C3535711  10.915   3.131   1.687  0.3701  0.1634 -0.8429
    3TTP    C3635712  10.804   3.126   1.584 -0.7719  0.4931  0.8758
    3TTP    C3735713  10.682   3.027   1.620 -1.3832 -1.5633 -0.2882
    3TTP    C3835714  10.610   3.041   1.756 -1.2522  0.5118 -0.1224
    3TTP    C3935715  10.516   3.159   1.746  1.1836 -0.2890  1.5155
    3TTP    C4035716  10.537   3.313   1.737 -1.4163  1.0789 -0.8720
    3TTP    C4135717  10.635   3.372   1.830 -0.4089 -0.5175 -0.3036
    3TTP    C4235718  10.625   3.515   1.840  0.5777  0.0822  0.0066
    4FIC     F135719  11.236   2.053   3.438  0.3033  0.0504 -0.1917
    4FIC     F235720  11.252   1.784   3.476 -0.5481  0.0497  0.1937
    4FIC     O135721  11.071   2.076   2.923  0.4816 -0.1594 -0.2589
    4FIC     N535722  11.155   1.413   3.163 -1.6437 -0.1009  0.7000
    4FIC     N635723  11.023   1.485   2.753 -1.3328 -0.2647  0.5699
    4FIC    C1935724  11.026   1.827   2.776 -0.2678 -0.2346  0.0855
    4FIC    C2035725  11.067   1.831   2.904 -0.2797 -0.1818  0.0874
    4FIC    C2135726  11.088   1.963   2.973  0.1194 -0.1456 -0.0958
    4FIC    C2235727  11.132   1.933   3.110 -0.0057 -0.0913 -0.0425
    4FIC    C2335728  11.164   2.023   3.212  0.2549 -0.0443 -0.1637
    4FIC    C2435729  11.204   1.970   3.334  0.0641  0.0026 -0.0803
    4FIC    C2535730  11.211   1.831   3.353 -0.3746  0.0020  0.1184
    4FIC    C2635731  11.180   1.741   3.252 -0.6368 -0.0446  0.2401
    4FIC    C2735732  11.140   1.792   3.128 -0.4489 -0.0925  0.1583
    4FIC    C2835733  11.100   1.725   3.002 -0.6347 -0.1481  0.2460
    4FIC    C2935734  11.095   1.589   2.980 -1.0550 -0.1651  0.4376
    4FIC    C3035735  11.128   1.493   3.081 -1.3776 -0.1298  0.5812
    4FIC    C3135736  11.055   1.533   2.855 -1.2057 -0.2198  0.5093
    5FIC     F135737  11.673   3.503   2.577  0.5051 -0.0859 -0.1689
    5FIC     F235738  11.724   3.662   2.362 -0.4047  0.2739 -0.1279
    5FIC     O135739  11.382   3.109   2.346  0.8528 -0.5195  0.1298
    5FIC     N535740  11.590   3.609   1.888 -1.4650  0.4826  0.1438
    5FIC     N635741  11.352   3.269   1.752 -1.0100  0.0713  0.3689
    5FIC    C1935742  11.327   3.121   2.059  0.1070 -0.3296  0.2748
    5FIC    C2035743  11.398   3.214   2.125  0.0551 -0.2346  0.1982
    5FIC    C2135744  11.422   3.201   2.273  0.4549 -0.3423  0.1266
    5FIC    C2235745  11.502   3.318   2.313  0.2803 -0.1964  0.0529
    5FIC    C2335746  11.549   3.349   2.440  0.5243 -0.2270 -0.0281
    5FIC    C2435747  11.623   3.466   2.454  0.2850 -0.0661 -0.0875
    5FIC    C2535748  11.650   3.547   2.343 -0.1838  0.1193 -0.0663
    5FIC    C2635749  11.603   3.516   2.216 -0.4294  0.1509  0.0142
    5FIC    C2735750  11.528   3.399   2.200 -0.1929 -0.0103  0.0754
    5FIC    C2835751  11.465   3.338   2.080 -0.3500 -0.0264  0.1656
    5FIC    C2935752  11.468   3.388   1.952 -0.7873  0.1231  0.2102
    5FIC    C3035753  11.535   3.510   1.918 -1.1584  0.3203  0.1735
    5FIC    C3135754  11.404   3.323   1.842 -0.9072  0.0938  0.2972
    1BTD     S235755  10.945   5.994   1.935 -0.4635  0.0518  0.4554
    1BTD     N135756  11.103   5.975   2.019 -0.3841  0.3256  0.3694
    1BTD     N235757  10.855   5.889   2.051 -0.1543 -0.3728  0.3172
    1BTD     N335758  10.957   5.642   2.437  0.6185 -0.7434 -0.1197
    1BTD     N435759  11.263   5.748   2.397  0.3352  0.1172 -0.0554
    1BTD     C535760  11.183   5.855   2.217 -0.0050  0.2066  0.1468
    1BTD     C635761  11.082   5.896   2.123 -0.1438  0.0982  0.2484
    1BTD     C735762  10.943   5.848   2.141 -0.0155 -0.2927  0.2192
    1BTD     C835763  10.912   5.761   2.252  0.2458 -0.5560  0.0898
    1BTD    C1535764  11.014   5.724   2.341  0.3740 -0.4374 -0.0064
    1BTD    C1635765  11.148   5.770   2.324  0.2501 -0.0608  0.0216
    1BTD    C4335766  11.297   5.633   2.478 -0.5965  0.0274 -0.2285
    1BTD    C4435767  11.373   5.680   2.615 -0.2172 -0.9854  0.9263
    1BTD    C4535768  11.451   5.573   2.677  0.2788 -0.2457 -0.0757
    1BTD    C4635769  11.537   5.581   2.800 -0.4449 -0.3545 -0.7452
    1BTD    C4735770  11.309   5.797   2.690 -0.9203  0.6654 -0.4987
    1BTD    C4835771  11.356   5.917   2.631 -0.2317 -0.9265 -1.1419
    1BTD    C4935772  11.326   6.018   2.732  0.6079 -0.4183 -0.4902
    1BTD    C5035773  11.364   6.157   2.672  0.9326  0.9809  0.0043
    1BTD    C7535774  11.011   5.613   2.578  0.7139 -0.3745  0.4366
    1BTD    C7635775  11.018   5.482   2.649 -0.7209  0.3792  0.2439
    1BTD    C7735776  11.087   5.383   2.557 -0.1523  0.4231  0.4023
    1BTD    C7835777  11.148   5.243   2.594 -0.4187 -1.0691  0.5608
    1BTD    C7935778  10.922   5.426   2.761 -0.0119 -0.2024  0.7471
    1BTD    C8035779  10.982   5.338   2.872  1.2668  0.5350 -0.1947
    1BTD    C8135780  10.896   5.315   2.997  0.1076 -0.6898 -1.2156
    1BTD    C8235781  10.792   5.197   2.994  1.6227 -0.8233  0.1912
    2TTP     S135782  11.456   5.962   2.125 -0.0730  0.1945 -0.0673
    2TTP     S535783  11.642   5.687   2.399  0.0976 -0.2068 -0.5844
    2TTP     C135784  11.772   5.768   2.300  0.0671  0.2514 -0.2568
    2TTP     C235785  11.722   5.858   2.210  0.0126  0.4026 -0.0778
    2TTP     C335786  11.580   5.866   2.215 -0.0070  0.1616 -0.1929
    2TTP     C435787  11.326   5.882   2.224 -0.0425 -0.2638 -0.3949
    2TTP    C1735788  11.376   5.792   2.314  0.0120 -0.4149 -0.5739
    2TTP    C1835789  11.519   5.784   2.309  0.0316 -0.1740 -0.4588
    2TTP    C3235790  11.811   5.922   2.102 -0.3404 -0.3394  0.4559
    2TTP    C3335791  11.767   6.054   2.030  0.3443  1.2815  0.6922
    2TTP    C3435792  11.881   6.127   1.972  0.0963 -1.4894 -0.9324
    2TTP    C3535793  11.848   6.273   1.935 -0.7072  0.6865 -1.1531
    2TTP    C3635794  11.716   6.281   1.862 -0.2121  0.6031 -0.6165
    2TTP    C3735795  11.657   6.410   1.812  1.4094  0.4853 -0.1874
    2TTP    C3835796  11.583   6.527   1.888 -0.2167  0.3747  0.7772
    2TTP    C3935797  11.584   6.668   1.807 -0.0769  0.0049 -0.7121
    2TTP    C4035798  11.628   6.795   1.891 -0.4597  0.6731  1.3200
    2TTP    C4135799  11.619   6.942   1.848 -0.3137  0.0212  0.1332
    2TTP    C4235800  11.683   6.963   1.706  1.5595 -0.6782 -0.1681
    3TTP     S135801  10.623   5.734   2.265  0.1558  0.1303 -0.3331
    3TTP     S535802  10.658   5.586   2.668 -0.0091  0.3623 -0.2328
    3TTP     C135803  10.484   5.626   2.636 -0.0268  0.1625 -0.3923
    3TTP     C235804  10.463   5.674   2.509  0.0231  0.0790 -0.4326
    3TTP     C335805  10.583   5.681   2.434  0.0772  0.1699 -0.3390
    3TTP     C435806  10.798   5.693   2.297  0.1738  0.3301 -0.1735
    3TTP    C1735807  10.819   5.645   2.423  0.1242  0.4135 -0.1331
    3TTP    C1835808  10.698   5.639   2.499  0.0699  0.3226 -0.2267
    3TTP    C3235809  10.336   5.720   2.433 -0.3339  1.1528 -0.7250
    3TTP    C3335810  10.292   5.636   2.316 -0.7011 -0.1600 -0.2528
    3TTP    C3435811  10.176   5.697   2.235 -0.2205 -0.7952  0.4713
    3TTP    C3535812  10.155   5.851   2.216 -0.6523  0.4168  0.5406
    3TTP    C3635813  10.274   5.936   2.156  0.3500 -0.7800 -0.0744
    3TTP    C3735814  10.333   5.892   2.028 -0.4871 -0.1060  0.3133
    3TTP    C3835815  10.484   5.944   2.020  1.0058 -0.5614  0.3184
    3TTP    C3935816  10.533   5.961   1.884  0.8619  0.3112  0.1556
    3TTP    C4035817  10.443   6.022   1.785 -0.8861 -1.7062 -0.5406
    3TTP    C4135818  10.421   6.178   1.779  0.2112 -0.7227  0.6303
    3TTP    C4235819  10.279   6.204   1.737 -0.6554  1.6869 -0.2922
    4FIC     F135820  12.247   5.148   2.584  0.2940  0.2590 -0.3214
    4FIC     F235821  12.467   5.290   2.508  0.1053  0.6469 -0.1477
    4FIC     O135822  11.850   5.484   2.435 -0.1689 -0.2369 -0.2156
    4FIC     N535823  12.499   5.733   2.292 -0.4959  0.8513  0.1771
    4FIC     N635824  12.145   5.968   2.190 -0.8195  0.3856  0.2246
    4FIC    C1935825  11.919   5.739   2.309 -0.5136 -0.0423 -0.0124
    4FIC    C2035826  12.010   5.649   2.349 -0.3897  0.0672 -0.0457
    4FIC    C2135827  11.967   5.520   2.414 -0.2156 -0.0440 -0.1513
    4FIC    C2235828  12.091   5.446   2.445 -0.1130  0.1209 -0.1626
    4FIC    C2335829  12.101   5.321   2.505  0.0567  0.0939 -0.2474
    4FIC    C2435830  12.229   5.271   2.525  0.1268  0.2739 -0.2402
    4FIC    C2535831  12.342   5.344   2.486  0.0293  0.4736 -0.1507
    4FIC    C2635832  12.332   5.469   2.426 -0.1400  0.5013 -0.0659
    4FIC    C2735833  12.203   5.521   2.405 -0.2132  0.3211 -0.0716
    4FIC    C2835834  12.159   5.649   2.344 -0.3872  0.2962  0.0038
    4FIC    C2935835  12.239   5.748   2.294 -0.5203  0.4550  0.1009
    4FIC    C3035836  12.382   5.740   2.293 -0.5064  0.6725  0.1424
    4FIC    C3135837  12.187   5.869   2.237 -0.6841  0.4160  0.1684
    5FIC     F135838  10.377   5.298   3.390 -0.3815 -0.5769 -0.2119
    5FIC     F235839  10.115   5.366   3.372 -0.2372  0.0511  0.0410
    5FIC     O135840  10.560   5.472   2.911 -0.2940 -0.4325 -0.1262
    5FIC     N535841   9.867   5.590   3.006  0.0324  1.0571  0.4657
    5FIC     N635842  10.063   5.712   2.636  0.0713  1.0433  0.4817
    5FIC    C1935843  10.374   5.600   2.724 -0.1258  0.2189  0.1459
    5FIC    C2035844  10.339   5.553   2.845 -0.1531  0.1580  0.1144
    5FIC    C2135845  10.440   5.489   2.936 -0.2406 -0.1836 -0.0278
    5FIC    C2235846  10.368   5.450   3.058 -0.2499 -0.1628 -0.0265
    5FIC    C2335847  10.420   5.387   3.171 -0.3204 -0.4168 -0.1349
    5FIC    C2435848  10.333   5.360   3.275 -0.3140 -0.3377 -0.1093
    5FIC    C2535849  10.197   5.396   3.266 -0.2397 -0.0137  0.0211
    5FIC    C2635850  10.145   5.458   3.154 -0.1695  0.2409  0.1297
    5FIC    C2735851  10.232   5.487   3.048 -0.1743  0.1653  0.1057
    5FIC    C2835852  10.208   5.551   2.916 -0.1118  0.3755  0.1975
    5FIC    C2935853  10.088   5.600   2.870 -0.0310  0.7079  0.3335
    5FIC    C3035854   9.967   5.594   2.945  0.0033  0.8987  0.4057
    5FIC    C3135855  10.075   5.662   2.741  0.0246  0.8906  0.4143
    1BTD     S235856   2.579   0.418   8.056 -0.6049  0.3504  0.6090
    1BTD     N135857   2.463   0.280   8.054 -0.4675  0.2365  0.3948
    1BTD     N235858   2.524   0.486   7.899 -0.4215  0.3284  0.5341
    1BTD     N335859   2.202   0.377   7.575  0.2003  0.0778 -0.0052
    1BTD     N435860   2.127   0.124   7.766  0.1435 -0.0354 -0.1774
    1BTD     C535861   2.288   0.202   7.901 -0.1479  0.0959  0.0982
    1BTD     C635862   2.393   0.292   7.942 -0.3007  0.1903  0.2840
    1BTD     C735863   2.427   0.407   7.855 -0.2749  0.2417  0.3622
    1BTD     C835864   2.355   0.426   7.732 -0.0975  0.1962  0.2505
    1BTD    C1535865   2.253   0.335   7.697  0.0480  0.1037  0.0692
    1BTD    C1635866   2.221   0.224   7.780  0.0233  0.0541 -0.0061
    1BTD    C4335867   1.995   0.162   7.719  0.6433 -1.0692  0.3104
    1BTD    C4435868   1.898   0.057   7.673 -1.2847  1.4983 -0.1358
    1BTD    C4535869   1.745   0.085   7.663 -1.0458 -0.3546 -0.3444
    1BTD    C4635870   1.691   0.202   7.580 -0.3326  0.2928  0.2982
    1BTD    C4735871   1.967   0.006   7.538  1.0861 -0.0779  0.1642
    1BTD    C4835872   1.886  -0.090   7.460  0.3918  0.4008  0.9003
    1BTD    C4935873   1.977  -0.168   7.369 -1.7527  1.3233  1.3433
    1BTD    C5035874   1.930  -0.309   7.337  0.0578 -0.3509  0.7091
    1BTD    C7535875   2.162   0.301   7.448 -0.3419 -0.3546 -0.1045
    1BTD    C7635876   2.259   0.239   7.366 -0.4731 -1.0543  0.2836
    1BTD    C7735877   2.347   0.135   7.435 -0.4077  0.8996 -1.3000
    1BTD    C7835878   2.443   0.031   7.371  0.0123  1.0216 -1.3238
    1BTD    C7935879   2.191   0.216   7.228 -0.2758  0.1127  0.3306
    1BTD    C8035880   2.274   0.150   7.115 -0.2493 -0.6799  0.3483
    1BTD    C8135881   2.314   0.230   7.003 -0.6419 -0.2322  0.6850
    1BTD    C8235882   2.455   0.290   7.022  1.4362 -0.5931 -0.5181
    2TTP     S135883   2.274  -0.022   8.099 -0.6535 -0.1756  0.4674
    2TTP     S535884   1.951  -0.195   7.874  0.1095 -0.0238 -0.7691
    2TTP     C135885   1.985  -0.302   8.017 -0.6427  0.0855 -0.4965
    2TTP     C235886   2.087  -0.255   8.095 -0.9227  0.0448 -0.0987
    2TTP     C335887   2.142  -0.133   8.044 -0.5532 -0.0737  0.0055
    2TTP     C435888   2.240   0.084   7.955  0.0986 -0.2849  0.1945
    2TTP    C1735889   2.138   0.037   7.878  0.3786 -0.2444 -0.2032
    2TTP    C1835890   2.083  -0.085   7.928  0.0091 -0.1259 -0.3071
    2TTP    C3235891   2.115  -0.293   8.241 -0.5347 -0.5691 -0.5724
    2TTP    C3335892   2.117  -0.190   8.357  0.2079 -0.5272  0.8771
    2TTP    C3435893   2.047  -0.246   8.480 -0.5256 -1.4680  0.6475
    2TTP    C3535894   1.901  -0.296   8.499 -0.1700 -0.3868 -1.3148
    2TTP    C3635895   1.843  -0.399   8.406  0.2496 -1.5030 -0.5175
    2TTP    C3735896   1.691  -0.417   8.420  0.2032  0.2090 -1.0275
    2TTP    C3835897   1.637  -0.561   8.397 -0.1881 -0.0595  0.6192
    2TTP    C3935898   1.681  -0.677   8.482 -0.3548  0.1758 -0.7620
    2TTP    C4035899   1.600  -0.687   8.610 -0.3017  0.1788  0.6417
    2TTP    C4135900   1.667  -0.722   8.738 -0.1717  0.0569  0.8588
    2TTP    C4235901   1.585  -0.788   8.849  0.0542  0.6649  0.3064
    3TTP     S135902   2.434   0.690   7.589 -0.1395  0.1826  0.4426
    3TTP     S535903   2.102   0.632   7.323  0.0150 -0.3353  0.3606
    3TTP     C135904   2.174   0.795   7.290 -0.2426 -0.2133  0.3918
    3TTP     C235905   2.281   0.823   7.370 -0.3055 -0.0462  0.4190
    3TTP     C335906   2.310   0.716   7.460 -0.1525 -0.0085  0.4162
    3TTP     C435907   2.362   0.526   7.622  0.1181  0.0607  0.4113
    3TTP    C1735908   2.255   0.499   7.542  0.1811 -0.1065  0.3841
    3TTP    C1835909   2.226   0.606   7.451  0.0280 -0.1442  0.3872
    3TTP    C3235910   2.361   0.948   7.371  0.7424  0.6482  0.3248
    3TTP    C3335911   2.442   0.978   7.239  0.4876 -1.4300 -0.4171
    3TTP    C3435912   2.598   0.951   7.257  0.4063  0.0894  1.0369
    3TTP    C3535913   2.687   0.964   7.378 -0.1324  0.3105 -1.3113
    3TTP    C3635914   2.838   0.990   7.341 -0.5912 -0.2700  0.4169
    3TTP    C3735915   2.934   1.018   7.464 -0.7856 -1.2046 -0.2241
    3TTP    C3835916   2.981   1.166   7.426  0.2632 -0.5096 -0.6105
    3TTP    C3935917   3.105   1.192   7.501 -0.0422 -1.4655  0.9198
    3TTP    C4035918   3.172   1.332   7.497 -0.2998 -0.8401  1.1514
    3TTP    C4135919   3.311   1.331   7.563  0.1363  0.3281  0.4874
    3TTP    C4235920   3.392   1.457   7.549  1.0005  0.1655 -0.6961
    4FIC     F135921   1.431  -0.783   7.633 -0.5648 -0.2985  0.7026
    4FIC     F235922   1.528  -0.992   7.778  0.9831 -0.4580 -0.5047
    4FIC     O135923   1.728  -0.376   7.831 -0.9966  0.1163  0.4987
    4FIC     N535924   1.878  -1.003   8.128  2.9008 -0.3915 -2.3863
    4FIC     N635925   2.091  -0.642   8.253  2.2514 -0.0350 -2.3022
    4FIC    C1935926   1.926  -0.431   8.039  0.3289  0.1115 -0.7272
    4FIC    C2035927   1.847  -0.525   7.984  0.3770  0.0134 -0.6286
    4FIC    C2135928   1.748  -0.489   7.877 -0.3304  0.0229  0.0154
    4FIC    C2235929   1.680  -0.614   7.839 -0.0748 -0.0994 -0.0437
    4FIC    C2335930   1.580  -0.631   7.744 -0.5254 -0.1357  0.4281
    4FIC    C2435931   1.530  -0.760   7.726 -0.1540 -0.2566  0.2592
    4FIC    C2535932   1.580  -0.867   7.801  0.6435 -0.3388 -0.3632
    4FIC    C2635933   1.680  -0.851   7.896  1.0966 -0.3035 -0.8363
    4FIC    C2735934   1.731  -0.722   7.916  0.7310 -0.1812 -0.6744
    4FIC    C2835935   1.836  -0.671   8.008  1.0403 -0.1152 -1.0588
    4FIC    C2935936   1.909  -0.746   8.097  1.7970 -0.1636 -1.6916
    4FIC    C3035937   1.892  -0.887   8.114  2.4012 -0.2887 -2.0714
    4FIC    C3135938   2.009  -0.688   8.182  2.0426 -0.0927 -2.0237
    5FIC     F135939   1.617   0.798   6.678 -0.5086 -0.2062  0.9388
    5FIC     F235940   1.612   1.070   6.698  0.6149 -0.0722 -0.3206
    5FIC     O135941   1.996   0.676   7.046 -0.8523 -0.0588  1.3440
    5FIC     N535942   1.874   1.373   6.988  1.9851  0.2257 -1.8420
    5FIC     N635943   2.171   1.223   7.271  1.4901  0.3139 -1.2715
    5FIC    C1935944   2.125   0.892   7.195  0.0989  0.1217  0.2849
    5FIC    C2035945   2.030   0.912   7.102  0.1416  0.0794  0.2321
    5FIC    C2135946   1.968   0.796   7.029 -0.3667 -0.0134  0.7985
    5FIC    C2235947   1.869   0.853   6.936 -0.1734 -0.0393  0.5765
    5FIC    C2335948   1.787   0.784   6.847 -0.4937 -0.1194  0.9311
    5FIC    C2435949   1.701   0.860   6.768 -0.2173 -0.1287  0.6168
    5FIC    C2535950   1.699   0.999   6.779  0.3616 -0.0595 -0.0320
    5FIC    C2635951   1.781   1.069   6.867  0.6837  0.0207 -0.3887
    5FIC    C2735952   1.868   0.994   6.947  0.4113  0.0312 -0.0789
    5FIC    C2835953   1.967   1.036   7.050  0.6278  0.1069 -0.3161
    5FIC    C2935954   1.994   1.165   7.089  1.1746  0.1871 -0.9273
    5FIC    C3035955   1.928   1.279   7.033  1.6184  0.2080 -1.4282
    5FIC    C3135956   2.091   1.196   7.189  1.3450  0.2564 -1.1132
    1BTD     S235957   4.028   4.606   2.518  0.2069  0.1292 -0.4554
    1BTD     N135958   4.029   4.537   2.351  0.1534  0.0216 -0.4121
    1BTD     N235959   3.875   4.697   2.494  0.1539  0.0453 -0.4382
    1BTD     N335960   3.566   4.761   2.146 -0.0510 -0.3206 -0.3247
    1BTD     N435961   3.757   4.564   1.970 -0.0515 -0.3498 -0.2926
    1BTD     C535962   3.885   4.554   2.154  0.0465 -0.1720 -0.3501
    1BTD     C635963   3.921   4.584   2.290  0.1014 -0.0671 -0.3883
    1BTD     C735964   3.835   4.674   2.370  0.1017 -0.0535 -0.4028
    1BTD     C835965   3.716   4.728   2.310  0.0470 -0.1460 -0.3786
    1BTD    C1535966   3.684   4.696   2.177 -0.0059 -0.2473 -0.3415
    1BTD    C1635967   3.767   4.609   2.100 -0.0060 -0.2601 -0.3274
    1BTD    C4335968   3.687   4.646   1.869 -0.4410  0.7405 -1.4430
    1BTD    C4435969   3.703   4.615   1.720 -0.0007 -1.8632 -0.3444
    1BTD    C4535970   3.565   4.599   1.640  0.3177  0.8167 -0.4429
    1BTD    C4635971   3.556   4.604   1.480 -0.9926  0.4017 -0.3687
    1BTD    C4735972   3.807   4.717   1.668 -0.1962  0.4754  1.4812
    1BTD    C4835973   3.909   4.647   1.576  1.5296 -0.9821  0.1782
    1BTD    C4935974   4.005   4.743   1.510 -0.6151  1.0861 -0.2004
    1BTD    C5035975   3.985   4.886   1.486  0.2226 -0.4373 -0.2534
    1BTD    C7535976   3.453   4.718   2.053  0.2860  1.3987  0.2319
    1BTD    C7635977   3.344   4.795   1.988  1.3284 -1.3014  0.8262
    1BTD    C7735978   3.390   4.874   1.860 -0.0824 -0.1387 -0.3445
    1BTD    C7835979   3.297   4.973   1.779  1.3519  0.0210 -0.5454
    1BTD    C7935980   3.194   4.742   1.986  0.6173 -0.0858 -0.6482
    1BTD    C8035981   3.152   4.633   1.896 -0.8117  1.3077  1.7933
    1BTD    C8135982   3.017   4.633   1.829 -0.3352 -1.5554 -1.5317
    1BTD    C8235983   2.973   4.499   1.796 -0.5021  0.6572 -0.0642
    2TTP     S135984   4.097   4.372   2.022 -0.3902 -0.0596 -0.3061
    2TTP     S535985   3.809   4.315   1.708 -0.2457  0.0696 -0.4625
    2TTP     C135986   3.950   4.205   1.678 -0.0585  0.3595 -0.6535
    2TTP     C235987   4.048   4.216   1.773 -0.0920  0.3365 -0.6166
    2TTP     C335988   4.014   4.312   1.873 -0.2667  0.0893 -0.4359
    2TTP     C435989   3.956   4.483   2.053 -0.5772 -0.3495 -0.1150
    2TTP    C1735990   3.859   4.472   1.958 -0.5438 -0.3266 -0.1520
    2TTP    C1835991   3.892   4.376   1.857 -0.3690 -0.0794 -0.3326
    2TTP    C3235992   4.192   4.145   1.757  1.2097 -0.3413 -0.3814
    2TTP    C3335993   4.310   4.244   1.734  0.5871 -0.3971  0.1292
    2TTP    C3435994   4.319   4.322   1.606  1.3743  0.2288 -1.0710
    2TTP    C3535995   4.338   4.484   1.601  1.7038  0.2101 -0.0190
    2TTP    C3635996   4.433   4.559   1.678 -1.3181  0.4508 -0.8854
    2TTP    C3735997   4.574   4.534   1.656 -0.0395 -0.8126 -0.5076
    2TTP    C3835998   4.689   4.605   1.728  0.1317  0.7927 -0.0182
    2TTP    C3935999   4.828   4.595   1.693  0.6549  0.3531 -0.1942
    2TTP    C4036000   4.912   4.711   1.733 -0.7092 -0.4357  0.1158
    2TTP    C4136001   5.050   4.698   1.794 -1.2918  1.1115 -1.1472
    2TTP    C4236002   5.165   4.661   1.695  0.0696 -0.6099 -0.6032
    3TTP     S136003   3.636   4.963   2.476  0.0169 -0.4080  0.2392
    3TTP     S536004   3.401   5.096   2.142  0.3513  0.6275  0.4077
    3TTP     C136005   3.420   5.234   2.258  0.6546  0.4135  0.6168
    3TTP     C236006   3.493   5.201   2.368  0.5693  0.0813  0.5772
    3TTP     C336007   3.538   5.066   2.365  0.2611 -0.0166  0.3801
    3TTP     C436008   3.618   4.824   2.360 -0.2864 -0.1943  0.0300
    3TTP    C1736009   3.544   4.857   2.250 -0.2012  0.1381  0.0698
    3TTP    C1836010   3.499   4.993   2.253  0.1070  0.2359  0.2668
    3TTP    C3236011   3.525   5.282   2.493 -0.5042  0.1241  0.2949
    3TTP    C3336012   3.551   5.431   2.497  0.5737 -1.5240  1.7322
    3TTP    C3436013   3.603   5.483   2.628  1.4137 -0.9919 -0.6438
    3TTP    C3536014   3.570   5.639   2.669  0.9704  0.4768  1.4629
    3TTP    C3636015   3.572   5.667   2.815  0.0850  0.0399 -0.6700
    3TTP    C3736016   3.427   5.696   2.862 -1.5905  0.1669 -0.1089
    3TTP    C3836017   3.320   5.597   2.893 -0.4188 -0.2879 -0.2853
    3TTP    C3936018   3.357   5.473   2.965  0.2902 -0.7846  0.1589
    3TTP    C4036019   3.431   5.486   3.096 -0.5714  0.2467  0.0945
    3TTP    C4136020   3.449   5.374   3.188 -0.6516 -0.4630 -0.1283
    3TTP    C4236021   3.502   5.247   3.125  0.4583  1.8984 -0.8333
    4FIC     F136022   3.437   3.797   1.179  0.1381  0.0900 -0.0410
    4FIC     F236023   3.654   3.700   1.046  0.1094 -0.2865  0.1832
    4FIC     O136024   3.677   4.094   1.563  0.2406  0.3126 -0.2764
    4FIC     N536025   4.136   3.773   1.128  0.1411 -0.6690  0.3378
    4FIC     N636026   4.280   4.024   1.455  0.2270 -0.4193  0.1088
    4FIC    C1936027   3.969   4.107   1.572  0.2495  0.0319 -0.1457
    4FIC    C2036028   3.900   4.036   1.481  0.2248 -0.0094 -0.0953
    4FIC    C2136029   3.750   4.034   1.483  0.2219  0.1426 -0.1683
    4FIC    C2236030   3.708   3.948   1.371  0.1926  0.0501 -0.0865
    4FIC    C2336031   3.578   3.916   1.332  0.1799  0.1335 -0.1133
    4FIC    C2436032   3.563   3.833   1.222  0.1519  0.0168 -0.0208
    4FIC    C2536033   3.675   3.783   1.154  0.1373 -0.1771  0.0947
    4FIC    C2636034   3.804   3.814   1.192  0.1498 -0.2612  0.1221
    4FIC    C2736035   3.822   3.899   1.303  0.1782 -0.1454  0.0296
    4FIC    C2836036   3.945   3.951   1.368  0.1972 -0.1897  0.0288
    4FIC    C2936037   4.074   3.925   1.330  0.1909 -0.3645  0.1247
    4FIC    C3036038   4.108   3.841   1.219  0.1636 -0.5313  0.2416
    4FIC    C3136039   4.187   3.980   1.399  0.2108 -0.3936  0.1153
    5FIC     F136040   3.178   5.640   1.591  0.9075  0.5118  0.1321
    5FIC     F236041   3.048   5.817   1.752  0.2754  0.1091  0.0729
    5FIC     O136042   3.406   5.314   1.957  0.6747  0.4545  0.2266
    5FIC     N536043   3.025   5.838   2.246 -0.7995 -0.5107  0.0550
    5FIC     N636044   3.229   5.547   2.500 -0.8540 -0.4743  0.1408
    5FIC    C1936045   3.364   5.367   2.242 -0.0120  0.0495  0.2035
    5FIC    C2036046   3.311   5.442   2.144  0.0713  0.0796  0.1821
    5FIC    C2136047   3.338   5.408   1.999  0.4299  0.2924  0.1958
    5FIC    C2236048   3.266   5.509   1.919  0.4318  0.2700  0.1658
    5FIC    C2336049   3.261   5.520   1.780  0.7069  0.4250  0.1657
    5FIC    C2436050   3.187   5.624   1.727  0.6469  0.3663  0.1340
    5FIC    C2536051   3.121   5.715   1.810  0.3210  0.1588  0.1035
    5FIC    C2636052   3.125   5.705   1.949  0.0452  0.0033  0.1034
    5FIC    C2736053   3.200   5.600   2.005  0.1011  0.0598  0.1352
    5FIC    C2836054   3.225   5.562   2.146 -0.1334 -0.0657  0.1440
    5FIC    C2936055   3.177   5.627   2.258 -0.4749 -0.2760  0.1213
    5FIC    C3036056   3.093   5.743   2.251 -0.6521 -0.4041  0.0849
    5FIC    C3136057   3.206   5.583   2.390 -0.6814 -0.3837  0.1321
    1BTD     S236058   5.549  10.179   1.786 -0.0050  0.0301 -0.4083
    1BTD     N136059   5.626  10.224   1.629  0.3383 -0.0324 -0.2605
    1BTD     N236060   5.671  10.053   1.826 -0.2584 -0.1609 -0.2296
    1BTD     N336061   6.058   9.878   1.626 -0.1550 -0.6621  0.4015
    1BTD     N436062   6.002  10.088   1.383  0.5801 -0.5040  0.3633
    1BTD     C536063   5.823  10.151   1.504  0.4556 -0.2806  0.0657
    1BTD     C636064   5.733  10.147   1.616  0.2507 -0.1843 -0.0942
    1BTD     C736065   5.758  10.051   1.726 -0.0832 -0.2561 -0.0769
    1BTD     C836066   5.872   9.964   1.718 -0.1956 -0.4206  0.0995
    1BTD    C1536067   5.958   9.971   1.607  0.0135 -0.5102  0.2521
    1BTD    C1636068   5.933  10.064   1.501  0.3353 -0.4412  0.2354
    1BTD    C4336069   6.122  10.027   1.327  0.1327  1.0444  0.2936
    1BTD    C4436070   6.253  10.103   1.346 -0.2995  0.0510  0.3868
    1BTD    C4536071   6.276  10.151   1.493  0.2334 -0.3447  0.0010
    1BTD    C4636072   6.367  10.272   1.512  0.5214 -0.0685 -0.2880
    1BTD    C4736073   6.372  10.081   1.247  0.1905  1.4651  0.0596
    1BTD    C4836074   6.360  10.043   1.104  0.4336 -0.0565  0.5958
    1BTD    C4936075   6.361  10.153   0.996  0.4673  0.5851  2.3509
    1BTD    C5036076   6.503  10.147   0.946  0.7014  0.3018 -0.2544
    1BTD    C7536077   6.169   9.819   1.541  0.3307 -0.2312 -0.0697
    1BTD    C7636078   6.138   9.673   1.488  0.6768  0.4457  1.9478
    1BTD    C7736079   5.991   9.621   1.464 -0.7344 -0.8576 -0.2413
    1BTD    C7836080   5.913   9.631   1.344 -0.1934 -1.0069 -0.6832
    1BTD    C7936081   6.247   9.609   1.415 -0.4169  1.3269 -0.3992
    1BTD    C8036082   6.303   9.472   1.463  0.7928  0.8028 -1.1630
    1BTD    C8136083   6.424   9.391   1.409 -0.4394 -0.2047  0.5092
    1BTD    C8236084   6.538   9.480   1.340 -0.0488  1.3505 -1.0096
    2TTP     S136085   5.711  10.330   1.275  0.0331 -0.1486  0.0382
    2TTP     S536086   6.018  10.167   1.022  0.3047  0.1314  0.1867
    2TTP     C136087   5.907  10.269   0.920  0.1669 -0.1021  0.1038
    2TTP     C236088   5.805  10.325   0.992  0.0747 -0.2022  0.0530
    2TTP     C336089   5.812  10.290   1.130  0.1099 -0.0982  0.0778
    2TTP     C436090   5.822  10.229   1.377  0.1708  0.0851  0.1211
    2TTP    C1736091   5.924  10.172   1.305  0.2630  0.1855  0.1718
    2TTP    C1836092   5.917  10.207   1.166  0.2279  0.0813  0.1470
    2TTP    C3236093   5.702  10.415   0.937  0.0734  0.1565  0.8344
    2TTP    C3336094   5.553  10.355   0.919 -0.3769 -0.7080  0.4127
    2TTP    C3436095   5.455  10.347   1.039  0.0255 -0.2550 -0.1128
    2TTP    C3536096   5.465  10.477   1.123 -1.1269 -0.7777  1.0697
    2TTP    C3636097   5.432  10.483   1.271  0.3221 -0.4162 -1.0013
    2TTP    C3736098   5.278  10.468   1.324 -0.1426 -0.5629  0.6571
    2TTP    C3836099   5.244  10.521   1.470  0.3292  1.0806  0.2443
    2TTP    C3936100   5.127  10.423   1.540  0.0617 -0.6184 -0.0154
    2TTP    C4036101   4.982  10.438   1.477  0.2514 -0.5225 -0.1827
    2TTP    C4136102   4.916  10.342   1.393  0.7443  1.5383 -0.3086
    2TTP    C4236103   4.775  10.391   1.402 -0.1869 -0.1904  0.4732
    3TTP     S136104   5.896   9.791   1.978  0.2995  0.5954 -0.1065
    3TTP     S536105   6.269   9.633   1.833  0.3325  0.3312  0.2620
    3TTP     C136106   6.235   9.560   1.996  0.1871  0.4593  0.2894
    3TTP     C236107   6.118   9.604   2.051  0.1687  0.5486  0.1771
    3TTP     C336108   6.051   9.698   1.966  0.2683  0.5190  0.0656
    3TTP     C436109   5.931   9.864   1.815  0.4450  0.4671 -0.1339
    3TTP    C1736110   6.048   9.819   1.761  0.4635  0.3778 -0.0217
    3TTP    C1836111   6.115   9.726   1.846  0.3638  0.4077  0.0899
    3TTP    C3236112   6.051   9.574   2.188  0.5651  0.0926  0.0673
    3TTP    C3336113   6.061   9.661   2.313  0.2670 -1.0232  0.4765
    3TTP    C3436114   6.021   9.586   2.434  0.1133 -0.5621  0.5658
    3TTP    C3536115   5.873   9.544   2.447 -1.3193 -0.6505  1.2215
    3TTP    C3636116   5.814   9.472   2.555  0.0794  0.1453 -0.1306
    3TTP    C3736117   5.919   9.373   2.624  2.1199 -0.3725  0.4015
    3TTP    C3836118   5.851   9.259   2.712 -0.9534  0.7215 -1.3504
    3TTP    C3936119   5.922   9.226   2.845 -1.0195 -0.3618  1.9819
    3TTP    C4036120   6.070   9.194   2.846  0.4418  0.7182  0.9904
    3TTP    C4136121   6.116   9.092   2.955 -0.2349 -0.3300  0.4691
    3TTP    C4236122   6.218   9.003   2.899 -0.1398  0.5717 -0.0953
    4FIC     F136123   6.426  10.065   0.319  0.0399  0.2534  0.1927
    4FIC     F236124   6.329  10.275   0.175 -0.2350  0.1185  0.1792
    4FIC     O136125   6.118  10.094   0.763  0.1580  0.0188  0.2902
    4FIC     N536126   5.970  10.597   0.285 -0.5455 -0.2425  0.2292
    4FIC     N636127   5.749  10.577   0.662 -0.3978 -0.3989  0.3080
    4FIC    C1936128   5.916  10.305   0.784 -0.0626 -0.1936  0.3118
    4FIC    C2036129   5.997  10.289   0.678 -0.0815 -0.1292  0.2878
    4FIC    C2136130   6.099  10.178   0.674  0.0371 -0.0212  0.2781
    4FIC    C2236131   6.170  10.190   0.546 -0.0191  0.0274  0.2515
    4FIC    C2336132   6.273  10.110   0.498  0.0517  0.1271  0.2346
    4FIC    C2436133   6.324  10.141   0.373 -0.0236  0.1558  0.2104
    4FIC    C2536134   6.274  10.249   0.299 -0.1650  0.0861  0.2035
    4FIC    C2636135   6.172  10.330   0.346 -0.2363 -0.0138  0.2202
    4FIC    C2736136   6.118  10.300   0.473 -0.1620 -0.0439  0.2448
    4FIC    C2836137   6.010  10.365   0.551 -0.2058 -0.1431  0.2669
    4FIC    C2936138   5.936  10.474   0.513 -0.3369 -0.2303  0.2677
    4FIC    C3036139   5.955  10.542   0.388 -0.4511 -0.2370  0.2465
    4FIC    C3136140   5.833  10.530   0.595 -0.3695 -0.3226  0.2899
    5FIC     F136141   7.030   9.374   1.883  0.0286  0.3932  0.7427
    5FIC     F236142   6.999   9.161   2.049 -0.5469 -0.6046 -0.6078
    5FIC     O136143   6.532   9.588   1.898  0.2666  0.9267  1.1191
    5FIC     N536144   6.600   9.006   2.298 -1.2046 -1.6582 -2.2814
    5FIC     N636145   6.218   9.216   2.276 -0.9025 -1.0402 -1.7150
    5FIC    C1936146   6.326   9.460   2.061 -0.1987  0.1637 -0.0375
    5FIC    C2036147   6.453   9.414   2.051 -0.2360  0.0682 -0.0794
    5FIC    C2136148   6.553   9.486   1.965  0.0138  0.4807  0.5379
    5FIC    C2236149   6.679   9.410   1.977 -0.1014  0.2494  0.3150
    5FIC    C2336150   6.801   9.438   1.915  0.0489  0.4828  0.7083
    5FIC    C2436151   6.907   9.352   1.941 -0.1066  0.1859  0.3842
    5FIC    C2536152   6.890   9.243   2.027 -0.4029 -0.3276 -0.3117
    5FIC    C2636153   6.769   9.214   2.089 -0.5543 -0.5631 -0.7071
    5FIC    C2736154   6.661   9.300   2.063 -0.4007 -0.2689 -0.3881
    5FIC    C2836155   6.521   9.298   2.112 -0.4952 -0.4010 -0.6582
    5FIC    C2936156   6.466   9.206   2.198 -0.7704 -0.8681 -1.3183
    5FIC    C3036157   6.540   9.096   2.253 -1.0083 -1.3011 -1.8455
    5FIC    C3136158   6.330   9.212   2.240 -0.8414 -0.9601 -1.5328
    1BTD     S236159   7.807   9.877   4.143 -0.2536 -0.1856  0.2280
    1BTD     N136160   7.903   9.809   4.007 -1.1303 -0.2663 -0.3644
    1BTD     N236161   7.814  10.046   4.083  0.6646  0.0355  0.9147
    1BTD     N336162   8.001  10.270   3.715  0.9526  0.3405  1.2442
    1BTD     N436163   8.111   9.978   3.621 -1.2596 -0.0317 -0.3319
    1BTD     C536164   8.010   9.901   3.806 -1.1714 -0.1392 -0.3285
    1BTD     C636165   7.934   9.911   3.928 -0.7150 -0.1314 -0.0367
    1BTD     C736166   7.884  10.044   3.971  0.2896  0.0374  0.6791
    1BTD     C836167   7.913  10.159   3.890  0.7881  0.1903  1.0676
    1BTD    C1536168   7.989  10.144   3.772  0.3129  0.1763  0.7610
    1BTD    C1636169   8.036  10.017   3.731 -0.6555  0.0133  0.0713
    1BTD    C4336170   8.198  10.061   3.535 -1.3117  0.1431 -0.2899
    1BTD    C4436171   8.219  10.096   3.384  0.6614  0.2458  0.4410
    1BTD    C4536172   8.282  10.242   3.378 -0.7074  1.1039 -0.4795
    1BTD    C4636173   8.298  10.303   3.235  0.0130 -0.0865 -1.0309
    1BTD    C4736174   8.301   9.990   3.313 -0.3534  0.9590 -0.1280
    1BTD    C4836175   8.419   9.908   3.367 -0.7052 -0.4430  0.3313
    1BTD    C4936176   8.550   9.983   3.322  0.3327 -0.0556  0.5763
    1BTD    C5036177   8.670   9.899   3.381 -1.0933 -0.9421  0.3762
    1BTD    C7536178   8.009  10.292   3.560 -0.1132  0.7713 -1.4257
    1BTD    C7636179   7.895  10.340   3.468  1.5602  0.0329 -1.0909
    1BTD    C7736180   7.910  10.349   3.324 -0.6160 -0.4692  0.7122
    1BTD    C7836181   7.962  10.480   3.276  0.9953 -0.0263 -0.1591
    1BTD    C7936182   7.746  10.345   3.541 -0.2506 -0.6142 -0.0084
    1BTD    C8036183   7.670  10.452   3.465  0.0286 -0.6982  0.2971
    1BTD    C8136184   7.567  10.505   3.568  0.4294  0.5924 -0.0223
    1BTD    C8236185   7.435  10.417   3.613  0.1764 -0.7529  0.4776
    2TTP     S136186   7.970   9.639   3.735  0.1047 -0.0890 -0.0049
    2TTP     S536187   8.049   9.763   3.331 -0.6585  0.7346  0.0916
    2TTP     C136188   7.949   9.612   3.326 -0.1857  0.4212 -0.0262
    2TTP     C236189   7.919   9.564   3.450  0.0780  0.1485 -0.0629
    2TTP     C336190   7.973   9.646   3.554 -0.0839  0.1769  0.0005
    2TTP     C436191   8.070   9.791   3.739 -0.3681  0.2244  0.1130
    2TTP    C1736192   8.101   9.838   3.615 -0.6313  0.4972  0.1496
    2TTP    C1836193   8.046   9.756   3.511 -0.4694  0.4685  0.0860
    2TTP    C3236194   7.839   9.429   3.476 -0.3814 -0.1119  0.1630
    2TTP    C3336195   7.822   9.391   3.622 -0.4304 -0.3776 -1.4442
    2TTP    C3436196   7.697   9.325   3.646  1.6490 -0.7852  0.0245
    2TTP    C3536197   7.655   9.328   3.798 -0.2000  0.5483  0.4702
    2TTP    C3636198   7.682   9.451   3.883  0.9028 -0.5810  0.2314
    2TTP    C3736199   7.555   9.479   3.967  1.6482 -0.6576 -0.0361
    2TTP    C3836200   7.550   9.610   4.046  0.4628 -0.2699  0.9081
    2TTP    C3936201   7.479   9.623   4.183 -0.2251 -0.0445 -0.5599
    2TTP    C4036202   7.563   9.573   4.309  0.5366  1.4713 -0.7426
    2TTP    C4136203   7.490   9.613   4.439 -0.6134  0.4455  0.3008
    2TTP    C4236204   7.479   9.755   4.470 -0.3326 -1.2278  0.2668
    3TTP     S136205   7.867  10.393   4.057  0.0574 -0.0704 -0.0900
    3TTP     S536206   8.055  10.647   3.766  0.3388  0.1125  0.2485
    3TTP     C136207   8.032  10.742   3.919  0.4174 -0.0577  0.3660
    3TTP     C236208   7.973  10.669   4.018  0.3350 -0.1240  0.2685
    3TTP     C336209   7.943  10.536   3.977  0.2069 -0.0432  0.0973
    3TTP     C436210   7.890  10.298   3.904 -0.0213  0.0997 -0.2074
    3TTP    C1736211   7.949  10.371   3.805  0.0611  0.1660 -0.1099
    3TTP    C1836212   7.979  10.504   3.846  0.1889  0.0849  0.0612
    3TTP    C3236213   7.893  10.726   4.148 -0.0833  0.5891 -0.7757
    3TTP    C3336214   7.944  10.692   4.295 -0.2309 -0.4278  0.4753
    3TTP    C3436215   8.096  10.708   4.316  0.9008 -0.2161 -0.1156
    3TTP    C3536216   8.205  10.612   4.256 -0.0514 -0.9665 -0.2774
    3TTP    C3636217   8.269  10.506   4.350 -0.2644 -0.2707 -0.3740
    3TTP    C3736218   8.349  10.402   4.266  0.0988 -0.6697 -0.5161
    3TTP    C3836219   8.433  10.306   4.353  0.2058  0.4318 -0.3506
    3TTP    C3936220   8.369  10.169   4.370 -0.2466 -0.0800 -0.6612
    3TTP    C4036221   8.373  10.068   4.257  0.9171 -0.5191 -0.0579
    3TTP    C4136222   8.504  10.031   4.203 -0.2830  0.4302 -0.6970
    3TTP    C4236223   8.545  10.053   4.054 -0.2336  0.4675  0.7476
    4FIC     F136224   8.175   9.457   2.556  0.1371  0.0780 -0.0067
    4FIC     F236225   7.952   9.303   2.530 -0.1490  0.4890 -0.0076
    4FIC     O136226   8.122   9.627   3.067  0.4694  0.1471  0.0054
    4FIC     N536227   7.594   9.203   2.856 -0.3232  1.1303 -0.0002
    4FIC     N636228   7.598   9.367   3.261 -0.0056  1.1020  0.0094
    4FIC    C1936229   7.891   9.541   3.224  0.3145  0.5649  0.0088
    4FIC    C2036230   7.913   9.504   3.096  0.2420  0.5317  0.0057
    4FIC    C2136231   8.034   9.553   3.022  0.3295  0.3123  0.0042
    4FIC    C2236232   8.027   9.494   2.887  0.2167  0.3321  0.0010
    4FIC    C2336233   8.118   9.511   2.783  0.2437  0.1714 -0.0014
    4FIC    C2436234   8.090   9.445   2.664  0.1184  0.2290 -0.0043
    4FIC    C2536235   7.975   9.366   2.650 -0.0287  0.4412 -0.0047
    4FIC    C2636236   7.884   9.349   2.754 -0.0565  0.6022 -0.0024
    4FIC    C2736237   7.911   9.415   2.875  0.0689  0.5472  0.0005
    4FIC    C2836238   7.836   9.417   3.003  0.0786  0.6783  0.0036
    4FIC    C2936239   7.718   9.352   3.030 -0.0411  0.8938  0.0042
    4FIC    C3036240   7.650   9.271   2.934 -0.1959  1.0233  0.0017
    4FIC    C3136241   7.652   9.361   3.157 -0.0210  1.0071  0.0071
    5FIC     F136242   8.595  11.203   3.543  0.0536  0.2325  0.1261
    5FIC     F236243   8.511  11.413   3.695  0.5014  0.0708  0.6043
    5FIC     O136244   8.280  10.806   3.735 -0.4084  0.3452 -0.3953
    5FIC     N536245   8.166  11.432   4.049  0.8159 -0.0811  0.9202
    5FIC     N636246   7.937  11.080   4.168  0.3647  0.0396  0.4162
    5FIC    C1936247   8.088  10.866   3.948 -0.1449  0.2307 -0.1236
    5FIC    C2036248   8.170  10.958   3.893 -0.0460  0.2089 -0.0111
    5FIC    C2136249   8.266  10.919   3.784 -0.1931  0.2711 -0.1636
    5FIC    C2236250   8.340  11.042   3.749 -0.0319  0.2265  0.0161
    5FIC    C2336251   8.440  11.056   3.653 -0.0870  0.2589 -0.0368
    5FIC    C2436252   8.496  11.182   3.637  0.0959  0.2049  0.1649
    5FIC    C2536253   8.452  11.290   3.715  0.3265  0.1216  0.4110
    5FIC    C2636254   8.353  11.277   3.811  0.3829  0.0896  0.4653
    5FIC    C2736255   8.295  11.150   3.828  0.2000  0.1431  0.2635
    5FIC    C2836256   8.189  11.102   3.921  0.2005  0.1287  0.2565
    5FIC    C2936257   8.121  11.178   4.013  0.3927  0.0551  0.4594
    5FIC    C3036258   8.146  11.318   4.032  0.6247 -0.0196  0.7122
    5FIC    C3136259   8.020  11.124   4.098  0.3760  0.0470  0.4345
    1BTD     S236260   7.376   6.492   3.019 -0.0733  0.1780 -0.7394
    1BTD     N136261   7.422   6.377   3.149 -0.6139 -0.4559 -1.0943
    1BTD     N236262   7.520   6.459   2.918  0.4733  0.8537 -0.2028
    1BTD     N336263   7.899   6.184   2.945  0.6106  1.0860  0.2502
    1BTD     N436264   7.779   6.083   3.230 -0.7290 -0.5277 -0.8485
    1BTD     C536265   7.610   6.225   3.188 -0.6580 -0.4740 -0.9527
    1BTD     C636266   7.538   6.323   3.112 -0.3718 -0.1472 -0.8093
    1BTD     C736267   7.592   6.369   2.982  0.2367  0.5858 -0.3102
    1BTD     C836268   7.717   6.314   2.935  0.5288  0.9555  0.0204
    1BTD    C1536269   7.784   6.218   3.013  0.2315  0.6146 -0.1357
    1BTD    C1636270   7.732   6.174   3.138 -0.3549 -0.0918 -0.6168
    1BTD    C4336271   7.875   5.965   3.206 -0.5462  0.1479  0.3518
    1BTD    C4436272   7.797   5.841   3.154  0.2500 -1.1005 -0.2608
    1BTD    C4536273   7.711   5.879   3.023 -1.1083 -0.0754 -1.3779
    1BTD    C4636274   7.620   5.768   2.980 -0.1221 -1.5278 -0.3421
    1BTD    C4736275   7.849   5.698   3.171  0.0767 -0.2290  0.5690
    1BTD    C4836276   7.894   5.681   3.311 -1.3073  0.4641  0.9342
    1BTD    C4936277   8.035   5.628   3.348 -0.3115  0.6977 -0.5442
    1BTD    C5036278   8.119   5.524   3.257 -0.1341 -0.1141 -1.0845
    1BTD    C7536279   8.037   6.133   2.991 -1.3665 -0.6683 -0.6284
    1BTD    C7636280   8.158   6.076   2.922  0.1878 -0.3273 -0.1808
    1BTD    C7736281   8.285   6.164   2.934 -0.3976  0.6176  0.7561
    1BTD    C7836282   8.401   6.183   2.832  2.0276  1.6372 -0.4514
    1BTD    C7936283   8.170   5.927   2.891  1.9929  0.0156  0.1367
    1BTD    C8036284   8.239   5.829   2.988 -0.5825 -0.0792 -0.3175
    1BTD    C8136285   8.362   5.762   2.937 -0.9992 -0.6055 -0.5172
    1BTD    C8236286   8.426   5.692   3.055  1.2632 -0.6422 -0.7318
    2TTP     S136287   7.467   6.171   3.456 -0.0384  0.1675 -0.3303
    2TTP     S536288   7.792   5.910   3.561 -0.2106  0.0470 -0.0948
    2TTP     C136289   7.675   5.915   3.700 -0.1675  0.3128 -0.0666
    2TTP     C236290   7.567   5.996   3.676 -0.1119  0.3657 -0.1377
    2TTP     C336291   7.574   6.057   3.547 -0.1011  0.1982 -0.2170
    2TTP     C436292   7.585   6.166   3.317 -0.0815 -0.0982 -0.3585
    2TTP    C1736293   7.692   6.085   3.342 -0.1370 -0.1512 -0.2873
    2TTP    C1836294   7.685   6.024   3.471 -0.1479  0.0165 -0.2081
    2TTP    C3236295   7.442   6.022   3.772 -0.2227 -0.1704 -0.1375
    2TTP    C3336296   7.413   5.974   3.912  0.4997  0.2007  0.0060
    2TTP    C3436297   7.494   6.017   4.038  0.5225 -0.2248 -0.3094
    2TTP    C3536298   7.563   6.145   4.045 -0.6248 -0.2991  0.5381
    2TTP    C3636299   7.599   6.189   4.186 -0.0940 -0.5443  0.1623
    2TTP    C3736300   7.668   6.310   4.209 -0.8173 -1.0495 -0.9896
    2TTP    C3836301   7.799   6.325   4.124 -1.2860  0.6566  0.2293
    2TTP    C3936302   7.919   6.256   4.188  1.1623  0.3753 -0.6300
    2TTP    C4036303   8.053   6.316   4.193 -0.2294  0.3569 -0.8171
    2TTP    C4136304   8.079   6.461   4.223 -0.6674  0.6074  1.3485
    2TTP    C4236305   8.060   6.536   4.094  0.1531  0.9567  0.4593
    3TTP     S136306   7.760   6.411   2.649 -0.0202  0.1633  0.5494
    3TTP     S536307   8.074   6.119   2.615 -0.0098  0.2230  0.1281
    3TTP     C136308   8.053   6.201   2.454 -0.0288  0.4388  0.2392
    3TTP     C236309   7.954   6.296   2.455 -0.0329  0.4331  0.3759
    3TTP     C336310   7.892   6.307   2.583 -0.0216  0.2581  0.3977
    3TTP     C436311   7.781   6.329   2.811 -0.0014 -0.0526  0.4383
    3TTP    C1736312   7.879   6.234   2.809  0.0028 -0.0468  0.3017
    3TTP    C1836313   7.941   6.223   2.681 -0.0085  0.1283  0.2798
    3TTP    C3236314   7.871   6.347   2.341 -0.0452  1.2081  0.2865
    3TTP    C3336315   7.932   6.415   2.226  1.9760 -1.2127  0.5901
    3TTP    C3436316   8.077   6.468   2.230  0.3419 -0.8088  0.6597
    3TTP    C3536317   8.118   6.588   2.145 -1.7177  1.2247 -0.6218
    3TTP    C3636318   8.154   6.565   2.003 -0.2289 -1.5776  0.0087
    3TTP    C3736319   8.236   6.705   1.985  0.7445 -1.0559 -0.6124
    3TTP    C3836320   8.313   6.691   1.845  2.1367 -0.6569  0.0035
    3TTP    C3936321   8.437   6.796   1.832  0.7074  0.3154 -0.6617
    3TTP    C4036322   8.558   6.761   1.906 -0.2305  0.9528 -0.3278
    3TTP    C4136323   8.649   6.885   1.934 -0.4542  0.3501  1.3806
    3TTP    C4236324   8.588   6.973   2.040 -0.0885  0.0172  1.2385
    4FIC     F136325   8.320   5.648   4.146 -0.0815 -1.1270 -0.6149
    4FIC     F236326   8.146   5.507   4.301 -0.3459  0.2875  0.4146
    4FIC     O136327   7.979   5.883   3.796  0.1308 -1.2406 -0.8990
    4FIC     N536328   7.653   5.473   4.274 -0.5747  2.2403  1.6919
    4FIC     N636329   7.422   5.684   3.970 -0.3557  1.8665  1.2624
    4FIC    C1936330   7.692   5.832   3.820 -0.0466  0.0704 -0.0165
    4FIC    C2036331   7.784   5.778   3.902 -0.0896  0.0437  0.0148
    4FIC    C2136332   7.930   5.809   3.884  0.0076 -0.6506 -0.4563
    4FIC    C2236333   8.002   5.735   3.989 -0.0720 -0.4902 -0.2870
    4FIC    C2336334   8.140   5.733   4.012 -0.0257 -0.9645 -0.5872
    4FIC    C2436335   8.185   5.655   4.117 -0.1200 -0.6879 -0.3409
    4FIC    C2536336   8.095   5.583   4.197 -0.2565  0.0412  0.1894
    4FIC    C2636337   7.958   5.585   4.175 -0.3030  0.5174  0.4914
    4FIC    C2736338   7.910   5.663   4.068 -0.2090  0.2475  0.2489
    4FIC    C2836339   7.773   5.686   4.018 -0.2253  0.6044  0.4554
    4FIC    C2936340   7.657   5.633   4.069 -0.3436  1.3182  0.9588
    4FIC    C3036341   7.655   5.545   4.182 -0.4703  1.8226  1.3601
    4FIC    C3136342   7.528   5.662   4.015 -0.3496  1.6155  1.1230
    5FIC     F136343   8.750   5.786   2.272  0.0062  0.3324 -0.4092
    5FIC     F236344   8.644   5.739   2.026 -0.1252  0.7013 -0.4243
    5FIC     O136345   8.362   6.091   2.494  0.1421  0.0362  0.2420
    5FIC     N536346   8.215   5.889   1.830 -0.2174  1.0207  0.0183
    5FIC     N636347   7.933   6.137   2.053 -0.0846  0.7150  0.5302
    5FIC    C1936348   8.123   6.155   2.338  0.0649  0.2837  0.4590
    5FIC    C2036349   8.224   6.080   2.291  0.0358  0.3437  0.2958
    5FIC    C2136350   8.344   6.052   2.378  0.0792  0.2080  0.1923
    5FIC    C2236351   8.435   5.968   2.297  0.0315  0.3190  0.0218
    5FIC    C2336352   8.559   5.917   2.335  0.0474  0.2545 -0.1177
    5FIC    C2436353   8.627   5.840   2.242 -0.0063  0.3863 -0.2662
    5FIC    C2536354   8.572   5.816   2.115 -0.0738  0.5764 -0.2737
    5FIC    C2636355   8.449   5.867   2.077 -0.0906  0.6417 -0.1348
    5FIC    C2736356   8.378   5.945   2.170 -0.0365  0.5103  0.0165
    5FIC    C2836357   8.247   6.012   2.161 -0.0367  0.5331  0.1846
    5FIC    C2936358   8.162   6.013   2.053 -0.0932  0.6982  0.2286
    5FIC    C3036359   8.192   5.945   1.931 -0.1612  0.8749  0.1128
    5FIC    C3136360   8.037   6.081   2.053 -0.0882  0.7064  0.3943
    1BTD     S236361   4.794   0.510   5.511 -0.0235 -0.0269 -0.3317
    1BTD     N136362   4.832   0.562   5.343  0.1336 -0.3290 -0.3905
    1BTD     N236363   4.947   0.418   5.532 -0.1130 -0.1175 -0.0782
    1BTD     N336364   5.326   0.322   5.273 -0.0118 -0.8472  0.3328
    1BTD     N436365   5.185   0.500   5.039  0.2923 -1.1078 -0.0523
    1BTD     C536366   5.018   0.528   5.187  0.2128 -0.7325 -0.2093
    1BTD     C636367   4.950   0.510   5.313  0.1124 -0.4742 -0.2266
    1BTD     C736368   5.015   0.430   5.419 -0.0256 -0.3558 -0.0516
    1BTD     C836369   5.143   0.370   5.394 -0.0565 -0.5016  0.1317
    1BTD    C1536370   5.206   0.390   5.269  0.0450 -0.7538  0.1418
    1BTD    C1636371   5.144   0.468   5.167  0.1781 -0.8679 -0.0268
    1BTD    C4336372   5.288   0.439   4.946 -0.0938  0.4720 -0.6497
    1BTD    C4436373   5.251   0.346   4.833  1.5757  0.2837 -2.5578
    1BTD    C4536374   5.334   0.346   4.709 -0.3458 -0.8553  1.1087
    1BTD    C4636375   5.262   0.252   4.605  0.1970 -0.2197  1.1487
    1BTD    C4736376   5.162   0.229   4.899  0.0747 -0.2846 -1.5042
    1BTD    C4836377   5.242   0.097   4.953 -0.4323 -0.9872  1.4759
    1BTD    C4936378   5.162  -0.029   4.922 -0.0794  0.7914  0.4161
    1BTD    C5036379   5.074  -0.068   4.797 -0.5745 -0.2154 -0.7488
    1BTD    C7536380   5.462   0.371   5.215 -0.0916 -0.1613  0.4413
    1BTD    C7636381   5.546   0.481   5.289  1.1461  0.1047 -0.1327
    1BTD    C7736382   5.487   0.625   5.279 -1.4749 -0.3788  0.3844
    1BTD    C7836383   5.563   0.729   5.378 -0.8001  0.3348  0.5265
    1BTD    C7936384   5.588   0.431   5.432 -0.2116 -1.0180  0.2799
    1BTD    C8036385   5.698   0.334   5.456 -0.7604  0.1792 -0.9495
    1BTD    C8136386   5.833   0.392   5.445  0.8881 -0.3886 -1.2572
    1BTD    C8236387   5.888   0.274   5.369 -0.3441 -0.4499  0.1352
    2TTP     S136388   4.865   0.726   5.014 -0.1048  0.4031 -0.2739
    2TTP     S536389   5.177   0.694   4.720 -0.1171 -0.5802 -0.1848
    2TTP     C136390   5.048   0.806   4.656  0.1315 -0.3757 -0.3292
    2TTP     C236391   4.944   0.822   4.743  0.1500 -0.0600 -0.3653
    2TTP     C336392   4.962   0.747   4.864 -0.0315  0.0317 -0.2800
    2TTP     C436393   4.993   0.614   5.078 -0.3532  0.1986 -0.1295
    2TTP    C1736394   5.097   0.598   4.991 -0.3717 -0.1171 -0.0933
    2TTP    C1836395   5.079   0.673   4.871 -0.1903 -0.2089 -0.1785
    2TTP    C3236396   4.815   0.893   4.715 -1.1612 -0.9696  0.8017
    2TTP    C3336397   4.684   0.848   4.768 -0.9145 -0.4838 -0.8730
    2TTP    C3436398   4.586   0.966   4.778 -1.0200 -0.0463 -0.5185
    2TTP    C3536399   4.623   1.035   4.909  0.1259 -0.1237  1.5495
    2TTP    C3636400   4.671   1.180   4.928 -0.9570 -1.2795 -0.5989
    2TTP    C3736401   4.620   1.283   4.823 -0.2954  0.4588 -0.4060
    2TTP    C3836402   4.706   1.274   4.698 -0.0680 -0.6354  0.7888
    2TTP    C3936403   4.611   1.285   4.577 -0.4926 -0.1547  0.4516
    2TTP    C4036404   4.526   1.424   4.556 -0.4081  1.3013 -1.3909
    2TTP    C4136405   4.394   1.400   4.489 -0.2883 -0.0795 -0.8543
    2TTP    C4236406   4.325   1.524   4.421 -0.1797 -2.3544 -0.7302
    3TTP     S136407   5.200   0.177   5.600  0.3414  0.3220 -0.2234
    3TTP     S536408   5.516   0.013   5.359  0.1448 -0.4208  0.0198
    3TTP     C136409   5.481  -0.103   5.495 -0.0076 -0.1846  0.1825
    3TTP     C236410   5.381  -0.059   5.577  0.0442  0.0589  0.1172
    3TTP     C336411   5.329   0.067   5.536  0.2059  0.0674 -0.0640
    3TTP     C436412   5.235   0.292   5.464  0.4936  0.0857 -0.3860
    3TTP    C1736413   5.334   0.248   5.381  0.4419 -0.1576 -0.3206
    3TTP    C1836414   5.387   0.122   5.423  0.2801 -0.1662 -0.1396
    3TTP    C3236415   5.336  -0.114   5.709  1.2599  1.3504  0.0013
    3TTP    C3336416   5.357  -0.040   5.845  1.1285 -1.2617 -0.5318
    3TTP    C3436417   5.491  -0.006   5.896 -0.6591 -0.3871  0.2675
    3TTP    C3536418   5.601   0.069   5.825  0.9947  1.1153  1.7103
    3TTP    C3636419   5.719   0.032   5.905  0.4247 -0.3447  0.8225
    3TTP    C3736420   5.837   0.083   5.818 -1.2881  1.4700  0.3532
    3TTP    C3836421   5.983   0.027   5.831  0.7784 -0.5384  0.3071
    3TTP    C3936422   6.007  -0.093   5.764  0.1211  0.6384  1.2632
    3TTP    C4036423   6.049  -0.083   5.611 -0.3367  0.8203 -1.0440
    3TTP    C4136424   6.109  -0.211   5.538 -0.1128 -1.0083 -0.5537
    3TTP    C4236425   6.144  -0.170   5.401  0.3467  0.2956  0.6451
    4FIC     F136426   5.696   1.066   4.241 -0.0602  0.3369 -0.2209
    4FIC     F236427   5.529   1.131   4.037 -0.1478  0.0730 -0.2338
    4FIC     O136428   5.343   0.888   4.611  0.1619  0.0999 -0.1220
    4FIC     N536429   5.036   1.098   4.007 -0.1155 -0.4753 -0.1817
    4FIC     N636430   4.794   0.946   4.337  0.0757 -0.6072 -0.1018
    4FIC    C1936431   5.058   0.887   4.547  0.1572 -0.2364 -0.0992
    4FIC    C2036432   5.153   0.930   4.462  0.1048 -0.1664 -0.1236
    4FIC    C2136433   5.298   0.927   4.502  0.1110  0.0071 -0.1340
    4FIC    C2236434   5.374   0.979   4.387  0.0453  0.0442 -0.1608
    4FIC    C2336435   5.512   0.996   4.377  0.0267  0.1901 -0.1782
    4FIC    C2436436   5.561   1.047   4.258 -0.0385  0.1963 -0.2027
    4FIC    C2536437   5.474   1.081   4.153 -0.0836  0.0602 -0.2091
    4FIC    C2636438   5.337   1.064   4.162 -0.0654 -0.0858 -0.1919
    4FIC    C2736439   5.285   1.013   4.282  0.0004 -0.0944 -0.1671
    4FIC    C2836440   5.146   0.983   4.324  0.0350 -0.2293 -0.1445
    4FIC    C2936441   5.032   1.003   4.249  0.0079 -0.3829 -0.1433
    4FIC    C3036442   5.035   1.055   4.116 -0.0598 -0.4331 -0.1643
    4FIC    C3136443   4.902   0.971   4.298  0.0453 -0.5054 -0.1204
    5FIC     F136444   6.081  -0.523   5.133 -0.1895 -0.2234  0.2648
    5FIC     F236445   6.010  -0.739   5.282 -0.0253 -0.0706  0.5672
    5FIC     O136446   5.724  -0.156   5.310 -0.2742 -0.1631 -0.0300
    5FIC     N536447   5.654  -0.789   5.621  0.1506  0.1919  0.7919
    5FIC     N636448   5.390  -0.459   5.730  0.0516  0.2079  0.5006
    5FIC    C1936449   5.530  -0.233   5.515 -0.1471  0.0045  0.1541
    5FIC    C2036450   5.622  -0.316   5.464 -0.1324 -0.0169  0.2165
    5FIC    C2136451   5.719  -0.270   5.359 -0.2009 -0.1042  0.1141
    5FIC    C2236452   5.805  -0.385   5.327 -0.1638 -0.1056  0.2187
    5FIC    C2336453   5.910  -0.390   5.235 -0.2030 -0.1729  0.1775
    5FIC    C2436454   5.977  -0.511   5.222 -0.1549 -0.1595  0.2973
    5FIC    C2536455   5.940  -0.622   5.299 -0.0702 -0.0810  0.4529
    5FIC    C2636456   5.836  -0.618   5.391 -0.0305 -0.0134  0.4947
    5FIC    C2736457   5.767  -0.497   5.405 -0.0784 -0.0257  0.3754
    5FIC    C2836458   5.653  -0.459   5.493 -0.0557  0.0319  0.3800
    5FIC    C2936459   5.588  -0.540   5.583  0.0216  0.1147  0.5113
    5FIC    C3036460   5.625  -0.677   5.604  0.0923  0.1569  0.6649
    5FIC    C3136461   5.479  -0.495   5.663  0.0376  0.1655  0.5045
    1BTD     S236462   3.088   7.427   2.529  0.1867 -0.4526  0.1414
    1BTD     N136463   3.021   7.441   2.695  0.2222  0.0278  0.1157
    1BTD     N236464   2.934   7.468   2.446  0.2071 -0.5442  0.0568
    1BTD     N336465   2.497   7.580   2.577  0.3130  0.1369 -0.1622
    1BTD     N436466   2.604   7.547   2.884  0.3315  0.8417 -0.0896
    1BTD     C536467   2.802   7.497   2.790  0.2791  0.4443  0.0076
    1BTD     C636468   2.893   7.475   2.681  0.2461  0.0919  0.0488
    1BTD     C736469   2.845   7.490   2.542  0.2378 -0.2283  0.0159
    1BTD     C836470   2.707   7.526   2.518  0.2626 -0.1801 -0.0566
    1BTD    C1536471   2.622   7.547   2.628  0.2944  0.1698 -0.0949
    1BTD    C1636472   2.668   7.532   2.762  0.3026  0.4784 -0.0632
    1BTD    C4336473   2.476   7.618   2.896 -0.5719  1.4523 -0.2404
    1BTD    C4436474   2.498   7.765   2.945  0.1004  1.0555 -0.5762
    1BTD    C4536475   2.610   7.839   2.877  0.2365  0.3908  0.8831
    1BTD    C4636476   2.684   7.950   2.945  1.1303  1.0739 -0.3390
    1BTD    C4736477   2.376   7.839   2.952  0.7521  1.2048 -0.3276
    1BTD    C4836478   2.257   7.831   3.060 -0.1923 -0.3288 -0.2430
    1BTD    C4936479   2.133   7.879   2.987 -0.0534 -0.0921  0.4870
    1BTD    C5036480   2.015   7.788   3.003 -0.0459  0.9877  1.2916
    1BTD    C7536481   2.351   7.541   2.628 -1.1520 -0.7027  0.6812
    1BTD    C7636482   2.273   7.416   2.619 -0.5938 -0.4190 -0.5459
    1BTD    C7736483   2.128   7.472   2.667 -1.2122  0.4707  0.4859
    1BTD    C7836484   2.100   7.534   2.808 -0.6815 -0.9658  0.0047
    1BTD    C7936485   2.322   7.285   2.664  0.2422  0.8803 -1.2080
    1BTD    C8036486   2.326   7.147   2.578 -0.2576 -0.7838  0.0286
    1BTD    C8136487   2.442   7.144   2.478  0.4895  0.0194 -0.4381
    1BTD    C8236488   2.434   7.028   2.373 -1.0692 -0.1763  0.4187
    2TTP     S136489   2.947   7.474   3.059  0.4979  0.6320  0.0934
    2TTP     S536490   2.577   7.555   3.263  0.2675 -1.0856  0.3854
    2TTP     C136491   2.707   7.523   3.388  0.4063 -0.9375  0.2786
    2TTP     C236492   2.828   7.497   3.332  0.4857 -0.3984  0.1822
    2TTP     C336493   2.824   7.500   3.189  0.4396 -0.0830  0.1891
    2TTP     C436494   2.817   7.505   2.935  0.3591  0.4839  0.2002
    2TTP    C1736495   2.696   7.532   2.991  0.2798 -0.0554  0.2966
    2TTP    C1836496   2.700   7.529   3.133  0.3258 -0.3709  0.2897
    2TTP    C3236497   2.963   7.457   3.385 -0.4567 -0.3581 -2.2626
    2TTP    C3336498   3.105   7.526   3.372  0.4279  0.1982 -0.1075
    2TTP    C3436499   3.237   7.464   3.412  1.1641  0.3106  0.3656
    2TTP    C3536500   3.267   7.311   3.376 -1.6580 -0.2566  0.3923
    2TTP    C3636501   3.414   7.278   3.442  0.4328  0.8468  0.8765
    2TTP    C3736502   3.425   7.266   3.592  0.3630  0.1918  0.0505
    2TTP    C3836503   3.520   7.351   3.679 -0.2746  0.3849  0.3867
    2TTP    C3936504   3.633   7.408   3.595  1.2760 -0.8891 -1.5415
    2TTP    C4036505   3.692   7.538   3.667 -1.2529 -0.5871 -0.0434
    2TTP    C4136506   3.752   7.547   3.813 -0.1633  1.5076 -0.0622
    2TTP    C4236507   3.850   7.664   3.792  0.3846  1.1002  0.1972
    3TTP     S136508   2.618   7.532   2.218  0.3175  0.3030  0.4456
    3TTP     S536509   2.243   7.701   2.342 -0.1414 -0.6127  0.3271
    3TTP     C136510   2.241   7.683   2.161  0.0200 -0.4797  0.3113
    3TTP     C236511   2.357   7.629   2.112  0.1712 -0.1891  0.3470
    3TTP     C336512   2.451   7.601   2.216  0.1651 -0.0609  0.3880
    3TTP     C436513   2.620   7.550   2.399  0.1562  0.1701  0.4614
    3TTP    C1736514   2.504   7.603   2.448  0.0049 -0.1205  0.4257
    3TTP    C1836515   2.410   7.632   2.344  0.0111 -0.2486  0.3846
    3TTP    C3236516   2.388   7.587   1.969  1.1960 -0.8358 -0.9013
    3TTP    C3336517   2.507   7.652   1.901 -0.3064 -0.7710 -0.7755
    3TTP    C3436518   2.612   7.573   1.832 -0.4747 -0.6492 -0.7639
    3TTP    C3536519   2.602   7.439   1.763  0.2328 -0.1898  0.1769
    3TTP    C3636520   2.750   7.406   1.736 -0.7696 -0.8498 -0.5290
    3TTP    C3736521   2.797   7.255   1.694  2.4114 -0.3469 -0.6415
    3TTP    C3836522   2.796   7.148   1.807 -0.8856  0.2512  0.5431
    3TTP    C3936523   2.874   7.025   1.761 -0.7611 -0.8007  0.5785
    3TTP    C4036524   2.921   6.960   1.890 -0.4574  0.1650 -0.0812
    3TTP    C4136525   3.021   7.028   1.992 -1.4459 -0.3552 -0.8638
    3TTP    C4236526   3.156   6.952   2.018  0.5837 -0.4924 -0.7523
    4FIC     F136527   2.108   7.598   3.936  0.7137  0.5807  0.1144
    4FIC     F236528   2.261   7.456   4.111  0.4658  0.0112 -0.1262
    4FIC     O136529   2.434   7.613   3.504  0.5233  0.2785 -0.0411
    4FIC     N536530   2.713   7.263   4.054 -0.0265 -1.0228 -0.5831
    4FIC     N636531   2.937   7.304   3.682 -0.1253 -1.1442 -0.6559
    4FIC    C1936532   2.696   7.483   3.518  0.2187 -0.3726 -0.3261
    4FIC    C2036533   2.608   7.485   3.620  0.2763 -0.2745 -0.2776
    4FIC    C2136534   2.475   7.554   3.605  0.4339  0.0643 -0.1298
    4FIC    C2236535   2.405   7.537   3.733  0.4604  0.0899 -0.1117
    4FIC    C2336536   2.278   7.584   3.768  0.5903  0.3583  0.0079
    4FIC    C2436537   2.233   7.555   3.895  0.5888  0.3247 -0.0001
    4FIC    C2536538   2.311   7.482   3.985  0.4611  0.0313 -0.1242
    4FIC    C2636539   2.438   7.435   3.952  0.3310 -0.2375 -0.2438
    4FIC    C2736540   2.486   7.463   3.823  0.3302 -0.2083 -0.2378
    4FIC    C2836541   2.614   7.428   3.757  0.2120 -0.4439 -0.3448
    4FIC    C2936542   2.718   7.357   3.812  0.0702 -0.7589 -0.4801
    4FIC    C3036543   2.715   7.305   3.945  0.0175 -0.9029 -0.5362
    4FIC    C3136544   2.838   7.328   3.740 -0.0365 -0.9691 -0.5760
    5FIC     F136545   1.836   8.368   2.273  0.0207 -0.5474  0.8780
    5FIC     F236546   1.688   8.317   2.050  0.1652 -0.0556  0.6672
    5FIC     O136547   2.170   7.943   2.274  0.0654 -0.5162  0.1137
    5FIC     N536548   1.715   7.941   1.730  0.4049  0.6735 -0.1806
    5FIC     N636549   2.006   7.618   1.775  0.4107  0.5989 -0.7353
    5FIC    C1936550   2.148   7.743   2.061  0.2194 -0.0353 -0.3592
    5FIC    C2036551   2.070   7.852   2.069  0.2025 -0.0625 -0.1587
    5FIC    C2136552   2.087   7.950   2.182  0.1219 -0.3158  0.0780
    5FIC    C2236553   1.987   8.056   2.161  0.1237 -0.2782  0.2568
    5FIC    C2336554   1.964   8.169   2.239  0.0627 -0.4590  0.5014
    5FIC    C2436555   1.863   8.255   2.200  0.0784 -0.3787  0.6351
    5FIC    C2536556   1.787   8.228   2.085  0.1528 -0.1248  0.5261
    5FIC    C2636557   1.809   8.116   2.006  0.2139  0.0560  0.2822
    5FIC    C2736558   1.911   8.028   2.045  0.1993 -0.0217  0.1439
    5FIC    C2836559   1.959   7.901   1.984  0.2507  0.1211 -0.1158
    5FIC    C2936560   1.910   7.841   1.870  0.3281  0.3748 -0.2841
    5FIC    C3036561   1.803   7.896   1.793  0.3700  0.5382 -0.2266
    5FIC    C3136562   1.963   7.719   1.819  0.3731  0.4965 -0.5314
    1BTD     S236563   7.678   9.513   7.380  0.0207 -0.3944  0.0942
    1BTD     N136564   7.603   9.581   7.231 -0.1512 -0.7732  0.0066
    1BTD     N236565   7.842   9.498   7.308  0.1146  0.1409  0.1868
    1BTD     N336566   8.042   9.589   6.893 -0.0036  0.5472  0.2177
    1BTD     N436567   7.747   9.691   6.798 -0.3312 -0.5791 -0.0043
    1BTD     C536568   7.682   9.637   7.006 -0.2410 -0.6585  0.0035
    1BTD     C636569   7.700   9.588   7.140 -0.1305 -0.4959  0.0488
    1BTD     C736570   7.833   9.542   7.183  0.0181  0.0162  0.1496
    1BTD     C836571   7.943   9.547   7.090  0.0488  0.3393  0.2002
    1BTD    C1536572   7.921   9.595   6.960 -0.0628  0.1642  0.1531
    1BTD    C1636573   7.792   9.640   6.918 -0.2061 -0.3287  0.0558
    1BTD    C4336574   7.810   9.793   6.724 -0.3218 -0.1456  0.6020
    1BTD    C4436575   7.879   9.800   6.594 -0.7516 -0.2964  0.4817
    1BTD    C4536576   7.955   9.934   6.547  0.3452 -0.7413 -0.9391
    1BTD    C4636577   8.059   9.986   6.645  0.1624 -0.1259  0.8972
    1BTD    C4736578   7.800   9.738   6.485 -1.1719 -0.4945  0.2534
    1BTD    C4836579   7.813   9.594   6.464  0.4363 -0.0209 -0.6971
    1BTD    C4936580   7.746   9.537   6.353  0.2970  0.5531 -0.1221
    1BTD    C5036581   7.769   9.597   6.222  0.3006  0.3892  0.4055
    1BTD    C7536582   8.071   9.621   6.749 -0.5400 -1.4643 -0.3608
    1BTD    C7636583   8.154   9.530   6.662  0.1456 -0.2654  0.1021
    1BTD    C7736584   8.065   9.411   6.632  0.5244  0.8943  0.7610
    1BTD    C7836585   8.144   9.274   6.631  0.8344  0.4644  0.1590
    1BTD    C7936586   8.179   9.628   6.534 -1.7977  0.2106 -0.2069
    1BTD    C8036587   8.281   9.591   6.416  0.0548 -0.1797 -0.5919
    1BTD    C8136588   8.316   9.690   6.317  0.3862 -0.7398 -0.1776
    1BTD    C8236589   8.193   9.761   6.235 -0.0393 -2.2731 -0.7981
    2TTP     S136590   7.386   9.683   6.950 -0.0850 -0.4460  0.1060
    2TTP     S536591   7.475   9.792   6.544  0.1140  0.7324  0.4598
    2TTP     C136592   7.294   9.788   6.564  0.1043  0.7667  0.3837
    2TTP     C236593   7.256   9.754   6.691  0.0424  0.4048  0.2700
    2TTP     C336594   7.368   9.730   6.776  0.0002  0.0873  0.2389
    2TTP     C436595   7.566   9.687   6.929 -0.0757 -0.4799  0.1822
    2TTP    C1736596   7.605   9.721   6.803 -0.0136 -0.1182  0.2960
    2TTP    C1836597   7.493   9.745   6.717  0.0286  0.1988  0.3270
    2TTP    C3236598   7.114   9.740   6.748 -0.3691 -0.5539  0.4392
    2TTP    C3336599   7.078   9.589   6.740  0.0873 -0.0066 -0.9804
    2TTP    C3436600   6.920   9.548   6.726  0.5039  0.8462  0.6961
    2TTP    C3536601   6.845   9.531   6.850  0.6759  0.3648 -0.5302
    2TTP    C3636602   6.881   9.408   6.937  2.0489  0.2071 -0.3377
    2TTP    C3736603   6.834   9.430   7.087 -0.7097  0.7929  0.9675
    2TTP    C3836604   6.696   9.381   7.119  0.7594 -0.1848 -1.0273
    2TTP    C3936605   6.615   9.492   7.190 -0.2778 -0.9468  0.3796
    2TTP    C4036606   6.518   9.559   7.104  1.1450  0.6129  0.9718
    2TTP    C4136607   6.424   9.663   7.164  0.3536  0.5928  1.4387
    2TTP    C4236608   6.429   9.785   7.081 -0.5227 -0.3685 -0.1639
    3TTP     S136609   8.182   9.421   7.223  0.1705  0.0382  0.2793
    3TTP     S536610   8.413   9.469   6.863 -0.8578 -1.1532 -0.5562
    3TTP     C136611   8.517   9.387   6.988 -0.4544 -0.6108 -0.5291
    3TTP     C236612   8.452   9.368   7.107 -0.1130 -0.2110 -0.2695
    3TTP     C336613   8.317   9.417   7.103 -0.1578 -0.3185 -0.0827
    3TTP     C436614   8.078   9.503   7.098 -0.2329 -0.5038  0.2521
    3TTP    C1736615   8.143   9.523   6.980 -0.5746 -0.9038 -0.0075
    3TTP    C1836616   8.278   9.474   6.983 -0.5295 -0.7963 -0.1943
    3TTP    C3236617   8.501   9.298   7.236 -0.7112 -0.1523  0.9418
    3TTP    C3336618   8.458   9.165   7.283  1.5020 -0.0834  0.7872
    3TTP    C3436619   8.416   9.054   7.171  1.6939 -0.9663  0.7259
    3TTP    C3536620   8.522   9.035   7.071 -0.2227 -0.1067  0.5061
    3TTP    C3636621   8.489   8.970   6.949  0.8439  1.6865  1.3262
    3TTP    C3736622   8.369   9.019   6.866  0.5888 -1.2726  0.0410
    3TTP    C3836623   8.252   8.907   6.884 -0.6335  0.5205  0.9122
    3TTP    C3936624   8.123   8.930   6.820  0.3985 -1.2766  1.2160
    3TTP    C4036625   8.005   8.874   6.890  0.7042  0.4723 -1.2450
    3TTP    C4136626   7.902   8.793   6.808  0.7391  1.4802  0.0497
    3TTP    C4236627   7.956   8.675   6.727 -0.2834  0.3366  0.8476
    4FIC     F136628   7.217  10.471   6.116  0.0844  0.2728  0.2264
    4FIC     F236629   6.997  10.361   5.998  0.8154 -0.1535 -0.7632
    4FIC     O136630   7.349  10.081   6.469 -0.7631  0.5517  0.8602
    4FIC     N536631   6.776   9.926   6.080  1.2619 -0.5679 -1.7340
    4FIC     N636632   6.924   9.644   6.378  0.4524 -0.2642 -1.0393
    4FIC    C1936633   7.187   9.838   6.481 -0.3661  0.2432  0.1399
    4FIC    C2036634   7.162   9.941   6.397 -0.1813  0.1898  0.0191
    4FIC    C2136635   7.250  10.062   6.396 -0.4057  0.3574  0.4104
    4FIC    C2236636   7.195  10.153   6.294 -0.1177  0.2456  0.1541
    4FIC    C2336637   7.243  10.279   6.257 -0.1873  0.3340  0.3625
    4FIC    C2436638   7.175  10.346   6.158  0.1322  0.1959  0.0450
    4FIC    C2536639   7.062  10.290   6.097  0.5085 -0.0236 -0.4645
    4FIC    C2636640   7.013  10.164   6.133  0.5800 -0.1130 -0.6751
    4FIC    C2736641   7.081  10.094   6.234  0.2602  0.0238 -0.3597
    4FIC    C2836642   7.056   9.961   6.295  0.2360 -0.0186 -0.4628
    4FIC    C2936643   6.955   9.874   6.262  0.5422 -0.2143 -0.9180
    4FIC    C3036644   6.857   9.903   6.162  0.9370 -0.4079 -1.3649
    4FIC    C3136645   6.939   9.748   6.326  0.4910 -0.2406 -0.9819
    5FIC     F136646   8.998   9.331   6.326  0.4179 -0.6244  0.3282
    5FIC     F236647   9.212   9.346   6.494  0.3297  1.0509  0.3272
    5FIC     O136648   8.590   9.325   6.682  0.3781 -1.4422  0.2711
    5FIC     N536649   9.230   9.363   6.988  0.1740  2.8775  0.2855
    5FIC     N636650   8.868   9.355   7.232  0.1609  1.9011  0.2409
    5FIC    C1936651   8.650   9.337   6.969  0.2792 -0.1314  0.2500
    5FIC    C2036652   8.744   9.338   6.873  0.2930  0.0088  0.2644
    5FIC    C2136653   8.706   9.331   6.727  0.3448 -0.6974  0.2745
    5FIC    C2236654   8.832   9.334   6.651  0.3467 -0.3300  0.2893
    5FIC    C2336655   8.847   9.331   6.512  0.3865 -0.7401  0.3022
    5FIC    C2436656   8.976   9.335   6.462  0.3801 -0.2596  0.3150
    5FIC    C2536657   9.086   9.342   6.549  0.3344  0.6040  0.3144
    5FIC    C2636658   9.072   9.346   6.687  0.2940  1.0169  0.3015
    5FIC    C2736659   8.942   9.342   6.739  0.3004  0.5410  0.2886
    5FIC    C2836660   8.892   9.344   6.879  0.2656  0.7832  0.2733
    5FIC    C2936661   8.969   9.351   6.993  0.2174  1.5748  0.2685
    5FIC    C3036662   9.112   9.358   6.990  0.1938  2.2881  0.2776
    5FIC    C3136663   8.913   9.353   7.124  0.1864  1.7495  0.2533
    1BTD     S236664   0.312  10.216   3.242  0.1047 -0.1036 -0.0887
    1BTD     N136665   0.202  10.105   3.153  1.0412 -0.9594 -0.2168
    1BTD     N236666   0.273  10.149   3.404 -0.8453  0.7744  0.0666
    1BTD     N336667  -0.005   9.812   3.575 -1.0905  1.0188  0.1516
    1BTD     N436668  -0.093   9.758   3.266  1.2343 -1.1175 -0.1977
    1BTD     C536669   0.049   9.924   3.216  1.1139 -1.0161 -0.2026
    1BTD     C636670   0.145  10.028   3.245  0.6193 -0.5667 -0.1412
    1BTD     C736671   0.185  10.053   3.385 -0.4367  0.4039  0.0175
    1BTD     C836672   0.127   9.973   3.490 -0.9452  0.8762  0.1068
    1BTD    C1536673   0.034   9.872   3.457 -0.4311  0.4086  0.0419
    1BTD    C1636674  -0.005   9.849   3.322  0.5868 -0.5263 -0.1111
    1BTD    C4336675  -0.143   9.630   3.324 -0.2719  0.7953 -0.6491
    1BTD    C4436676  -0.074   9.490   3.311  0.5785  1.6437  0.4963
    1BTD    C4536677   0.083   9.501   3.307  1.0366  1.4659  0.4531
    1BTD    C4636678   0.182   9.410   3.240 -0.2675  0.3703  0.1738
    1BTD    C4736679  -0.120   9.391   3.413  0.6970 -0.8077 -0.4374
    1BTD    C4836680  -0.276   9.371   3.438 -0.6397 -0.1633  0.5403
    1BTD    C4936681  -0.373   9.365   3.327  0.6668 -0.4322 -0.7666
    1BTD    C5036682  -0.479   9.474   3.337  1.0281  0.8987 -0.8888
    1BTD    C7536683  -0.130   9.751   3.614 -0.0573  0.5955  0.0929
    1BTD    C7636684  -0.245   9.839   3.664  0.8175 -0.9404 -0.6773
    1BTD    C7736685  -0.284   9.963   3.568  0.1064 -0.0340 -0.3902
    1BTD    C7836686  -0.388   9.941   3.460  0.3906 -0.4925 -1.1865
    1BTD    C7936687  -0.371   9.800   3.752 -0.8066  0.3564  1.0923
    1BTD    C8036688  -0.350   9.734   3.883  1.0836  0.1590  0.4504
    1BTD    C8136689  -0.463   9.729   3.983  0.0243  0.2404  1.8663
    1BTD    C8236690  -0.586   9.669   3.942  0.1646 -0.0492 -0.1423
    2TTP     S136691  -0.008   9.930   2.928 -0.3609  0.2938 -0.2073
    2TTP     S536692  -0.328   9.648   2.981  0.3934 -0.7026 -0.8914
    2TTP     C136693  -0.325   9.701   2.807  0.2954 -0.3190 -0.7790
    2TTP     C236694  -0.226   9.791   2.780  0.0563  0.0110 -0.5611
    2TTP     C336695  -0.149   9.822   2.897 -0.0572 -0.0267 -0.4751
    2TTP     C436696  -0.011   9.878   3.103 -0.2627 -0.0899 -0.3197
    2TTP    C1736697  -0.110   9.787   3.129 -0.0241 -0.4197 -0.5376
    2TTP    C1836698  -0.187   9.756   3.013  0.0904 -0.3819 -0.6236
    2TTP    C3236699  -0.211   9.862   2.649  0.2168 -0.5389 -0.5117
    2TTP    C3336700  -0.100   9.816   2.555 -1.0151  0.2781  0.9495
    2TTP    C3436701   0.041   9.810   2.614  0.7682 -1.2155  1.2159
    2TTP    C3536702   0.153   9.773   2.510  0.3768 -0.2751 -1.1765
    2TTP    C3636703   0.133   9.785   2.359 -1.3062 -0.5092 -0.4199
    2TTP    C3736704   0.221   9.680   2.292  0.8698  0.3309  0.1332
    2TTP    C3836705   0.250   9.710   2.152 -0.4970 -0.1907  0.8280
    2TTP    C3936706   0.150   9.702   2.040 -0.3856  0.5146  0.3999
    2TTP    C4036707   0.202   9.724   1.901  0.3100 -0.7742  0.3120
    2TTP    C4136708   0.108   9.712   1.778 -0.3311 -0.3790 -0.7965
    2TTP    C4236709   0.174   9.734   1.646  0.0553 -0.4158  1.3477
    3TTP     S136710   0.292  10.004   3.740 -0.0701  0.1039  0.3731
    3TTP     S536711   0.060   9.692   3.924 -0.3410  0.2279  0.2432
    3TTP     C136712   0.195   9.739   4.037 -0.5465  0.3497  0.4400
    3TTP     C236713   0.275   9.838   3.987 -0.4749  0.3190  0.4915
    3TTP     C336714   0.232   9.881   3.857 -0.2552  0.1976  0.3777
    3TTP     C436715   0.157   9.958   3.627  0.1354 -0.0181  0.1764
    3TTP    C1736716   0.078   9.859   3.677  0.0638  0.0130  0.1247
    3TTP    C1836717   0.120   9.816   3.807 -0.1558  0.1342  0.2385
    3TTP    C3236718   0.375   9.918   4.061 -0.3099 -1.3766 -1.5271
    3TTP    C3336719   0.525   9.880   4.062 -0.5240  1.4488 -1.5438
    3TTP    C3436720   0.558   9.867   3.922  0.8305  0.6057  0.2856
    3TTP    C3536721   0.699   9.829   3.857  0.2100  0.0678 -1.4018
    3TTP    C3636722   0.712   9.750   3.727  0.2472 -2.0413  0.1772
    3TTP    C3736723   0.638   9.794   3.602 -1.4079 -0.2353  0.2921
    3TTP    C3836724   0.678   9.921   3.536  1.1906  0.6671 -0.2471
    3TTP    C3936725   0.755   9.893   3.410  0.3949  0.9227  0.3236
    3TTP    C4036726   0.720  10.006   3.337 -1.3351 -0.5305  0.6282
    3TTP    C4136727   0.639   9.968   3.221 -1.1139  1.1403 -0.2782
    3TTP    C4236728   0.640  10.076   3.112 -1.2397 -1.9547  0.8782
    4FIC     F136729  -0.964   9.182   2.734 -0.3068  0.9372  0.0612
    4FIC     F236730  -0.967   9.226   2.465  0.6857 -0.2644 -0.1676
    4FIC     O136731  -0.556   9.503   2.887 -0.1967  0.8376 -0.0200
    4FIC     N536732  -0.680   9.520   2.189  2.1915 -2.0633 -0.5545
    4FIC     N636733  -0.361   9.762   2.363  2.0773 -1.8992 -0.5718
    4FIC    C1936734  -0.414   9.660   2.685  0.7908 -0.3464 -0.2675
    4FIC    C2036735  -0.516   9.577   2.657  0.7243 -0.2742 -0.2380
    4FIC    C2136736  -0.585   9.500   2.766  0.2048  0.3495 -0.1088
    4FIC    C2236737  -0.691   9.421   2.702  0.2682  0.2642 -0.1090
    4FIC    C2336738  -0.781   9.333   2.762 -0.1073  0.7105 -0.0101
    4FIC    C2436739  -0.872   9.269   2.680  0.0444  0.5196 -0.0325
    4FIC    C2536740  -0.874   9.293   2.542  0.5566 -0.0998 -0.1505
    4FIC    C2636741  -0.784   9.380   2.481  0.9327 -0.5476 -0.2494
    4FIC    C2736742  -0.691   9.445   2.562  0.7863 -0.3636 -0.2286
    4FIC    C2836743  -0.583   9.542   2.529  1.0872 -0.7186 -0.3127
    4FIC    C2936744  -0.552   9.591   2.404  1.6031 -1.3404 -0.4360
    4FIC    C3036745  -0.623   9.552   2.286  1.9248 -1.7354 -0.5008
    4FIC    C3136746  -0.447   9.685   2.382  1.8609 -1.6441 -0.5100
    5FIC     F136747  -0.279   9.341   4.564 -0.3595  0.0982  0.4476
    5FIC     F236748  -0.056   9.222   4.667 -0.4203  0.0365  0.5091
    5FIC     O136749  -0.058   9.664   4.190 -0.1967 -0.2501  0.2421
    5FIC     N536750   0.420   9.282   4.549 -0.3917 -0.2995  0.4511
    5FIC     N636751   0.548   9.559   4.235 -0.2523 -0.5586  0.2780
    5FIC    C1936752   0.232   9.666   4.155 -0.1971 -0.4318  0.2277
    5FIC    C2036753   0.168   9.589   4.246 -0.2356 -0.3421  0.2772
    5FIC    C2136754   0.019   9.594   4.257 -0.2327 -0.2518  0.2811
    5FIC    C2236755  -0.018   9.499   4.364 -0.2806 -0.1671  0.3402
    5FIC    C2336756  -0.146   9.469   4.411 -0.2954 -0.0679  0.3643
    5FIC    C2436757  -0.155   9.375   4.513 -0.3422 -0.0014  0.4212
    5FIC    C2536758  -0.041   9.314   4.566 -0.3738 -0.0330  0.4528
    5FIC    C2636759   0.087   9.344   4.520 -0.3593 -0.1318  0.4290
    5FIC    C2736760   0.099   9.438   4.416 -0.3117 -0.2005  0.3716
    5FIC    C2836761   0.218   9.491   4.346 -0.2853 -0.3092  0.3340
    5FIC    C2936762   0.349   9.456   4.369 -0.3034 -0.3681  0.3492
    5FIC    C3036763   0.388   9.361   4.468 -0.3519 -0.3300  0.4051
    5FIC    C3136764   0.458   9.513   4.295 -0.2752 -0.4725  0.3098
    1BTD     S236765   5.565   8.911   4.676  0.0925  0.1681  0.7983
    1BTD     N136766   5.459   9.055   4.658  0.1066  0.1938  0.9166
    1BTD     N236767   5.439   8.811   4.756 -0.0283 -0.0088  0.3926
    1BTD     N336768   4.991   8.866   4.887 -0.2483 -0.3242 -0.2211
    1BTD     N436769   5.016   9.168   4.765 -0.0821 -0.0744  0.4249
    1BTD     C536770   5.227   9.110   4.715  0.0062  0.0508  0.6522
    1BTD     C636771   5.341   9.023   4.710  0.0249  0.0749  0.6607
    1BTD     C736772   5.330   8.886   4.765 -0.0505 -0.0384  0.3673
    1BTD     C836773   5.206   8.843   4.823 -0.1411 -0.1705  0.0799
    1BTD    C1536774   5.097   8.932   4.826 -0.1564 -0.1896  0.0827
    1BTD    C1636775   5.107   9.064   4.773 -0.0837 -0.0802  0.3654
    1BTD    C4336776   4.892   9.196   4.839  0.4555  0.0441 -0.4692
    1BTD    C4436777   4.907   9.291   4.977  0.4502 -0.5086 -0.1301
    1BTD    C4536778   5.030   9.337   5.051 -0.1598 -0.6011  0.9133
    1BTD    C4636779   5.076   9.465   4.969  0.5334 -0.3641 -1.0225
    1BTD    C4736780   4.774   9.307   5.049 -1.6831  0.3509  0.1691
    1BTD    C4836781   4.639   9.329   4.999  0.5393  0.3268  0.1569
    1BTD    C4936782   4.621   9.436   4.882  0.3912 -0.3357 -0.0612
    1BTD    C5036783   4.536   9.400   4.765  0.0247 -1.3586  0.2392
    1BTD    C7536784   4.845   8.909   4.872 -0.6789  1.3754 -0.3320
    1BTD    C7636785   4.737   8.817   4.790 -0.4422 -1.1780  0.5785
    1BTD    C7736786   4.754   8.794   4.637  0.2477  1.0684 -0.0700
    1BTD    C7836787   4.646   8.858   4.557 -0.3080  0.3843 -0.5141
    1BTD    C7936788   4.646   8.724   4.873  0.2182 -0.7325  1.0557
    1BTD    C8036789   4.549   8.796   4.964  1.0583 -0.4690  0.6154
    1BTD    C8136790   4.478   8.754   5.090 -0.6308  0.4007  0.6598
    1BTD    C8236791   4.378   8.641   5.064  1.1557  0.5024  1.2487
    2TTP     S136792   5.285   9.364   4.572 -0.3850 -0.5730  0.1772
    2TTP     S536793   4.874   9.482   4.615 -0.1156  0.2661  0.4907
    2TTP     C136794   4.960   9.608   4.516  0.0772  0.1162  0.4676
    2TTP     C236795   5.092   9.579   4.497  0.0054 -0.1516  0.3695
    2TTP     C336796   5.130   9.456   4.560 -0.2044 -0.2484  0.3089
    2TTP     C436797   5.199   9.238   4.671 -0.5779 -0.4237  0.2002
    2TTP    C1736798   5.066   9.267   4.690 -0.5060 -0.1557  0.2983
    2TTP    C1836799   5.029   9.390   4.627 -0.2961 -0.0584  0.3588
    2TTP    C3236800   5.201   9.656   4.421  0.0241 -0.7192 -0.2826
    2TTP    C3336801   5.275   9.619   4.287 -0.7645  0.8993  0.9525
    2TTP    C3436802   5.355   9.735   4.226 -0.3862  0.0992 -0.0889
    2TTP    C3536803   5.469   9.704   4.129  0.5106  0.3340 -0.4709
    2TTP    C3636804   5.567   9.820   4.092  0.5600 -0.3590 -0.3343
    2TTP    C3736805   5.714   9.817   4.137 -0.9158 -0.6157 -0.4642
    2TTP    C3836806   5.774   9.951   4.194 -0.4446 -0.4967 -0.2666
    2TTP    C3936807   5.784  10.070   4.106  0.2919 -0.8561  0.2382
    2TTP    C4036808   5.852  10.181   4.189  1.3492  0.0397  0.2991
    2TTP    C4136809   5.774  10.259   4.298  0.2346  0.0724  0.3252
    2TTP    C4236810   5.867  10.335   4.383 -0.2031 -0.4546  0.4522
    3TTP     S136811   5.253   8.589   4.960  0.1551  0.1949  0.4021
    3TTP     S536812   4.879   8.623   5.171  0.0653 -0.4117  0.3459
    3TTP     C136813   4.975   8.486   5.243  0.1832 -0.3983  0.2180
    3TTP     C236814   5.096   8.468   5.182  0.2176 -0.2103  0.2277
    3TTP     C336815   5.117   8.561   5.076  0.1525 -0.0699  0.3366
    3TTP     C436816   5.157   8.726   4.887  0.0374  0.1810  0.5304
    3TTP    C1736817   5.036   8.744   4.948  0.0027 -0.0067  0.5204
    3TTP    C1836818   5.015   8.651   5.054  0.0679 -0.1471  0.4114
    3TTP    C3236819   5.195   8.356   5.208  0.3945 -1.8382 -1.0078
    3TTP    C3336820   5.194   8.233   5.152  1.2020  0.1592  0.0818
    3TTP    C3436821   5.266   8.218   5.023  1.0122  0.6782 -0.2488
    3TTP    C3536822   5.400   8.143   5.029 -0.4676  0.7687  0.2579
    3TTP    C3636823   5.470   8.098   4.898 -1.0663 -0.1284 -0.3180
    3TTP    C3736824   5.397   7.965   4.852 -0.1421 -0.7584 -0.3177
    3TTP    C3836825   5.376   7.851   4.945 -0.1400  1.3006 -0.0090
    3TTP    C3936826   5.507   7.787   4.990  0.0991  0.8262  0.2203
    3TTP    C4036827   5.496   7.632   4.953  0.3645 -0.7594  0.8950
    3TTP    C4136828   5.557   7.558   5.070 -0.8140 -0.5651  1.4568
    3TTP    C4236829   5.522   7.418   5.042 -0.1948 -0.6157 -0.5686
    4FIC     F136830   4.418  10.116   4.834  0.6222  0.3984  0.3920
    4FIC     F236831   4.436  10.273   4.612 -0.2383 -0.1252 -0.0560
    4FIC     O136832   4.767   9.721   4.710  0.6778  0.4799  0.2886
    4FIC     N536833   4.710  10.216   4.204 -1.4360 -0.8202 -0.7737
    4FIC     N636834   4.979   9.875   4.151 -1.2192 -0.6509 -0.7643
    4FIC    C1936835   4.907   9.730   4.453 -0.1246  0.0084 -0.1763
    4FIC    C2036836   4.819   9.823   4.493 -0.1050  0.0088 -0.1326
    4FIC    C2136837   4.751   9.812   4.627  0.3197  0.2589  0.1110
    4FIC    C2236838   4.662   9.929   4.638  0.2254  0.1893  0.0963
    4FIC    C2336839   4.578   9.962   4.745  0.5171  0.3562  0.2775
    4FIC    C2436840   4.503  10.078   4.733  0.3518  0.2447  0.2214
    4FIC    C2536841   4.513  10.158   4.619 -0.0916 -0.0249 -0.0099
    4FIC    C2636842   4.596  10.126   4.512 -0.3843 -0.1926 -0.1915
    4FIC    C2736843   4.673  10.009   4.522 -0.2229 -0.0837 -0.1378
    4FIC    C2836844   4.770   9.947   4.428 -0.4438 -0.2058 -0.2877
    4FIC    C2936845   4.806   9.996   4.305 -0.8792 -0.4666 -0.5248
    4FIC    C3036846   4.753  10.116   4.250 -1.1839 -0.6602 -0.6609
    4FIC    C3136847   4.901   9.929   4.221 -1.0636 -0.5662 -0.6552
    5FIC     F136848   4.321   8.542   5.741 -0.2667  0.0703  0.1372
    5FIC     F236849   4.387   8.299   5.845 -0.0379  0.1962  0.2899
    5FIC     O136850   4.719   8.610   5.380 -0.3496  0.2017  0.0700
    5FIC     N536851   4.765   7.998   5.737  0.2315  0.4714  0.4616
    5FIC     N636852   5.063   8.100   5.434  0.1205  0.5488  0.3784
    5FIC    C1936853   4.923   8.402   5.351 -0.1607  0.3691  0.1920
    5FIC    C2036854   4.821   8.394   5.438 -0.1487  0.3312  0.2031
    5FIC    C2136855   4.720   8.505   5.447 -0.2499  0.2449  0.1373
    5FIC    C2236856   4.622   8.465   5.550 -0.2073  0.2224  0.1689
    5FIC    C2336857   4.511   8.536   5.594 -0.2695  0.1485  0.1299
    5FIC    C2436858   4.433   8.477   5.693 -0.2102  0.1413  0.1723
    5FIC    C2536859   4.467   8.352   5.746 -0.0926  0.2064  0.2507
    5FIC    C2636860   4.579   8.281   5.703 -0.0298  0.2806  0.2900
    5FIC    C2736861   4.658   8.339   5.603 -0.0883  0.2887  0.2483
    5FIC    C2836862   4.781   8.290   5.536 -0.0476  0.3581  0.2725
    5FIC    C2936863   4.847   8.171   5.561  0.0625  0.4330  0.3451
    5FIC    C3036864   4.802   8.077   5.658  0.1551  0.4539  0.4090
    5FIC    C3136865   4.965   8.133   5.491  0.0937  0.4964  0.3630
    1BTD     S236866   5.277   7.810   8.551 -0.0124 -0.1798  0.2229
    1BTD     N136867   5.436   7.761   8.619  0.0474 -0.2598  0.0298
    1BTD     N236868   5.337   7.967   8.487 -0.0452 -0.1475  0.2723
    1BTD     N336869   5.745   8.199   8.481 -0.0044 -0.2255  0.0238
    1BTD     N436870   5.867   7.945   8.644  0.1097 -0.3637 -0.2754
    1BTD     C536871   5.660   7.860   8.630  0.0787 -0.3124 -0.1259
    1BTD     C636872   5.521   7.859   8.592  0.0402 -0.2580  0.0129
    1BTD     C736873   5.465   7.974   8.518 -0.0118 -0.1953  0.1488
    1BTD     C836874   5.551   8.085   8.486 -0.0225 -0.1895  0.1390
    1BTD    C1536875   5.687   8.082   8.525  0.0163 -0.2443  0.0010
    1BTD    C1636876   5.740   7.970   8.596  0.0662 -0.3048 -0.1301
    1BTD    C4336877   5.954   8.050   8.703 -1.7588 -0.0360  0.4845
    1BTD    C4436878   6.108   8.047   8.669 -1.2002  0.0700  0.1097
    1BTD    C4536879   6.172   8.007   8.532 -0.6312  1.4889 -0.0672
    1BTD    C4636880   6.200   7.848   8.484 -0.1689 -1.9422  0.7281
    1BTD    C4736881   6.206   8.146   8.740  1.2838 -0.8306  0.9068
    1BTD    C4836882   6.196   8.188   8.886  0.4568 -1.0749  0.6503
    1BTD    C4936883   6.319   8.273   8.907 -1.1472 -0.5977  0.8178
    1BTD    C5036884   6.307   8.347   9.024 -1.1143  0.3171  1.0335
    1BTD    C7536885   5.888   8.214   8.461  0.0812 -0.2314 -1.1152
    1BTD    C7636886   5.959   8.339   8.423 -1.2240 -0.2240  1.0631
    1BTD    C7736887   6.031   8.308   8.288 -0.8844  0.2727 -0.3511
    1BTD    C7836888   5.977   8.362   8.152 -0.1688  0.2156  0.1000
    1BTD    C7936889   6.051   8.421   8.535 -0.0689  1.4826  1.5344
    1BTD    C8036890   6.155   8.511   8.471 -1.0159 -1.6612 -0.4082
    1BTD    C8136891   6.161   8.634   8.547 -0.8764 -1.1215  1.3461
    1BTD    C8236892   6.270   8.743   8.514  0.1400  0.6273 -0.5684
    2TTP     S136893   5.709   7.629   8.810  0.0062  0.0095 -0.3759
    2TTP     S536894   6.116   7.761   8.854 -0.2042  0.4479  0.3023
    2TTP     C136895   6.086   7.625   8.971 -0.1949  0.2736  0.1052
    2TTP     C236896   5.959   7.577   8.965 -0.1293  0.1280 -0.1156
    2TTP     C336897   5.880   7.645   8.867 -0.0842  0.1487 -0.1378
    2TTP     C436898   5.739   7.765   8.692 -0.0030  0.1838 -0.1788
    2TTP    C1736899   5.867   7.813   8.699 -0.0686  0.3294  0.0418
    2TTP    C1836900   5.945   7.745   8.797 -0.1138  0.3085  0.0639
    2TTP    C3236901   5.923   7.452   9.047  0.3854 -0.8941 -0.2489
    2TTP    C3336902   5.840   7.337   8.988 -0.5930  0.8547 -0.7119
    2TTP    C3436903   5.876   7.201   8.930  1.7276  0.4594 -0.4092
    2TTP    C3536904   5.961   7.171   8.813  0.0527  0.6956  0.5363
    2TTP    C3636905   6.094   7.255   8.757 -0.2614  0.2559 -0.2316
    2TTP    C3736906   6.078   7.363   8.642  0.2826  0.1834 -0.0821
    2TTP    C3836907   6.129   7.319   8.504 -0.1197 -1.3654 -0.1643
    2TTP    C3936908   6.171   7.443   8.417 -0.0265 -0.0344 -0.3934
    2TTP    C4036909   6.153   7.435   8.255  0.3183  0.8978  0.5294
    2TTP    C4136910   6.181   7.556   8.189  0.0566 -1.3313  0.3504
    2TTP    C4236911   6.305   7.609   8.112  0.4163  0.3980  0.5348
    3TTP     S136912   5.387   8.310   8.360 -0.2215  0.0536 -0.4828
    3TTP     S536913   5.727   8.571   8.400 -0.9611  0.8526  0.7145
    3TTP     C136914   5.584   8.670   8.349 -1.0775  0.5590  0.4651
    3TTP     C236915   5.470   8.596   8.333 -0.8560  0.2952  0.0803
    3TTP     C336916   5.492   8.457   8.361 -0.5863  0.3152 -0.0308
    3TTP     C436917   5.531   8.211   8.411 -0.1050  0.3467 -0.2332
    3TTP    C1736918   5.644   8.285   8.426 -0.3265  0.6109  0.1514
    3TTP    C1836919   5.622   8.424   8.398 -0.5963  0.5910  0.2623
    3TTP    C3236920   5.327   8.650   8.316  1.2030  0.4999  0.4810
    3TTP    C3336921   5.214   8.546   8.285  0.5581  0.3411 -0.2749
    3TTP    C3436922   5.146   8.604   8.169 -0.2552 -0.3896  1.0272
    3TTP    C3536923   5.065   8.485   8.099 -0.3430  1.3781 -1.3422
    3TTP    C3636924   4.975   8.540   7.999  0.6279  0.1607  0.0896
    3TTP    C3736925   4.899   8.425   7.934  0.0498 -1.0251 -0.5136
    3TTP    C3836926   4.775   8.469   7.862  0.0307 -0.0836 -0.8802
    3TTP    C3936927   4.701   8.371   7.789  0.7842  1.3197 -0.6658
    3TTP    C4036928   4.659   8.242   7.853 -0.4897 -0.7518  0.2445
    3TTP    C4136929   4.611   8.138   7.768 -0.0629  0.3209  0.0197
    3TTP    C4236930   4.540   8.006   7.827 -1.0327 -0.3096  0.0903
    4FIC     F136931   6.905   7.580   8.958 -0.0474  0.0057  0.2253
    4FIC     F236932   6.896   7.495   9.216 -0.1842  0.2972  0.3173
    4FIC     O136933   6.377   7.630   8.849  0.0069 -0.2332 -0.1488
    4FIC     N536934   6.508   7.408   9.510 -0.3420  0.5460  0.1826
    4FIC     N636935   6.097   7.464   9.372 -0.2719  0.3006 -0.1283
    4FIC    C1936936   6.181   7.566   9.057 -0.1043 -0.0395 -0.1940
    4FIC    C2036937   6.315   7.557   9.074 -0.1127  0.0093 -0.1035
    4FIC    C2136938   6.409   7.591   8.962 -0.0530 -0.0973 -0.0863
    4FIC    C2236939   6.545   7.571   9.015 -0.0799 -0.0080  0.0196
    4FIC    C2336940   6.666   7.590   8.948 -0.0435 -0.0579  0.0703
    4FIC    C2436941   6.782   7.564   9.018 -0.0802  0.0472  0.1704
    4FIC    C2536942   6.778   7.520   9.151 -0.1505  0.1974  0.2178
    4FIC    C2636943   6.658   7.501   9.219 -0.1870  0.2476  0.1676
    4FIC    C2736944   6.539   7.527   9.149 -0.1509  0.1429  0.0660
    4FIC    C2836945   6.397   7.516   9.191 -0.1739  0.1596 -0.0076
    4FIC    C2936946   6.350   7.477   9.314 -0.2395  0.2896  0.0095
    4FIC    C3036947   6.437   7.439   9.421 -0.2955  0.4300  0.1049
    4FIC    C3136948   6.211   7.470   9.345 -0.2570  0.2949 -0.0660
    5FIC     F136949   6.126   9.290   8.424 -0.1473  0.4320  0.4065
    5FIC     F236950   5.966   9.436   8.260  0.6015 -0.0670 -0.7913
    5FIC     O136951   5.842   8.830   8.459 -0.6168  0.7658  1.0417
    5FIC     N536952   5.535   9.319   8.048  1.3437 -0.5465 -2.0611
    5FIC     N636953   5.345   8.930   8.108  0.8262 -0.1853 -1.3230
    5FIC    C1936954   5.589   8.806   8.314 -0.0679  0.4077  0.1227
    5FIC    C2036955   5.667   8.916   8.312  0.0209  0.3431  0.0098
    5FIC    C2136956   5.795   8.921   8.389 -0.2770  0.5376  0.5062
    5FIC    C2236957   5.854   9.054   8.365 -0.0858  0.4051  0.2301
    5FIC    C2336958   5.974   9.104   8.415 -0.2458  0.5069  0.5116
    5FIC    C2436959   6.009   9.234   8.378 -0.0078  0.3438  0.1568
    5FIC    C2536960   5.926   9.309   8.293  0.3780  0.0868 -0.4601
    5FIC    C2636961   5.807   9.259   8.242  0.5394 -0.0165 -0.7441
    5FIC    C2736962   5.770   9.129   8.279  0.3031  0.1459 -0.3922
    5FIC    C2836963   5.651   9.047   8.243  0.3840  0.0978 -0.5522
    5FIC    C2936964   5.547   9.085   8.161  0.7293 -0.1307 -1.1137
    5FIC    C3036965   5.541   9.214   8.099  1.0660 -0.3586 -1.6327
    5FIC    C3136966   5.437   9.000   8.132  0.7806 -0.1595 -1.2259
    1BTD     S236967   8.610   1.788   9.929 -0.0621 -0.4403 -0.6972
    1BTD     N136968   8.781   1.781   9.986 -0.1745 -0.0153 -0.2992
    1BTD     N236969   8.640   1.917   9.808  0.0324 -0.8439 -1.1113
    1BTD     N336970   9.009   2.170   9.664  0.0212 -0.8994 -1.2360
    1BTD     N436971   9.182   2.002   9.883 -0.2337  0.1217 -0.2353
    1BTD     C536972   8.988   1.899   9.930 -0.2022  0.0439 -0.2780
    1BTD     C636973   8.848   1.872   9.916 -0.1380 -0.1873 -0.4859
    1BTD     C736974   8.769   1.948   9.816 -0.0219 -0.6512 -0.9403
    1BTD     C836975   8.835   2.047   9.736  0.0236 -0.8606 -1.1642
    1BTD    C1536976   8.973   2.070   9.753 -0.0426 -0.6214 -0.9478
    1BTD    C1636977   9.048   1.997   9.849 -0.1542 -0.1744 -0.5101
    1BTD    C4336978   9.261   2.121   9.911 -1.0105 -0.1044  0.9189
    1BTD    C4436979   9.277   2.197  10.046  0.3099 -1.2442 -0.4019
    1BTD    C4536980   9.424   2.191  10.103 -0.5423 -0.2053  1.0337
    1BTD    C4636981   9.454   2.276  10.225 -0.7907  0.7547 -1.3147
    1BTD    C4736982   9.164   2.201  10.156 -0.0564 -0.7092 -0.7020
    1BTD    C4836983   9.040   2.285  10.109 -0.6806 -0.0786  0.1438
    1BTD    C4936984   9.088   2.427  10.090 -0.5663 -0.1327 -1.0206
    1BTD    C5036985   9.116   2.529  10.201  0.4836 -0.4399  1.1529
    1BTD    C7536986   9.135   2.229   9.630  1.1669  0.8489 -1.3946
    1BTD    C7636987   9.223   2.131   9.532  0.2587 -0.5880  0.6104
    1BTD    C7736988   9.206   2.131   9.379  1.8497  0.3294 -1.9240
    1BTD    C7836989   9.060   2.108   9.327 -1.3184  0.8581  0.0826
    1BTD    C7936990   9.377   2.132   9.594 -0.5281 -0.4925  0.7902
    1BTD    C8036991   9.485   2.017   9.579  0.3146 -1.0443  0.3175
    1BTD    C8136992   9.555   1.997   9.453  0.6539  0.0991  1.1679
    1BTD    C8236993   9.703   1.981   9.462  0.1591  0.1594  0.6228
    2TTP     S136994   9.105   1.673  10.060 -0.2713  0.0035  0.0451
    2TTP     S536995   9.495   1.797   9.925 -0.4439  0.6678  0.1500
    2TTP     C136996   9.505   1.624   9.981 -0.1602  0.6899  0.1678
    2TTP     C236997   9.385   1.576  10.026 -0.0904  0.4860  0.1366
    2TTP     C336998   9.281   1.674  10.018 -0.2582  0.3051  0.0970
    2TTP     C436999   9.095   1.846  10.004 -0.5548 -0.0185  0.0269
    2TTP    C1737000   9.215   1.894   9.959 -0.6245  0.1853  0.0581
    2TTP    C1837001   9.319   1.797   9.967 -0.4570  0.3663  0.0973
    2TTP    C3237002   9.333   1.443  10.058 -0.8826 -1.1195  1.0347
    2TTP    C3337003   9.361   1.329   9.958  0.5948  1.3024  0.1780
    2TTP    C3437004   9.279   1.285   9.835 -0.2403 -0.8211  1.9822
    2TTP    C3537005   9.348   1.346   9.714 -1.1671  1.7862  0.5358
    2TTP    C3637006   9.359   1.489   9.672  0.1743  0.0212  0.4527
    2TTP    C3737007   9.355   1.545   9.519 -1.0712 -0.1046  0.4710
    2TTP    C3837008   9.226   1.547   9.436 -0.0455 -1.0156 -0.8940
    2TTP    C3937009   9.097   1.584   9.497 -0.6877  0.7456 -0.1042
    2TTP    C4037010   9.025   1.708   9.460  0.3632 -1.0738  0.1440
    2TTP    C4137011   8.910   1.733   9.570 -0.7600 -0.0155  1.3127
    2TTP    C4237012   8.787   1.643   9.552  0.0497  1.9812  0.7405
    3TTP     S137013   8.636   2.169   9.545 -0.1093 -0.0664 -0.0379
    3TTP     S537014   8.947   2.423   9.392 -0.2358  0.2145  0.1709
    3TTP     C137015   8.800   2.440   9.285 -0.1948  0.1171  0.0987
    3TTP     C237016   8.696   2.362   9.326 -0.1533  0.0246  0.0308
    3TTP     C337017   8.728   2.287   9.443 -0.1526  0.0274  0.0317
    3TTP     C437018   8.783   2.152   9.652 -0.1504  0.0310  0.0339
    3TTP    C1737019   8.887   2.230   9.611 -0.1918  0.1235  0.1024
    3TTP    C1837020   8.856   2.305   9.493 -0.1926  0.1208  0.1006
    3TTP    C3237021   8.577   2.343   9.223  0.5521 -0.8527 -0.7891
    3TTP    C3337022   8.443   2.307   9.297 -0.9315 -0.9450 -0.1491
    3TTP    C3437023   8.325   2.287   9.202 -0.4347 -0.0269  0.5071
    3TTP    C3537024   8.188   2.257   9.276 -1.5938  0.3892  0.9595
    3TTP    C3637025   8.063   2.227   9.187  0.6764  0.2863  1.3730
    3TTP    C3737026   8.074   2.125   9.064  0.1972 -0.0070 -0.0372
    3TTP    C3837027   8.115   1.986   9.112 -0.7225  0.0313 -1.0990
    3TTP    C3937028   7.992   1.916   9.153  0.3790  1.4139  1.4097
    3TTP    C4037029   7.934   1.914   9.290  1.3579  0.3642  0.4149
    3TTP    C4137030   7.838   1.812   9.343 -0.3918  1.1381 -0.1325
    3TTP    C4237031   7.911   1.673   9.358 -0.0149 -0.7248  0.2359
    4FIC     F137032  10.236   1.932  10.162 -0.1161 -0.2680  0.4756
    4FIC     F237033  10.350   1.708  10.058  0.0546  0.2711 -0.5269
    4FIC     O137034   9.711   1.813  10.111 -0.0234 -0.7944  0.7391
    4FIC     N537035  10.139   1.300   9.872  0.3660  0.6709 -1.7800
    4FIC     N637036   9.706   1.252   9.854  0.4041  0.1509 -1.3719
    4FIC    C1937037   9.633   1.556   9.994  0.1726 -0.4664 -0.1249
    4FIC    C2037038   9.761   1.595  10.011  0.1428 -0.3550 -0.1519
    4FIC    C2137039   9.793   1.728  10.072  0.0408 -0.5373  0.3088
    4FIC    C2237040   9.940   1.739  10.075  0.0327 -0.3507  0.1473
    4FIC    C2337041  10.017   1.844  10.123 -0.0482 -0.4239  0.4427
    4FIC    C2437042  10.155   1.831  10.116 -0.0386 -0.2104  0.2057
    4FIC    C2537043  10.213   1.716  10.062  0.0489  0.0672 -0.3107
    4FIC    C2637044  10.137   1.610  10.014  0.1299  0.1418 -0.6075
    4FIC    C2737045   9.997   1.621  10.021  0.1221 -0.0715 -0.3746
    4FIC    C2837046   9.889   1.528   9.979  0.1929 -0.0632 -0.5791
    4FIC    C2937047   9.906   1.404   9.922  0.2873  0.1705 -1.0700
    4FIC    C3037048  10.034   1.347   9.895  0.3304  0.4448 -1.4589
    4FIC    C3137049   9.796   1.321   9.885  0.3510  0.1583 -1.2333
    5FIC     F137050   9.382   2.726   8.785 -0.0730 -0.2967 -0.0813
    5FIC     F237051   9.206   2.916   8.699  0.0596  0.0566  0.4220
    5FIC     O137052   9.074   2.448   9.132  0.0718 -0.2897  0.0527
    5FIC     N537053   8.733   2.989   8.825  0.3521  0.5696  1.2422
    5FIC     N637054   8.528   2.734   9.114  0.4387  0.5040  1.2450
    5FIC    C1937055   8.796   2.530   9.174  0.2492  0.0504  0.5812
    5FIC    C2037056   8.881   2.593   9.090  0.2079  0.0348  0.5281
    5FIC    C2137057   9.022   2.545   9.074  0.1166 -0.1446  0.2511
    5FIC    C2237058   9.086   2.635   8.976  0.0913 -0.1137  0.2630
    5FIC    C2337059   9.217   2.630   8.928  0.0126 -0.2401  0.0553
    5FIC    C2437060   9.254   2.725   8.836  0.0035 -0.1789  0.1149
    5FIC    C2537061   9.163   2.823   8.792  0.0715  0.0032  0.3745
    5FIC    C2637062   9.033   2.828   8.839  0.1504  0.1300  0.5825
    5FIC    C2737063   8.993   2.732   8.933  0.1607  0.0706  0.5262
    5FIC    C2837064   8.863   2.710   9.001  0.2353  0.1692  0.6993
    5FIC    C2937065   8.749   2.785   8.986  0.3140  0.3502  0.9675
    5FIC    C3037066   8.740   2.897   8.897  0.3350  0.4702  1.1177
    5FIC    C3137067   8.628   2.756   9.056  0.3822  0.4337  1.1184
    1BTD     S237068   0.749  11.075   1.532 -0.0168  0.3452  0.9796
    1BTD     N137069   0.759  10.987   1.688 -0.4492  0.3028  0.9845
    1BTD     N237070   0.709  10.929   1.435  0.5855  0.3133  0.7715
    1BTD     N337071   0.645  10.472   1.520  1.0318  0.1714  0.3563
    1BTD     N437072   0.706  10.543   1.832 -0.2431  0.1588  0.6187
    1BTD     C537073   0.730  10.754   1.759 -0.3262  0.2282  0.7903
    1BTD     C637074   0.733  10.859   1.661 -0.1385  0.2689  0.8383
    1BTD     C737075   0.705  10.827   1.520  0.4406  0.2747  0.7192
    1BTD     C837076   0.677  10.691   1.483  0.8031  0.2391  0.5579
    1BTD    C1537077   0.675  10.591   1.582  0.6013  0.1998  0.5163
    1BTD    C1637078   0.702  10.622   1.719  0.0433  0.1942  0.6312
    1BTD    C4337079   0.650  10.417   1.862  0.3391  1.0493 -0.1364
    1BTD    C4437080   0.615  10.364   2.007  1.1047 -1.2091  0.0990
    1BTD    C4537081   0.541  10.481   2.078 -0.0612 -0.4354 -1.2626
    1BTD    C4637082   0.471  10.443   2.205  0.4558  0.0020  1.2196
    1BTD    C4737083   0.530  10.231   1.982 -0.4899 -0.2366 -0.8525
    1BTD    C4837084   0.615  10.117   1.930 -0.5312 -0.2551  0.6467
    1BTD    C4937085   0.716  10.035   2.010 -1.0270  1.2570  1.0927
    1BTD    C5037086   0.701  10.040   2.155  0.6030  0.3509 -0.2887
    1BTD    C7537087   0.665  10.338   1.563  0.5523  0.3972  0.0036
    1BTD    C7637088   0.789  10.260   1.520 -1.3113  0.5743  1.2406
    1BTD    C7737089   0.810  10.224   1.373 -0.5835 -0.3902  1.1118
    1BTD    C7837090   0.743  10.093   1.366 -0.6414  1.5001  0.3241
    1BTD    C7937091   0.915  10.338   1.576  0.6189  1.2220  0.7216
    1BTD    C8037092   1.041  10.246   1.564 -0.4458 -0.6631 -2.2980
    1BTD    C8137093   1.049  10.101   1.599 -0.8178 -0.2032 -0.1529
    1BTD    C8237094   1.020  10.045   1.736 -0.7108 -0.3005 -0.0736
    2TTP     S137095   0.897  10.855   1.984  0.0732  0.4285  0.5673
    2TTP     S537096   0.923  10.449   2.123 -0.3594  0.3767  0.5019
    2TTP     C137097   1.049  10.548   2.209 -0.4921  0.3033  0.7830
    2TTP     C237098   1.049  10.679   2.171 -0.3664  0.3150  0.8198
    2TTP     C337099   0.948  10.706   2.073 -0.1606  0.3824  0.6272
    2TTP     C437100   0.771  10.756   1.898  0.2059  0.5021  0.2862
    2TTP    C1737101   0.772  10.625   1.936  0.0802  0.4905  0.2494
    2TTP    C1837102   0.872  10.598   2.034 -0.1256  0.4230  0.4419
    2TTP    C3237103   1.142  10.789   2.204 -0.2505 -1.2073 -0.4438
    2TTP    C3337104   1.144  10.858   2.338  0.2201  0.4791 -0.4823
    2TTP    C3437105   1.025  10.928   2.399 -0.4572  0.3522  0.5073
    2TTP    C3537106   0.906  10.848   2.453  0.6038 -0.6751 -0.0509
    2TTP    C3637107   0.935  10.780   2.591  0.7086 -0.7911 -1.0837
    2TTP    C3737108   0.887  10.643   2.623 -0.7055  0.4134  0.4386
    2TTP    C3837109   0.744  10.615   2.625  0.4867 -0.4688  1.3420
    2TTP    C3937110   0.690  10.474   2.584  1.0440 -0.0073  1.1800
    2TTP    C4037111   0.548  10.443   2.633  1.0938  0.5770  0.4630
    2TTP    C4137112   0.455  10.365   2.537  0.7092 -0.1268  0.1597
    2TTP    C4237113   0.295  10.355   2.554  1.1354 -0.5596  0.3420
    3TTP     S137114   0.595  10.678   1.193 -0.0032 -0.0733 -0.4189
    3TTP     S537115   0.452  10.278   1.256  0.4606 -0.2773 -0.6575
    3TTP     C137116   0.405  10.331   1.088  0.1414 -0.1223 -0.5195
    3TTP     C237117   0.446  10.458   1.059 -0.0207 -0.0501 -0.4377
    3TTP     C337118   0.517  10.518   1.168  0.1014 -0.1147 -0.4811
    3TTP     C437119   0.643  10.626   1.361  0.3160 -0.2284 -0.5569
    3TTP    C1737120   0.602  10.499   1.390  0.4780 -0.3007 -0.6388
    3TTP    C1837121   0.531  10.439   1.281  0.3559 -0.2360 -0.5954
    3TTP    C3237122   0.464  10.550   0.941 -0.3645 -0.3262  0.1705
    3TTP    C3337123   0.491  10.491   0.806  0.2728  0.5089  0.6464
    3TTP    C3437124   0.605  10.382   0.788  1.1297  0.6557 -2.0955
    3TTP    C3537125   0.741  10.436   0.807 -0.9015  0.3391  0.9851
    3TTP    C3637126   0.851  10.335   0.794  1.0685  0.3680 -0.0888
    3TTP    C3737127   0.932  10.348   0.668 -0.0341 -1.7325  1.9109
    3TTP    C3837128   1.024  10.238   0.619  1.1211  0.2079 -0.0312
    3TTP    C3937129   1.088  10.306   0.515 -0.2379 -0.8347  0.5724
    3TTP    C4037130   1.054  10.268   0.368 -0.7007 -1.5459  1.2488
    3TTP    C4137131   1.026  10.139   0.295  0.4565  0.5088  0.4762
    3TTP    C4237132   1.109  10.022   0.338 -0.8972 -0.9490 -0.3508
    4FIC     F137133   1.171   9.829   2.587  0.2065 -0.2699 -0.1749
    4FIC     F237134   1.383   9.939   2.717 -0.0351 -0.0970  0.0771
    4FIC     O137135   1.006  10.248   2.286  0.0146 -0.2995 -0.1113
    4FIC     N537136   1.571  10.396   2.688 -0.5192  0.1309  0.4846
    4FIC     N637137   1.400  10.701   2.427 -0.6203  0.0730  0.4835
    4FIC    C1937138   1.150  10.502   2.303 -0.2844 -0.1448  0.1519
    4FIC    C2037139   1.184  10.392   2.373 -0.2266 -0.1440  0.1262
    4FIC    C2137140   1.105  10.265   2.359 -0.0720 -0.2260 -0.0119
    4FIC    C2237141   1.167  10.167   2.449 -0.0446 -0.2024 -0.0050
    4FIC    C2337142   1.129  10.034   2.471  0.0834 -0.2573 -0.1081
    4FIC    C2437143   1.203   9.960   2.561  0.0835 -0.2198 -0.0776
    4FIC    C2537144   1.313  10.017   2.628 -0.0412 -0.1305  0.0523
    4FIC    C2637145   1.352  10.149   2.607 -0.1692 -0.0756  0.1557
    4FIC    C2737146   1.277  10.226   2.516 -0.1714 -0.1125  0.1268
    4FIC    C2837147   1.292  10.367   2.472 -0.2882 -0.0730  0.2124
    4FIC    C2937148   1.387  10.456   2.514 -0.4268  0.0134  0.3462
    4FIC    C3037149   1.488  10.423   2.610 -0.4771  0.0775  0.4218
    4FIC    C3137150   1.393  10.590   2.466 -0.5325  0.0455  0.4210
    5FIC     F137151   0.126   9.559   1.084  0.4214 -0.2089 -0.5868
    5FIC     F237152   0.043   9.596   0.828 -0.7906  0.3798 -0.1278
    5FIC     O137153   0.342  10.043   1.193  1.2864 -0.5853 -0.6159
    5FIC     N537154   0.079   9.994   0.536 -1.9166  0.9582  0.5112
    5FIC     N637155   0.265  10.365   0.673 -0.9964  0.5455  0.3960
    5FIC    C1937156   0.340  10.250   0.987  0.4357 -0.1563 -0.1878
    5FIC    C2037157   0.289  10.127   0.969  0.2654 -0.0846 -0.1984
    5FIC    C2137158   0.294  10.026   1.080  0.7296 -0.3178 -0.4250
    5FIC    C2237159   0.230   9.903   1.028  0.3926 -0.1657 -0.3749
    5FIC    C2337160   0.211   9.783   1.095  0.6283 -0.2897 -0.5305
    5FIC    C2437161   0.148   9.681   1.025  0.2194 -0.1008 -0.4425
    5FIC    C2537162   0.105   9.700   0.893 -0.4048  0.2024 -0.2060
    5FIC    C2637163   0.124   9.820   0.826 -0.6430  0.3281 -0.0497
    5FIC    C2737164   0.188   9.925   0.895 -0.2362  0.1404 -0.1356
    5FIC    C2837165   0.222  10.063   0.853 -0.3392  0.2019 -0.0177
    5FIC    C2937166   0.197  10.120   0.731 -0.8898  0.4728  0.2145
    5FIC    C3037167   0.132  10.051   0.624 -1.4524  0.7389  0.3768
    5FIC    C3137168   0.235  10.255   0.700 -0.9452  0.5109  0.3130
    1BTD     S237169   8.621  10.494   9.889  0.5487 -0.0017 -0.1084
    1BTD     N137170   8.766  10.515   9.993  0.2306  0.4199  0.2587
    1BTD     N237171   8.680  10.606   9.760  0.8416 -0.3486 -0.2811
    1BTD     N337172   9.060  10.871   9.687  0.8647 -0.2947  0.0303
    1BTD     N437173   9.167  10.758   9.974  0.1113  0.6521  0.6950
    1BTD     C537174   8.974  10.643   9.979  0.1774  0.5298  0.4785
    1BTD     C637175   8.847  10.599   9.930  0.3529  0.2873  0.2351
    1BTD     C737176   8.798  10.650   9.800  0.6950 -0.1431 -0.0672
    1BTD     C837177   8.880  10.743   9.726  0.8447 -0.3090 -0.1106
    1BTD    C1537178   9.004  10.783   9.778  0.6636 -0.0600  0.1343
    1BTD    C1637179   9.051  10.734   9.903  0.3338  0.3543  0.4259
    1BTD    C4337180   9.267  10.873   9.968 -0.9394  1.9308  0.0889
    1BTD    C4437181   9.274  10.985  10.060  0.0274 -0.8099  1.1971
    1BTD    C4537182   9.401  11.015  10.139  1.7165  0.5681  1.9393
    1BTD    C4637183   9.500  11.096  10.055 -0.6448  1.9101 -0.6333
    1BTD    C4737184   9.162  11.089  10.056  0.5006 -0.9599  0.0569
    1BTD    C4837185   9.106  11.154  10.189  0.8641  0.4003  0.6405
    1BTD    C4937186   9.111  11.312  10.170  0.2793  2.1087 -0.1605
    1BTD    C5037187   8.999  11.411  10.143 -0.7072  0.1643  0.3369
    1BTD    C7537188   9.204  10.871   9.642  0.7575  0.0271  0.7545
    1BTD    C7637189   9.279  10.989   9.571  0.1233  0.9059  1.8400
    1BTD    C7737190   9.387  10.933   9.471 -1.2990 -0.3000  0.6376
    1BTD    C7837191   9.413  11.012   9.348 -0.5245 -0.8433 -0.3387
    1BTD    C7937192   9.331  11.117   9.633  1.4772 -0.5135 -0.4467
    1BTD    C8037193   9.252  11.249   9.655 -1.4351  0.1412  0.4181
    1BTD    C8137194   9.340  11.373   9.682  0.3232 -0.0154 -0.9135
    1BTD    C8237195   9.254  11.497   9.654  0.3017 -0.4922  0.8241
    2TTP     S137196   9.055  10.477  10.223  0.0984  0.4431  0.6048
    2TTP     S537197   9.446  10.656  10.206  0.3607 -0.2234 -0.6952
    2TTP     C137198   9.448  10.524  10.331  0.5698 -0.2692 -0.7470
    2TTP     C237199   9.328  10.461  10.344  0.5009 -0.0663 -0.3483
    2TTP     C337200   9.229  10.514  10.255  0.2811  0.1328  0.0119
    2TTP     C437201   9.053  10.609  10.098 -0.1106  0.4890  0.6566
    2TTP    C1737202   9.174  10.672  10.085 -0.0421  0.2861  0.2579
    2TTP    C1837203   9.272  10.618  10.174  0.1781  0.0868 -0.1025
    2TTP    C3237204   9.311  10.358  10.452  0.2852  0.3620 -0.3880
    2TTP    C3337205   9.222  10.419  10.557  0.4180 -0.7432  0.0185
    2TTP    C3437206   9.264  10.394  10.699  0.9389 -0.0105  0.6681
    2TTP    C3537207   9.155  10.440  10.789  0.8119 -0.4110 -0.0358
    2TTP    C3637208   9.183  10.470  10.935  0.6406  0.2071  0.2319
    2TTP    C3737209   9.205  10.376  11.049 -0.6648 -0.4270  0.6862
    2TTP    C3837210   9.116  10.244  11.054  1.4685  0.6917 -1.0289
    2TTP    C3937211   9.155  10.177  11.182  0.0369  0.4405 -0.2026
    2TTP    C4037212   9.060  10.125  11.297 -0.3208 -0.2799 -0.9737
    2TTP    C4137213   9.089  10.203  11.429  0.5453  1.1587  1.2413
    2TTP    C4237214   9.010  10.157  11.550 -1.2134  0.7045 -0.3959
    3TTP     S137215   8.745  10.804   9.464  0.2073 -0.0500 -0.2550
    3TTP     S537216   9.042  11.106   9.386  0.3500 -0.0014  0.4666
    3TTP     C137217   8.915  11.114   9.256  0.4032  0.3077  0.4332
    3TTP     C237218   8.816  11.022   9.272  0.3624  0.3111  0.2084
    3TTP     C337219   8.837  10.941   9.388  0.2875  0.0691  0.0546
    3TTP     C437220   8.872  10.796   9.594  0.1540 -0.3593 -0.2215
    3TTP    C1737221   8.971  10.889   9.578  0.1952 -0.3627  0.0030
    3TTP    C1837222   8.951  10.970   9.462  0.2701 -0.1211  0.1569
    3TTP    C3237223   8.693  10.980   9.178 -1.2601  0.8701 -0.5240
    3TTP    C3337224   8.622  11.091   9.103  0.1840 -0.0548 -0.7238
    3TTP    C3437225   8.542  11.193   9.210  0.5404 -0.1281  1.0185
    3TTP    C3537226   8.398  11.135   9.222  0.2089 -0.8999 -0.0412
    3TTP    C3637227   8.375  11.053   9.338 -0.4963  0.9143  0.7030
    3TTP    C3737228   8.233  11.091   9.410  0.1106 -0.6562 -0.1443
    3TTP    C3837229   8.122  11.002   9.357 -0.4139  0.8150 -0.7321
    3TTP    C3937230   8.052  11.082   9.252 -0.3588 -0.4342 -0.3862
    3TTP    C4037231   7.916  11.096   9.303  0.0009  0.4949 -0.6926
    3TTP    C4137232   7.816  11.068   9.187 -1.0682  0.3528 -0.6742
    3TTP    C4237233   7.681  11.133   9.232 -0.0617  0.2594 -0.5526
    4FIC     F137234  10.153  10.919  10.490 -0.4079  0.4113  0.6304
    4FIC     F237235  10.242  10.699  10.621  0.2913 -0.1464 -0.7372
    4FIC     O137236   9.652  10.763  10.354 -0.6707  0.4950  1.4887
    4FIC     N537237  10.013  10.269  10.714  1.1096 -0.8881 -2.0914
    4FIC     N637238   9.604  10.192  10.581  0.7632 -0.7105 -1.1451
    4FIC    C1937239   9.560  10.496  10.431 -0.0960 -0.0081  0.4869
    4FIC    C2037240   9.682  10.544  10.460 -0.0570 -0.0072  0.3247
    4FIC    C2137241   9.723  10.683  10.417 -0.3653  0.2596  0.8683
    4FIC    C2237242   9.861  10.703  10.465 -0.2322  0.1862  0.5186
    4FIC    C2337243   9.941  10.816  10.448 -0.4208  0.3645  0.8106
    4FIC    C2437244  10.068  10.811  10.502 -0.2375  0.2470  0.3759
    4FIC    C2537245  10.114  10.697  10.570  0.1225 -0.0405 -0.3286
    4FIC    C2637246  10.035  10.584  10.587  0.3121 -0.2196 -0.6235
    4FIC    C2737247   9.905  10.587  10.533  0.1316 -0.1040 -0.1915
    4FIC    C2837248   9.797  10.485  10.533  0.2537 -0.2344 -0.3386
    4FIC    C2937249   9.803  10.360  10.589  0.5901 -0.5128 -0.9694
    4FIC    C3037250   9.919  10.311  10.658  0.8743 -0.7181 -1.5838
    4FIC    C3137251   9.694  10.268  10.584  0.6831 -0.6201 -1.0624
    5FIC     F137252   9.382  11.775   9.096  0.1717  0.1197 -0.1915
    5FIC     F237253   9.272  11.785   8.848  0.0329  0.2528 -0.1242
    5FIC     O137254   9.118  11.352   9.308  0.0012  0.2560 -0.1330
    5FIC     N537255   8.925  11.499   8.642 -0.2880  0.5413  0.0148
    5FIC     N637256   8.741  11.167   8.857 -0.3932  0.6210  0.0470
    5FIC    C1937257   8.919  11.212   9.146 -0.1921  0.4316 -0.0477
    5FIC    C2037258   8.990  11.318   9.103 -0.1435  0.3921 -0.0651
    5FIC    C2137259   9.090  11.385   9.192 -0.0446  0.3017 -0.1090
    5FIC    C2237260   9.149  11.495   9.114 -0.0131  0.2786 -0.1180
    5FIC    C2337261   9.246  11.586   9.154  0.0734  0.2013 -0.1550
    5FIC    C2437262   9.286  11.682   9.063  0.0870  0.1944 -0.1559
    5FIC    C2537263   9.229  11.687   8.935  0.0160  0.2631 -0.1215
    5FIC    C2637264   9.131  11.597   8.894 -0.0713  0.3404 -0.0844
    5FIC    C2737265   9.090  11.499   8.985 -0.0863  0.3486 -0.0825
    5FIC    C2837266   8.990  11.390   8.973 -0.1690  0.4210 -0.0486
    5FIC    C2937267   8.913  11.362   8.863 -0.2534  0.4999 -0.0095
    5FIC    C3037268   8.920  11.437   8.742 -0.2720  0.5224  0.0036
    5FIC    C3137269   8.818  11.255   8.861 -0.3297  0.5661  0.0215
    1BTD     S237270   3.004   8.235   4.494  0.2605 -0.1824 -0.5750
    1BTD     N137271   3.081   8.292   4.646  0.2444 -0.2732 -0.5327
    1BTD     N237272   3.018   8.393   4.410  0.1171 -0.0861 -0.4182
    1BTD     N337273   3.187   8.819   4.514 -0.2041 -0.0532 -0.0226
    1BTD     N437274   3.265   8.694   4.804 -0.0471 -0.2840 -0.1637
    1BTD     C537275   3.176   8.503   4.725  0.0903 -0.2761 -0.3382
    1BTD     C637276   3.112   8.419   4.627  0.1385 -0.2294 -0.4103
    1BTD     C737277   3.077   8.476   4.495  0.0673 -0.1240 -0.3463
    1BTD     C837278   3.107   8.614   4.468 -0.0486 -0.0715 -0.2134
    1BTD    C1537279   3.170   8.692   4.566 -0.0923 -0.1206 -0.1467
    1BTD    C1637280   3.204   8.637   4.694 -0.0235 -0.2212 -0.2085
    1BTD    C4337281   3.271   8.830   4.840  1.0145 -0.0082  0.5740
    1BTD    C4437282   3.293   8.918   4.961 -0.2970  0.9977 -0.6767
    1BTD    C4537283   3.341   9.057   4.902 -0.8993  1.2950 -0.7427
    1BTD    C4637284   3.493   9.062   4.909 -0.4892 -0.0969 -0.8289
    1BTD    C4737285   3.193   8.905   5.069  1.8106 -0.0074 -0.7971
    1BTD    C4837286   3.243   8.942   5.209 -0.0344 -0.1401  0.3534
    1BTD    C4937287   3.304   8.840   5.308 -0.1115  0.6777 -0.3844
    1BTD    C5037288   3.303   8.877   5.451  0.2651  1.4931 -0.2434
    1BTD    C7537289   3.302   8.915   4.534 -0.3418 -0.9192 -0.3178
    1BTD    C7637290   3.447   8.921   4.486 -0.8943  0.0595 -0.7237
    1BTD    C7737291   3.539   9.046   4.526 -1.3253 -0.1326 -0.3444
    1BTD    C7837292   3.488   9.187   4.493 -1.1918 -0.2147 -0.7628
    1BTD    C7937293   3.514   8.792   4.544  0.1383  1.2901 -0.0402
    1BTD    C8037294   3.498   8.661   4.461  0.5454 -0.0573  0.1321
    1BTD    C8137295   3.531   8.677   4.320 -0.9896 -0.8519  0.4302
    1BTD    C8237296   3.578   8.544   4.244  0.4463  0.4335  0.0535
    2TTP     S137297   3.275   8.342   4.949  0.1132 -0.1604  0.3005
    2TTP     S537298   3.491   8.684   5.095  0.4584 -0.1140 -0.3123
    2TTP     C137299   3.558   8.535   5.175  0.8265 -0.1159 -0.6189
    2TTP     C237300   3.495   8.420   5.135  0.7417 -0.1304 -0.4478
    2TTP     C337301   3.392   8.446   5.039  0.3828 -0.1404 -0.0684
    2TTP     C437302   3.208   8.491   4.869 -0.2550 -0.1585  0.6069
    2TTP    C1737303   3.271   8.605   4.910 -0.1701 -0.1438  0.4358
    2TTP    C1837304   3.374   8.579   5.005  0.1888 -0.1340  0.0565
    2TTP    C3237305   3.482   8.287   5.186 -0.0961  0.5565 -0.3788
    2TTP    C3337306   3.376   8.214   5.266  0.9515 -0.8565 -0.5118
    2TTP    C3437307   3.387   8.206   5.426  0.3374  1.2957  0.2386
    2TTP    C3537308   3.260   8.130   5.498  0.1963 -0.4025  1.2529
    2TTP    C3637309   3.227   8.191   5.631  0.5770 -0.9004  1.6911
    2TTP    C3737310   3.232   8.351   5.644 -0.4830  1.8283  0.2593
    2TTP    C3837311   3.122   8.395   5.580  2.5046 -0.7986  0.8915
    2TTP    C3937312   3.103   8.552   5.571 -0.5786  0.7405 -0.8165
    2TTP    C4037313   3.072   8.607   5.428  0.3725 -0.3500  0.3465
    2TTP    C4137314   2.947   8.556   5.361 -1.1762 -0.6757  0.1641
    2TTP    C4237315   2.929   8.632   5.228 -1.1996 -0.3568  0.2347
    3TTP     S137316   2.984   8.701   4.197 -0.0222 -0.2024 -0.3944
    3TTP     S537317   3.159   9.090   4.246 -0.2652 -0.1309 -0.0914
    3TTP     C137318   3.073   9.085   4.086  0.0383 -0.1760 -0.2554
    3TTP     C237319   3.014   8.965   4.061  0.1311 -0.2010 -0.3586
    3TTP     C337320   3.035   8.872   4.168 -0.0340 -0.1853 -0.3120
    3TTP     C437321   3.071   8.705   4.357 -0.3256 -0.1571 -0.2303
    3TTP    C1737322   3.130   8.826   4.381 -0.4186 -0.1325 -0.1272
    3TTP    C1837323   3.109   8.919   4.275 -0.2534 -0.1481 -0.1738
    3TTP    C3237324   2.926   8.931   3.937 -1.1562  0.1821 -1.0818
    3TTP    C3337325   2.925   8.774   3.889  1.1735  0.7259  1.2047
    3TTP    C3437326   2.874   8.790   3.751 -0.1797 -0.3379 -0.5619
    3TTP    C3537327   2.856   8.664   3.669  0.2378  1.3507  1.0748
    3TTP    C3637328   2.953   8.539   3.632 -1.3195 -0.8556  0.2050
    3TTP    C3737329   3.041   8.548   3.506  1.5025 -0.8059 -0.2485
    3TTP    C3837330   2.951   8.567   3.384 -0.7443 -0.5268  1.4080
    3TTP    C3937331   3.032   8.657   3.278 -0.9629  0.4977  0.4493
    3TTP    C4037332   3.006   8.811   3.291  0.9513  1.1102  0.9778
    3TTP    C4137333   3.119   8.894   3.234 -0.6539 -0.7526  1.9156
    3TTP    C4237334   3.108   8.899   3.080  1.7623 -1.4328  0.9802
    4FIC     F137335   4.237   8.993   5.230  0.2128  0.2158  0.0784
    4FIC     F237336   4.327   8.824   5.424  0.3581 -0.0808 -0.2466
    4FIC     O137337   3.753   8.775   5.121  0.3846  0.0288 -0.3139
    4FIC     N537338   4.112   8.426   5.624  0.6894 -0.6411 -0.9941
    4FIC     N637339   3.715   8.290   5.500  0.7944 -0.7277 -1.2350
    4FIC    C1937340   3.667   8.537   5.267  0.5843 -0.3213 -0.7638
    4FIC    C2037341   3.786   8.598   5.287  0.5355 -0.2627 -0.6524
    4FIC    C2137342   3.823   8.720   5.208  0.4329 -0.0808 -0.4215
    4FIC    C2237343   3.957   8.761   5.255  0.4019 -0.0598 -0.3498
    4FIC    C2337344   4.032   8.869   5.210  0.3122  0.0868 -0.1477
    4FIC    C2437345   4.157   8.888   5.269  0.2995  0.0759 -0.1176
    4FIC    C2537346   4.203   8.801   5.369  0.3745 -0.0773 -0.2853
    4FIC    C2637347   4.128   8.693   5.413  0.4642 -0.2239 -0.4876
    4FIC    C2737348   4.002   8.672   5.355  0.4782 -0.2155 -0.5211
    4FIC    C2837349   3.898   8.568   5.379  0.5634 -0.3462 -0.7138
    4FIC    C2937350   3.906   8.465   5.469  0.6513 -0.5128 -0.9111
    4FIC    C3037351   4.019   8.444   5.554  0.6720 -0.5827 -0.9558
    4FIC    C3137352   3.801   8.369   5.486  0.7295 -0.6299 -1.0883
    5FIC     F137353   3.264   9.884   4.147 -0.1070  0.1063 -0.2515
    5FIC     F237354   3.171   9.920   3.894  0.3305  0.0253 -0.4262
    5FIC     O137355   3.185   9.353   4.213 -0.3273  0.1483 -0.1765
    5FIC     N537356   2.980   9.592   3.577  0.8023 -0.0613 -0.6238
    5FIC     N637357   2.936   9.169   3.679  0.5421 -0.0124 -0.5298
    5FIC    C1937358   3.067   9.198   3.994  0.0125  0.0857 -0.3166
    5FIC    C2037359   3.091   9.330   3.987  0.0507  0.0782 -0.3287
    5FIC    C2137360   3.152   9.403   4.104 -0.1324  0.1121 -0.2534
    5FIC    C2237361   3.164   9.544   4.064 -0.0347  0.0937 -0.2891
    5FIC    C2337362   3.214   9.650   4.138 -0.1402  0.1130 -0.2441
    5FIC    C2437363   3.216   9.775   4.079 -0.0133  0.0891 -0.2920
    5FIC    C2537364   3.167   9.793   3.948  0.2121  0.0473 -0.3819
    5FIC    C2637365   3.117   9.688   3.873  0.3184  0.0281 -0.4271
    5FIC    C2737366   3.115   9.560   3.932  0.1926  0.0517 -0.3799
    5FIC    C2837367   3.068   9.430   3.880  0.2541  0.0408 -0.4078
    5FIC    C2937368   3.014   9.405   3.756  0.4602  0.0024 -0.4911
    5FIC    C3037369   2.995   9.508   3.658  0.6476 -0.0324 -0.5637
    5FIC    C3137370   2.971   9.276   3.714  0.5040 -0.0055 -0.5119
    1BTD     S237371   0.825   2.306   9.420 -0.0786  0.2727  0.0672
    1BTD     N137372   0.808   2.273   9.596 -0.0267  0.0542  0.0310
    1BTD     N237373   0.767   2.144   9.369 -0.1740  0.3650 -0.1199
    1BTD     N337374   0.619   1.752   9.581 -0.2746  0.1589 -0.5665
    1BTD     N437375   0.670   1.911   9.861 -0.0930 -0.2240 -0.3805
    1BTD     C537376   0.735   2.082   9.731 -0.0635 -0.0864 -0.1862
    1BTD     C637377   0.763   2.149   9.607 -0.0803  0.0611 -0.1113
    1BTD     C737378   0.740   2.076   9.479 -0.1628  0.2351 -0.1955
    1BTD     C837379   0.691   1.941   9.483 -0.2243  0.2528 -0.3507
    1BTD    C1537380   0.665   1.880   9.607 -0.2051  0.1048 -0.4195
    1BTD    C1637381   0.687   1.950   9.730 -0.1256 -0.0629 -0.3379
    1BTD    C4337382   0.664   1.787   9.937 -1.0678 -0.1001 -0.0792
    1BTD    C4437383   0.795   1.714   9.991 -0.1328 -0.8591 -0.4116
    1BTD    C4537384   0.756   1.614  10.103 -0.9026  0.8877  1.2999
    1BTD    C4637385   0.630   1.522  10.081 -0.2040 -0.0542  1.3722
    1BTD    C4737386   0.893   1.651   9.875  1.0992  0.0309 -0.4243
    1BTD    C4837387   1.019   1.574   9.894 -1.0849 -0.5744 -0.0742
    1BTD    C4937388   1.086   1.559   9.753  0.0045 -0.3827  0.2856
    1BTD    C5037389   1.220   1.491   9.747  1.0685 -1.5633  0.8146
    1BTD    C7537390   0.558   1.642   9.656  0.6384  0.5227 -1.1791
    1BTD    C7637391   0.444   1.627   9.768 -1.2650 -0.7317  0.3336
    1BTD    C7737392   0.320   1.698   9.712 -0.2337  1.2410  1.2767
    1BTD    C7837393   0.233   1.765   9.815  0.2483  0.3408  0.1739
    1BTD    C7937394   0.398   1.486   9.777  0.2888  1.9412 -0.3352
    1BTD    C8037395   0.274   1.422   9.861  0.8036  0.5608 -0.0558
    1BTD    C8137396   0.237   1.273   9.821  1.1868  0.7231  1.4171
    1BTD    C8237397   0.157   1.190   9.899 -0.4091 -0.0719 -0.1174
    2TTP     S137398   0.791   2.263   9.965 -0.6389  0.3616  0.0356
    2TTP     S537399   0.682   1.942  10.230  0.9921 -0.4609 -0.2615
    2TTP     C137400   0.719   2.090  10.329  0.4281 -0.4148 -0.1126
    2TTP     C237401   0.755   2.198  10.254 -0.1088 -0.1581 -0.0119
    2TTP     C337402   0.754   2.168  10.114 -0.0941  0.0115 -0.0489
    2TTP     C437403   0.754   2.116   9.865 -0.0749  0.3155 -0.1130
    2TTP    C1737404   0.718   2.008   9.941  0.4620  0.0588 -0.2138
    2TTP    C1837405   0.718   2.038  10.081  0.4473 -0.1107 -0.1769
    2TTP    C3237406   0.798   2.338  10.305 -0.1189 -0.5495  0.4189
    2TTP    C3337407   0.932   2.307  10.391 -0.4195  1.5643  0.1472
    2TTP    C3437408   0.996   2.436  10.392 -1.1951  0.4539 -0.5868
    2TTP    C3537409   1.151   2.462  10.404 -0.7113 -0.4151  0.6250
    2TTP    C3637410   1.228   2.481  10.547  1.2475  1.7283  0.3094
    2TTP    C3737411   1.204   2.577  10.646 -0.3075  0.1855 -0.8567
    2TTP    C3837412   1.064   2.582  10.705 -0.4896 -0.8023 -0.6461
    2TTP    C3937413   1.025   2.615  10.843  0.0597 -1.1563 -0.5027
    2TTP    C4037414   1.039   2.486  10.922 -0.6355  1.3559  0.7262
    2TTP    C4137415   1.170   2.466  10.997 -0.3448  0.8204  0.3905
    2TTP    C4237416   1.152   2.355  11.108  0.8006 -0.5548 -0.0020
    3TTP     S137417   0.684   1.825   9.214 -0.3592  0.2503 -0.0840
    3TTP     S537418   0.573   1.443   9.378  0.2267  0.2641  0.3512
    3TTP     C137419   0.612   1.421   9.202 -0.5900  0.2840  0.1586
    3TTP     C237420   0.649   1.538   9.141 -0.8191  0.2809  0.0131
    3TTP     C337421   0.647   1.649   9.231 -0.3578  0.2627  0.0482
    3TTP     C437422   0.645   1.847   9.390  0.4575  0.2305  0.1085
    3TTP    C1737423   0.608   1.730   9.451  0.6866  0.2335  0.2543
    3TTP    C1837424   0.610   1.620   9.361  0.2253  0.2517  0.2191
    3TTP    C3237425   0.669   1.551   8.995  0.0679 -0.3959  1.0253
    3TTP    C3337426   0.596   1.661   8.914  0.5413  1.0426 -0.2968
    3TTP    C3437427   0.445   1.689   8.939  1.4931 -0.6981 -0.7241
    3TTP    C3537428   0.393   1.773   8.809 -0.4716  0.6059 -0.0627
    3TTP    C3637429   0.240   1.769   8.775 -0.1647  0.4368 -0.4254
    3TTP    C3737430   0.204   1.623   8.775 -0.6783  0.6349  1.0213
    3TTP    C3837431   0.055   1.604   8.735  1.6367 -0.9922  1.4511
    3TTP    C3937432   0.000   1.473   8.799  0.5216 -0.9307  0.1362
    3TTP    C4037433  -0.029   1.356   8.717  0.0957  1.1044  0.3446
    3TTP    C4137434   0.101   1.285   8.655 -0.5287 -0.0096  0.6172
    3TTP    C4237435   0.071   1.196   8.529  0.0681 -0.4518  1.6656
    4FIC     F137436   0.474   1.614  10.954  0.2849 -0.1381  0.0300
    4FIC     F237437   0.455   1.836  11.110  0.1373 -0.0467 -0.1171
    4FIC     O137438   0.647   1.829  10.488  0.2629 -0.3473 -0.0751
    4FIC     N537439   0.553   2.309  11.002 -0.0905 -0.0645 -0.4034
    4FIC     N637440   0.692   2.433  10.607 -0.0779 -0.2463 -0.4561
    4FIC    C1937441   0.691   2.118  10.472  0.1141 -0.3342 -0.2530
    4FIC    C2037442   0.648   2.055  10.583  0.1254 -0.2852 -0.2205
    4FIC    C2137443   0.628   1.907  10.584  0.2036 -0.2956 -0.1283
    4FIC    C2237444   0.581   1.871  10.719  0.1956 -0.2328 -0.1149
    4FIC    C2337445   0.549   1.745  10.768  0.2527 -0.2186 -0.0398
    4FIC    C2437446   0.507   1.736  10.899  0.2314 -0.1556 -0.0421
    4FIC    C2537447   0.498   1.851  10.980  0.1553 -0.1085 -0.1181
    4FIC    C2637448   0.530   1.977  10.932  0.0981 -0.1225 -0.1934
    4FIC    C2737449   0.572   1.988  10.799  0.1186 -0.1861 -0.1922
    4FIC    C2837450   0.613   2.106  10.718  0.0724 -0.2164 -0.2601
    4FIC    C2937451   0.617   2.236  10.761 -0.0048 -0.1863 -0.3436
    4FIC    C3037452   0.582   2.276  10.894 -0.0517 -0.1194 -0.3762
    4FIC    C3137453   0.658   2.344  10.676 -0.0445 -0.2195 -0.4048
    5FIC     F137454   0.274   0.689   9.332 -0.0917  0.0841 -0.4208
    5FIC     F237455   0.305   0.633   9.067 -0.1835  0.2749 -0.4728
    5FIC     O137456   0.491   1.184   9.358  0.2784 -0.0960 -0.0613
    5FIC     N537457   0.504   0.906   8.706 -0.0517  0.4209 -0.2909
    5FIC     N637458   0.667   1.304   8.779  0.2561  0.2418  0.0005
    5FIC    C1937459   0.597   1.307   9.115  0.3222  0.0224  0.0167
    5FIC    C2037460   0.542   1.184   9.118  0.2327  0.0602 -0.0718
    5FIC    C2137461   0.489   1.128   9.247  0.2159 -0.0054 -0.1068
    5FIC    C2237462   0.435   0.994   9.216  0.1113  0.0591 -0.2050
    5FIC    C2337463   0.376   0.904   9.304  0.0614  0.0317 -0.2668
    5FIC    C2437464   0.333   0.783   9.251 -0.0378  0.1059 -0.3566
    5FIC    C2537465   0.349   0.754   9.114 -0.0849  0.2042 -0.3829
    5FIC    C2637466   0.408   0.844   9.026 -0.0356  0.2320 -0.3219
    5FIC    C2737467   0.452   0.967   9.078  0.0648  0.1579 -0.2306
    5FIC    C2837468   0.518   1.083   9.013  0.1376  0.1625 -0.1497
    5FIC    C2937469   0.551   1.093   8.880  0.1201  0.2457 -0.1478
    5FIC    C3037470   0.525   0.990   8.784  0.0257  0.3417 -0.2265
    5FIC    C3137471   0.615   1.209   8.825  0.1950  0.2430 -0.0660
    1BTD     S237472   9.759   8.663   8.246  0.4135 -0.1377  0.1946
    1BTD     N137473   9.815   8.500   8.194  0.5968 -0.0978  0.2642
    1BTD     N237474   9.805   8.640   8.418  0.0145 -0.1860  0.2983
    1BTD     N337475  10.002   8.300   8.675 -0.4675 -0.2120  0.6351
    1BTD     N437476  10.014   8.127   8.399  0.2499 -0.1030  0.5932
    1BTD     C537477   9.919   8.307   8.304  0.4070 -0.1016  0.4365
    1BTD     C637478   9.863   8.440   8.302  0.3631 -0.1214  0.3562
    1BTD     C737479   9.858   8.519   8.427  0.0372 -0.1707  0.3755
    1BTD     C837480   9.908   8.461   8.549 -0.2286 -0.1981  0.4735
    1BTD    C1537481   9.962   8.330   8.546 -0.1740 -0.1780  0.5498
    1BTD    C1637482   9.967   8.255   8.426  0.1396 -0.1299  0.5314
    1BTD    C4337483   9.979   8.009   8.477  0.7485 -0.9535  0.4194
    1BTD    C4437484  10.002   7.863   8.445  1.7641 -0.6284  0.4485
    1BTD    C4537485  10.081   7.796   8.560 -0.8595 -0.7902 -0.4375
    1BTD    C4637486  10.160   7.692   8.491 -0.1975  0.1012 -0.3598
    1BTD    C4737487   9.905   7.764   8.358 -0.5544 -0.5301 -0.3502
    1BTD    C4837488   9.822   7.828   8.243 -0.1067  1.0089 -0.1246
    1BTD    C4937489   9.783   7.711   8.158 -0.0909  1.1841  0.1678
    1BTD    C5037490   9.804   7.703   8.008 -0.3857  0.8959 -1.1818
    1BTD    C7537491  10.066   8.185   8.720  0.0545  0.1889 -0.2136
    1BTD    C7637492  10.175   8.172   8.836 -0.6611  0.0244  0.6953
    1BTD    C7737493  10.193   8.024   8.861  0.6822  0.6100  0.0274
    1BTD    C7837494  10.097   7.930   8.939 -0.4333  0.1944 -0.3611
    1BTD    C7937495  10.315   8.219   8.794 -0.4204  1.0969 -1.1568
    1BTD    C8037496  10.349   8.370   8.754 -0.7175  1.5794 -0.3206
    1BTD    C8137497  10.495   8.411   8.741  0.2246 -0.0237  0.7774
    1BTD    C8237498  10.469   8.570   8.734  1.4169  1.2904  0.2994
    2TTP     S137499  10.001   8.243   8.029  0.7729  0.4498 -0.2594
    2TTP     S537500  10.194   7.886   8.172  0.7138  0.4468 -0.1869
    2TTP     C137501  10.225   7.900   7.993  0.7092  0.4009 -0.1914
    2TTP     C237502  10.167   8.012   7.939  0.7274  0.3994 -0.2140
    2TTP     C337503  10.096   8.089   8.036  0.7453  0.4339 -0.2286
    2TTP     C437504   9.971   8.228   8.208  0.7775  0.4957 -0.2546
    2TTP    C1737505  10.029   8.117   8.263  0.7597  0.4972 -0.2319
    2TTP    C1837506  10.099   8.039   8.165  0.7415  0.4625 -0.2172
    2TTP    C3237507  10.171   8.073   7.799  0.5959 -0.7943  0.3325
    2TTP    C3337508  10.037   8.093   7.729  0.1794  0.1342  1.0010
    2TTP    C3437509  10.048   8.138   7.578 -0.5978 -1.0316  1.1706
    2TTP    C3537510  10.100   8.045   7.478 -0.3010 -0.7885  0.0465
    2TTP    C3637511  10.115   8.113   7.338 -0.0157 -1.0831 -0.9076
    2TTP    C3737512  10.025   8.061   7.236 -0.2375  0.2223  0.3507
    2TTP    C3837513   9.880   8.105   7.247  0.7378  0.9991  0.4189
    2TTP    C3937514   9.846   8.243   7.161  0.2560  0.4329 -0.1188
    2TTP    C4037515   9.885   8.258   7.005  0.1398 -0.6067  0.8959
    2TTP    C4137516   9.843   8.403   6.959  0.7872  0.3781 -0.4474
    2TTP    C4237517   9.730   8.368   6.866 -1.3730 -0.6684  0.8173
    3TTP     S137518   9.836   8.640   8.780  0.0754  0.0958  0.3952
    3TTP     S537519   9.940   8.315   9.041  0.3896  0.0479  0.2115
    3TTP     C137520   9.856   8.443   9.139  0.1792 -0.1287  0.2667
    3TTP     C237521   9.819   8.551   9.064  0.0696 -0.1245  0.3266
    3TTP     C337522   9.855   8.536   8.927  0.1483  0.0188  0.3312
    3TTP     C437523   9.919   8.511   8.682  0.2861  0.2725  0.3397
    3TTP    C1737524   9.956   8.403   8.757  0.3956  0.2683  0.2799
    3TTP    C1837525   9.920   8.418   8.894  0.3171  0.1252  0.2754
    3TTP    C3237526   9.732   8.676   9.089 -0.1789  0.0732  0.8429
    3TTP    C3337527   9.575   8.682   9.057 -0.2409 -1.3774  0.5438
    3TTP    C3437528   9.466   8.595   9.109  0.5357 -0.3427 -1.3383
    3TTP    C3537529   9.328   8.661   9.149 -0.3492  1.0657 -0.1165
    3TTP    C3637530   9.216   8.568   9.129 -0.0700  0.2065 -0.1295
    3TTP    C3737531   9.142   8.587   8.989 -0.5339  0.2088 -1.0972
    3TTP    C3837532   9.188   8.490   8.895  0.6039  0.1039  0.2832
    3TTP    C3937533   9.131   8.529   8.753  0.0797 -0.3082 -0.1626
    3TTP    C4037534   9.157   8.445   8.634 -0.5708  0.9402  0.7687
    3TTP    C4137535   9.273   8.509   8.557  0.7907 -1.0035  0.4387
    3TTP    C4237536   9.295   8.468   8.419 -0.7885  0.3666  0.6331
    4FIC     F137537  10.878   7.433   8.155 -0.4566 -0.0767  0.3083
    4FIC     F237538  10.875   7.348   7.896  0.2124  0.5122  0.1010
    4FIC     O137539  10.462   7.779   8.154 -0.6526 -0.3121  0.1056
    4FIC     N537540  10.574   7.473   7.524  1.0338  1.1911 -0.3417
    4FIC     N637541  10.249   7.761   7.575  0.7460  0.8883 -0.4582
    4FIC    C1937542  10.311   7.821   7.906 -0.0834  0.1670 -0.1647
    4FIC    C2037543  10.416   7.737   7.917 -0.0603  0.2031 -0.1054
    4FIC    C2137544  10.488   7.721   8.048 -0.3641 -0.0540  0.0336
    4FIC    C2237545  10.596   7.623   8.024 -0.2511  0.0619  0.0672
    4FIC    C2337546  10.689   7.576   8.115 -0.4437 -0.0938  0.1855
    4FIC    C2437547  10.782   7.484   8.070 -0.2813  0.0634  0.1940
    4FIC    C2537548  10.780   7.440   7.936  0.0637  0.3668  0.0871
    4FIC    C2637549  10.687   7.487   7.845  0.2570  0.5233 -0.0311
    4FIC    C2737550  10.593   7.580   7.889  0.0968  0.3680 -0.0417
    4FIC    C2837551  10.482   7.649   7.818  0.2282  0.4669 -0.1522
    4FIC    C2937552  10.447   7.633   7.686  0.5538  0.7492 -0.2741
    4FIC    C3037553  10.517   7.545   7.597  0.8168  0.9911 -0.3108
    4FIC    C3137554  10.339   7.703   7.626  0.6576  0.8243 -0.3747
    5FIC     F137555   9.900   7.833   9.685 -0.2859 -0.0931 -0.1640
    5FIC     F237556   9.977   8.016   9.871 -0.6025 -0.1447  0.0210
    5FIC     O137557   9.809   8.153   9.258  0.3560  0.0362 -0.2055
    5FIC     N537558  10.025   8.507   9.833 -0.6001 -0.1271  0.2568
    5FIC     N637559   9.939   8.720   9.461 -0.0350 -0.0157  0.1872
    5FIC    C1937560   9.852   8.441   9.283  0.2817  0.0327 -0.0438
    5FIC    C2037561   9.871   8.354   9.383  0.1323  0.0021 -0.0405
    5FIC    C2137562   9.847   8.207   9.363  0.1826  0.0064 -0.1266
    5FIC    C2237563   9.878   8.141   9.491 -0.0131 -0.0322 -0.0987
    5FIC    C2337564   9.871   8.005   9.520 -0.0443 -0.0424 -0.1543
    5FIC    C2437565   9.905   7.966   9.649 -0.2440 -0.0807 -0.1124
    5FIC    C2537566   9.945   8.060   9.745 -0.4072 -0.1073 -0.0175
    5FIC    C2637567   9.952   8.196   9.716 -0.3774 -0.0970  0.0389
    5FIC    C2737568   9.918   8.237   9.586 -0.1757 -0.0584 -0.0024
    5FIC    C2837569   9.916   8.372   9.524 -0.0930 -0.0386  0.0370
    5FIC    C2937570   9.948   8.491   9.585 -0.2036 -0.0546  0.1280
    5FIC    C3037571   9.990   8.500   9.721 -0.4215 -0.0947  0.1984
    5FIC    C3137572   9.943   8.616   9.516 -0.1099 -0.0331  0.1602
    1BTD     S237573   9.388   5.165   8.932 -0.0658  0.1935 -0.3999
    1BTD     N137574   9.433   5.246   8.778 -0.1721 -0.5265 -0.8206
    1BTD     N237575   9.547   5.083   8.953  0.1872  0.8333  0.2451
    1BTD     N337576   9.953   5.065   8.718  0.5102  0.8366  0.7992
    1BTD     N437577   9.813   5.265   8.502  0.0677 -0.8385 -0.5140
    1BTD     C537578   9.633   5.253   8.636 -0.0415 -0.6692 -0.6444
    1BTD     C637579   9.558   5.210   8.751 -0.0217 -0.2664 -0.4766
    1BTD     C737580   9.622   5.119   8.849  0.1798  0.4946  0.1199
    1BTD     C837581   9.757   5.076   8.827  0.3507  0.8148  0.5183
    1BTD    C1537582   9.827   5.121   8.713  0.3238  0.3996  0.3351
    1BTD    C1637583   9.765   5.209   8.619  0.1300 -0.3335 -0.2400
    1BTD    C4337584   9.928   5.232   8.415  0.2909  0.2818 -0.2139
    1BTD    C4437585   9.884   5.163   8.283 -0.6828  0.4963 -0.8225
    1BTD    C4537586  10.019   5.170   8.204 -0.0845  0.9869  0.0486
    1BTD    C4637587  10.122   5.058   8.196  0.0687  0.9161 -0.7029
    1BTD    C4737588   9.809   5.030   8.257  1.0653  0.3788  0.2980
    1BTD    C4837589   9.751   5.041   8.112  0.3241 -0.2827 -0.9851
    1BTD    C4937590   9.782   4.916   8.042 -0.3559 -0.2261 -0.1826
    1BTD    C5037591   9.728   4.910   7.898 -0.1229 -0.7276  0.6725
    1BTD    C7537592  10.077   5.065   8.628 -0.3364  0.0403 -0.9579
    1BTD    C7637593  10.184   5.179   8.671  0.4482  0.5982  0.6450
    1BTD    C7737594  10.281   5.188   8.550 -0.5114 -0.8355  0.1760
    1BTD    C7837595  10.287   5.323   8.465  0.1855  0.1392  0.9113
    1BTD    C7937596  10.144   5.303   8.744 -0.7246  0.8241 -1.5332
    1BTD    C8037597  10.235   5.387   8.824 -0.5033 -0.6739  0.3985
    1BTD    C8137598  10.207   5.543   8.837 -0.2660  0.9868 -0.0736
    1BTD    C8237599  10.082   5.580   8.918 -0.5221 -0.2743 -0.8953
    2TTP     S137600   9.478   5.475   8.496  0.0737  0.1687  0.2837
    2TTP     S537601   9.824   5.535   8.249 -0.2279  0.3215 -0.1032
    2TTP     C137602   9.702   5.664   8.210 -0.4337  0.1127 -0.1547
    2TTP     C237603   9.588   5.653   8.284 -0.3531  0.0532 -0.0384
    2TTP     C337604   9.593   5.542   8.374 -0.1252  0.1705  0.0961
    2TTP     C437605   9.600   5.345   8.535  0.2797  0.3777  0.3355
    2TTP    C1737606   9.714   5.357   8.461  0.1987  0.4371  0.2193
    2TTP    C1837607   9.709   5.467   8.371 -0.0288  0.3200  0.0846
    2TTP    C3237608   9.467   5.746   8.276 -0.3940 -0.1691  0.4228
    2TTP    C3337609   9.336   5.691   8.210  0.5677 -0.5231  1.5615
    2TTP    C3437610   9.346   5.615   8.068  0.4649  0.3864 -0.4699
    2TTP    C3537611   9.391   5.690   7.942  0.4256  0.6260  0.2555
    2TTP    C3637612   9.335   5.657   7.808 -1.0537  0.6171 -0.7026
    2TTP    C3737613   9.446   5.704   7.725  0.0328 -1.1337 -0.1768
    2TTP    C3837614   9.389   5.746   7.597 -0.2040 -0.3701 -0.1006
    2TTP    C3937615   9.515   5.754   7.505 -0.2926  0.4501 -0.1848
    2TTP    C4037616   9.492   5.837   7.386  0.1078 -0.7001  0.1718
    2TTP    C4137617   9.609   5.866   7.273  1.2663 -0.2068  0.4624
    2TTP    C4237618   9.651   5.728   7.206  1.5258  0.9026  0.6234
    3TTP     S137619   9.868   4.898   9.054 -0.0493  0.2484 -0.3665
    3TTP     S537620  10.234   4.860   8.832  0.4029  1.0062  0.2415
    3TTP     C137621  10.251   4.767   8.987  0.0783  0.4573 -0.0486
    3TTP     C237622  10.138   4.773   9.065 -0.0803  0.1909 -0.2537
    3TTP     C337623  10.035   4.852   9.005  0.0486  0.4109 -0.1888
    3TTP     C437624   9.851   4.991   8.899  0.2754  0.7975 -0.0765
    3TTP    C1737625   9.964   4.985   8.821  0.4341  1.0638  0.1284
    3TTP    C1837626  10.066   4.906   8.881  0.3052  0.8438  0.0637
    3TTP    C3237627  10.125   4.705   9.206 -1.0310  0.2392 -1.4859
    3TTP    C3337628  10.169   4.760   9.348 -0.3546  0.2366  0.0195
    3TTP    C3437629  10.139   4.646   9.457 -0.5067 -0.5536 -0.3648
    3TTP    C3537630  10.264   4.616   9.544 -1.2115 -0.6967 -0.6326
    3TTP    C3637631  10.271   4.504   9.657 -0.4258 -1.8435  0.1492
    3TTP    C3737632  10.176   4.389   9.664 -0.2797  1.4258 -0.9546
    3TTP    C3837633  10.203   4.285   9.552 -0.0684 -0.6360 -0.0885
    3TTP    C3937634  10.156   4.144   9.548 -0.4488 -0.0762  0.6986
    3TTP    C4037635  10.005   4.104   9.585 -1.2022 -1.3163 -0.6178
    3TTP    C4137636   9.937   4.026   9.480  0.2581 -1.1847  0.3496
    3TTP    C4237637  10.020   3.894   9.445  0.8892 -0.8731  1.1999
    4FIC     F137638  10.172   5.720   7.531  0.0279 -0.1041  0.0802
    4FIC     F237639  10.066   5.967   7.488 -0.3231 -0.3151 -0.2843
    4FIC     O137640   9.911   5.574   7.982  0.3083  0.2278  0.3506
    4FIC     N537641   9.728   6.218   7.748 -0.6278 -0.3819 -0.6152
    4FIC     N637642   9.546   6.054   8.109 -0.3381 -0.0799 -0.3304
    4FIC    C1937643   9.717   5.758   8.101  0.0722  0.1441  0.0988
    4FIC    C2037644   9.787   5.785   7.990  0.0157  0.0689  0.0448
    4FIC    C2137645   9.885   5.685   7.934  0.1450  0.1187  0.1825
    4FIC    C2237646   9.943   5.746   7.813  0.0398  0.0130  0.0786
    4FIC    C2337647  10.038   5.691   7.728  0.1016  0.0137  0.1471
    4FIC    C2437648  10.078   5.768   7.619 -0.0233 -0.0980  0.0218
    4FIC    C2537649  10.023   5.895   7.597 -0.2042 -0.2067 -0.1658
    4FIC    C2637650   9.928   5.951   7.682 -0.2668 -0.2080 -0.2348
    4FIC    C2737651   9.887   5.875   7.793 -0.1423 -0.0957 -0.1105
    4FIC    C2837652   9.789   5.904   7.900 -0.1640 -0.0657 -0.1386
    4FIC    C2937653   9.714   6.018   7.914 -0.3211 -0.1470 -0.3031
    4FIC    C3037654   9.722   6.128   7.823 -0.4892 -0.2759 -0.4742
    4FIC    C3137655   9.622   6.037   8.021 -0.3295 -0.1098 -0.3171
    5FIC     F137656  10.856   4.440   8.541 -0.0620  0.1090 -0.0637
    5FIC     F237657  11.022   4.476   8.754  0.1702  0.7160 -0.3431
    5FIC     O137658  10.385   4.611   8.748 -0.0219 -0.1529  0.2446
    5FIC     N537659  10.925   4.649   9.208  0.5336  1.4020 -0.5248
    5FIC     N637660  10.524   4.775   9.327  0.5181  1.0751 -0.2277
    5FIC    C1937661  10.377   4.705   9.025  0.2144  0.3343  0.0872
    5FIC    C2037662  10.489   4.661   8.965  0.1953  0.3761  0.0205
    5FIC    C2137663  10.485   4.614   8.822  0.0713  0.1144  0.1087
    5FIC    C2237664  10.623   4.573   8.788  0.0823  0.2388  0.0031
    5FIC    C2337665  10.669   4.523   8.667 -0.0088  0.0826  0.0331
    5FIC    C2437666  10.803   4.491   8.658  0.0236  0.2490 -0.0858
    5FIC    C2537667  10.889   4.509   8.768  0.1432  0.5617 -0.2294
    5FIC    C2637668  10.843   4.560   8.889  0.2348  0.7190 -0.2601
    5FIC    C2737669  10.707   4.593   8.900  0.2036  0.5543 -0.1414
    5FIC    C2837670  10.628   4.647   9.013  0.2780  0.6512 -0.1364
    5FIC    C2937671  10.676   4.679   9.138  0.4001  0.9407 -0.2544
    5FIC    C3037672  10.813   4.662   9.176  0.4733  1.1933 -0.4027
    5FIC    C3137673  10.592   4.732   9.241  0.4644  1.0130 -0.2391
    1BTD     S237674   1.957   4.633   9.370 -0.1123  0.0695 -0.3750
    1BTD     N137675   1.789   4.569   9.360 -0.1628  0.1789 -0.2444
    1BTD     N237676   2.012   4.553   9.219 -0.1891 -0.2373 -0.2434
    1BTD     N337677   1.822   4.275   8.892 -0.4367 -0.6646  0.2611
    1BTD     N437678   1.548   4.294   9.066 -0.4042 -0.1518  0.2589
    1BTD     C537679   1.666   4.425   9.204 -0.2892  0.0001  0.0181
    1BTD     C637680   1.783   4.495   9.250 -0.2307 -0.0092 -0.1163
    1BTD     C737681   1.908   4.487   9.171 -0.2454 -0.2420 -0.1154
    1BTD     C837682   1.910   4.408   9.050 -0.3179 -0.4542  0.0203
    1BTD    C1537683   1.793   4.342   9.009 -0.3735 -0.4365  0.1492
    1BTD    C1637684   1.672   4.350   9.085 -0.3593 -0.2121  0.1483
    1BTD    C4337685   1.497   4.213   8.947  0.2687  0.6978 -0.0584
    1BTD    C4437686   1.426   4.307   8.833  0.7552  0.6128  0.6650
    1BTD    C4537687   1.319   4.237   8.744 -1.0349 -0.4002  0.2471
    1BTD    C4637688   1.376   4.120   8.679 -1.0522  0.8456 -0.4875
    1BTD    C4737689   1.508   4.429   8.775  0.3310  0.4235  0.3781
    1BTD    C4837690   1.443   4.565   8.790 -0.4874 -0.5336  0.2997
    1BTD    C4937691   1.367   4.611   8.909 -0.4904  0.3618 -0.6657
    1BTD    C5037692   1.307   4.754   8.910 -0.9146  0.3222 -0.6374
    1BTD    C7537693   1.773   4.151   8.848 -0.0793 -0.3498  0.5041
    1BTD    C7637694   1.813   4.011   8.878 -0.0732  0.5593 -0.9075
    1BTD    C7737695   1.860   3.959   9.013 -0.6733 -0.6363 -1.0871
    1BTD    C7837696   1.809   4.022   9.143  0.1135 -0.6439 -0.0936
    1BTD    C7937697   1.727   3.918   8.798  1.0724  1.0015 -1.4320
    1BTD    C8037698   1.760   3.773   8.789 -0.1024 -0.1782 -0.6435
    1BTD    C8137699   1.655   3.690   8.856 -0.2773 -0.3850 -0.0276
    1BTD    C8237700   1.708   3.550   8.864 -0.5459  1.5142 -0.9349
    2TTP     S137701   1.434   4.470   9.391  0.4888  0.1578 -0.0364
    2TTP     S537702   1.164   4.294   9.105  0.4579  0.4915 -0.2131
    2TTP     C137703   1.067   4.357   9.246  0.5099 -0.0533  0.0727
    2TTP     C237704   1.144   4.415   9.342  0.5224 -0.1887  0.1440
    2TTP     C337705   1.283   4.412   9.308  0.4915  0.1334 -0.0243
    2TTP     C437706   1.531   4.407   9.250  0.4368  0.7026 -0.3221
    2TTP    C1737707   1.453   4.349   9.154  0.4242  0.8379 -0.3937
    2TTP    C1837708   1.314   4.352   9.187  0.4552  0.5159 -0.2248
    2TTP    C3237709   1.127   4.460   9.489  0.5215 -1.5599  0.2616
    2TTP    C3337710   1.096   4.346   9.569 -0.1725  0.0385 -0.2298
    2TTP    C3437711   1.106   4.361   9.722 -0.2415  0.3156 -0.9348
    2TTP    C3537712   1.048   4.485   9.802 -0.6257 -0.3698 -0.1720
    2TTP    C3637713   0.897   4.502   9.805 -0.0946  0.0230  1.1506
    2TTP    C3737714   0.788   4.387   9.838  0.9487 -1.0641  0.3435
    2TTP    C3837715   0.831   4.287   9.961 -0.5945 -0.4531  0.3959
    2TTP    C3937716   0.856   4.362  10.095  0.0332  0.8022 -0.0741
    2TTP    C4037717   0.975   4.290  10.155 -0.3442  0.2495 -0.9846
    2TTP    C4137718   0.950   4.231  10.302  0.7296  0.2084  0.9456
    2TTP    C4237719   0.838   4.129  10.333  0.0427 -0.5624  0.5008
    3TTP     S137720   2.152   4.497   8.888  0.2054 -0.6555 -0.0389
    3TTP     S537721   1.984   4.302   8.543 -0.0706 -0.2289 -0.1471
    3TTP     C137722   2.127   4.402   8.490 -0.2741  0.0459 -0.1785
    3TTP     C237723   2.187   4.468   8.593 -0.2007 -0.0696 -0.1471
    3TTP     C337724   2.123   4.442   8.718  0.0186 -0.3793 -0.0970
    3TTP     C437725   2.010   4.397   8.941  0.4089 -0.9302 -0.0076
    3TTP    C1737726   1.949   4.331   8.838  0.3356 -0.8147 -0.0392
    3TTP    C1837727   2.014   4.357   8.713  0.1161 -0.5050 -0.0892
    3TTP    C3237728   2.304   4.565   8.605  0.0462  0.5460 -1.0955
    3TTP    C3337729   2.458   4.523   8.570  1.5547  0.6995 -0.1205
    3TTP    C3437730   2.552   4.616   8.639  0.4448  0.5688 -0.3262
    3TTP    C3537731   2.671   4.540   8.669 -1.9800  1.1169 -0.6548
    3TTP    C3637732   2.787   4.574   8.565 -0.9762  1.3990 -0.8203
    3TTP    C3737733   2.834   4.487   8.453 -0.2190  0.1666 -0.8183
    3TTP    C3837734   2.928   4.584   8.385 -0.0265  0.3629 -0.0000
    3TTP    C3937735   2.996   4.526   8.266  0.0858 -0.2666  0.6681
    3TTP    C4037736   3.122   4.588   8.202 -1.2151  0.1375  1.0473
    3TTP    C4137737   3.129   4.741   8.171  0.3536  0.4481  0.3308
    3TTP    C4237738   3.208   4.777   8.057  0.5520  0.6112 -0.7193
    4FIC     F137739   0.435   4.070   8.812 -0.0767  0.3400 -0.0904
    4FIC     F237740   0.265   4.184   8.992 -0.2284  0.0937 -0.0770
    4FIC     O137741   0.914   4.219   9.015 -0.2575  0.3974  0.2956
    4FIC     N537742   0.362   4.453   9.395 -0.5754 -0.2198  0.2177
    4FIC     N637743   0.771   4.547   9.518 -0.6862 -0.1253  0.5169
    4FIC    C1937744   0.922   4.380   9.259 -0.4667  0.1824  0.4455
    4FIC    C2037745   0.808   4.339   9.201 -0.4153  0.1774  0.3481
    4FIC    C2137746   0.812   4.256   9.076 -0.3079  0.2921  0.2754
    4FIC    C2237747   0.672   4.228   9.040 -0.2750  0.2544  0.1762
    4FIC    C2337748   0.625   4.155   8.931 -0.1812  0.3285  0.0858
    4FIC    C2437749   0.488   4.141   8.917 -0.1676  0.2721  0.0018
    4FIC    C2537750   0.400   4.200   9.010 -0.2459  0.1450  0.0087
    4FIC    C2637751   0.446   4.273   9.119 -0.3397  0.0705  0.0992
    4FIC    C2737752   0.585   4.288   9.134 -0.3549  0.1261  0.1850
    4FIC    C2837753   0.665   4.358   9.237 -0.4442  0.0738  0.2909
    4FIC    C2937754   0.616   4.428   9.345 -0.5361 -0.0476  0.3285
    4FIC    C3037755   0.477   4.442   9.372 -0.5574 -0.1417  0.2675
    4FIC    C3137756   0.702   4.493   9.440 -0.6181 -0.0895  0.4318
    5FIC     F137757   2.104   3.851   7.895  0.6458  0.4681 -0.6392
    5FIC     F237758   2.241   4.025   7.737 -0.0780  1.0614 -0.6301
    5FIC     O137759   2.069   4.137   8.353  1.0727 -0.4697 -0.0148
    5FIC     N537760   2.414   4.478   7.835 -0.8138  1.2460 -0.1720
    5FIC     N637761   2.360   4.666   8.226 -0.3343  0.3935  0.3140
    5FIC    C1937762   2.188   4.405   8.365  0.5331 -0.2361  0.2156
    5FIC    C2037763   2.191   4.326   8.256  0.4539 -0.0232  0.0582
    5FIC    C2137764   2.128   4.190   8.258  0.7463 -0.1628 -0.0527
    5FIC    C2237765   2.150   4.131   8.124  0.5683  0.1358 -0.2141
    5FIC    C2337766   2.109   4.007   8.078  0.7289  0.1348 -0.3562
    5FIC    C2437767   2.141   3.973   7.947  0.5048  0.4502 -0.4944
    5FIC    C2537768   2.212   4.063   7.866  0.1321  0.7555 -0.4894
    5FIC    C2637769   2.253   4.187   7.911 -0.0299  0.7582 -0.3481
    5FIC    C2737770   2.221   4.223   8.043  0.1925  0.4416 -0.2069
    5FIC    C2837771   2.250   4.346   8.121  0.1074  0.3558 -0.0393
    5FIC    C2937772   2.317   4.457   8.076 -0.2284  0.5847  0.0148
    5FIC    C3037773   2.371   4.468   7.944 -0.5490  0.9475 -0.0881
    5FIC    C3137774   2.340   4.572   8.159 -0.2847  0.4781  0.1788
    1BTD     S237775   2.047  10.696   0.931  0.1044 -0.0399  0.0024
    1BTD     N137776   2.012  10.566   1.051  0.2086  0.5949  0.7295
    1BTD     N237777   1.876  10.749   0.917 -0.0184 -0.5927 -0.7018
    1BTD     N337778   1.464  10.624   1.105 -0.0805 -0.5729 -0.8241
    1BTD     N437779   1.632  10.399   1.271  0.1992  0.8907  0.9396
    1BTD     C537780   1.812  10.482   1.164  0.2003  0.7317  0.8179
    1BTD     C637781   1.882  10.569   1.074  0.1496  0.3736  0.4256
    1BTD     C737782   1.805  10.671   0.998  0.0225 -0.2913 -0.3756
    1BTD     C837783   1.663  10.681   1.017 -0.0474 -0.5648 -0.7444
    1BTD    C1537784   1.599  10.593   1.107  0.0061 -0.1962 -0.3379
    1BTD    C1637785   1.673  10.495   1.179  0.1284  0.4442  0.4341
    1BTD    C4337786   1.535  10.410   1.377 -0.2871 -0.6657 -1.0305
    1BTD    C4437787   1.555  10.468   1.518  0.7187 -0.0721 -0.0862
    1BTD    C4537788   1.652  10.576   1.517 -0.3779 -0.0667 -0.3892
    1BTD    C4637789   1.624  10.720   1.493  0.3830 -0.2823 -1.0900
    1BTD    C4737790   1.594  10.364   1.625 -0.0132  2.1785 -0.4388
    1BTD    C4837791   1.625  10.401   1.770 -0.3709 -0.5150  1.5207
    1BTD    C4937792   1.693  10.305   1.870  0.6909  0.2680  0.3399
    1BTD    C5037793   1.728  10.410   1.978 -0.2599  0.6515 -0.4908
    1BTD    C7537794   1.357  10.515   1.126  0.0049  0.3552 -0.0801
    1BTD    C7637795   1.387  10.370   1.096  0.3079 -0.0927 -0.1847
    1BTD    C7737796   1.303  10.244   1.157 -0.0709  1.2448 -0.9693
    1BTD    C7837797   1.176  10.282   1.248 -0.1645 -0.4169 -0.2916
    1BTD    C7937798   1.436  10.331   0.949 -0.1024 -0.1189 -0.3927
    1BTD    C8037799   1.512  10.204   0.944 -0.3129 -0.3520  0.3581
    1BTD    C8137800   1.584  10.135   0.819  0.5688 -1.1455 -0.0377
    1BTD    C8237801   1.655  10.019   0.892 -0.6804  0.6294  0.6057
    2TTP     S137802   1.997  10.259   1.251  0.0139  0.0590 -0.3397
    2TTP     S537803   1.659  10.069   1.437  0.1030 -0.5627 -0.8072
    2TTP     C137804   1.800   9.954   1.442  0.3583 -0.2403 -0.4599
    2TTP     C237805   1.912  10.006   1.385  0.3459 -0.0293 -0.2950
    2TTP     C337806   1.891  10.139   1.335  0.1342 -0.1147 -0.4371
    2TTP     C437807   1.856  10.374   1.247 -0.2414 -0.2635 -0.6871
    2TTP    C1737808   1.743  10.322   1.304 -0.2290 -0.4745 -0.8519
    2TTP    C1837809   1.764  10.190   1.353 -0.0173 -0.3891 -0.7098
    2TTP    C3237810   2.045   9.929   1.369  0.1036 -1.3248  1.3536
    2TTP    C3337811   2.051   9.900   1.210 -1.0173  0.8779 -0.6543
    2TTP    C3437812   1.977   9.784   1.151 -0.2659  1.0753 -0.7974
    2TTP    C3537813   1.942   9.740   0.998 -0.5007  0.6277  0.5057
    2TTP    C3637814   2.034   9.639   0.930 -0.2642 -0.6696  0.3107
    2TTP    C3737815   2.023   9.611   0.780 -1.8502  0.3983  0.5857
    2TTP    C3837816   2.137   9.506   0.732  0.2520 -0.8408 -0.0500
    2TTP    C3937817   2.286   9.568   0.730 -0.0970  0.8067 -0.5794
    2TTP    C4037818   2.353   9.524   0.601  0.5864 -0.0556  0.7265
    2TTP    C4137819   2.502   9.567   0.601  0.1512 -0.5033  0.7660
    2TTP    C4237820   2.515   9.665   0.490  0.8221 -0.3409 -0.5853
    3TTP     S137821   1.552  10.931   0.893  0.2183  0.1352 -0.1487
    3TTP     S537822   1.171  10.834   1.067  0.5806 -0.4210  0.3434
    3TTP     C137823   1.165  11.005   1.006  0.4234 -0.2517  0.8297
    3TTP     C237824   1.283  11.046   0.949  0.3023 -0.0694  0.7064
    3TTP     C337825   1.381  10.942   0.951  0.3292 -0.0579  0.2234
    3TTP     C437826   1.558  10.760   0.954  0.3755 -0.0343 -0.6349
    3TTP    C1737827   1.441  10.720   1.011  0.4967 -0.2162 -0.5116
    3TTP    C1837828   1.342  10.823   1.009  0.4697 -0.2282 -0.0287
    3TTP    C3237829   1.309  11.169   0.837 -0.8047  0.4012 -1.8378
    3TTP    C3337830   1.400  11.290   0.879  0.0002  0.8663  0.3977
    3TTP    C3437831   1.420  11.380   0.758  0.1440  0.4303  0.2621
    3TTP    C3537832   1.459  11.511   0.806 -1.3049  0.7334 -0.6740
    3TTP    C3637833   1.401  11.635   0.733 -0.2588 -1.0360  0.0413
    3TTP    C3737834   1.452  11.672   0.594 -0.1939 -0.8665  0.0453
    3TTP    C3837835   1.404  11.808   0.537 -0.3172  0.1265 -0.7387
    3TTP    C3937836   1.500  11.828   0.423  1.0602  1.4597  0.2077
    3TTP    C4037837   1.437  11.916   0.303 -0.7018 -0.6336 -0.5520
    3TTP    C4137838   1.527  11.923   0.177  0.3336  0.6310 -0.4550
    3TTP    C4237839   1.662  11.970   0.183 -0.6299 -0.2493  0.2082
    4FIC     F137840   1.226   9.397   1.620  0.0458  0.0613  0.1164
    4FIC     F237841   1.402   9.275   1.789 -0.0840  0.2820  0.4137
    4FIC     O137842   1.534   9.796   1.423  0.1832 -0.1676 -0.1348
    4FIC     N537843   1.874   9.385   1.890 -0.1728  0.4368  0.6622
    4FIC     N637844   2.079   9.721   1.702 -0.0393  0.2131  0.4060
    4FIC    C1937845   1.811   9.822   1.514  0.1079 -0.0377  0.0601
    4FIC    C2037846   1.727   9.726   1.557  0.0784  0.0110  0.1117
    4FIC    C2137847   1.586   9.720   1.505  0.1206 -0.0615  0.0044
    4FIC    C2237848   1.522   9.605   1.572  0.0728  0.0184  0.0972
    4FIC    C2337849   1.392   9.559   1.557  0.0881 -0.0086  0.0481
    4FIC    C2437850   1.354   9.448   1.631  0.0343  0.0818  0.1571
    4FIC    C2537851   1.445   9.385   1.718 -0.0325  0.1957  0.3102
    4FIC    C2637852   1.575   9.430   1.733 -0.0481  0.2232  0.3600
    4FIC    C2737853   1.615   9.543   1.659  0.0056  0.1330  0.2513
    4FIC    C2837854   1.744   9.615   1.653  0.0064  0.1328  0.2663
    4FIC    C2937855   1.858   9.584   1.724 -0.0490  0.2275  0.3982
    4FIC    C3037856   1.866   9.475   1.815 -0.1169  0.3424  0.5429
    4FIC    C3137857   1.979   9.660   1.711 -0.0433  0.2191  0.4017
    5FIC     F137858   0.388  10.813   0.871 -0.0566 -0.4699  0.3709
    5FIC     F237859   0.320  11.073   0.912 -0.0452 -0.3817 -0.1470
    5FIC     O137860   0.925  10.835   0.936 -0.0706 -0.3903  0.4610
    5FIC     N537861   0.606  11.463   1.019 -0.0388 -0.1983 -0.8273
    5FIC     N637862   1.039  11.428   1.061 -0.0521 -0.1539 -0.6526
    5FIC    C1937863   1.051  11.092   0.999 -0.0647 -0.2779 -0.0018
    5FIC    C2037864   0.918  11.076   0.981 -0.0616 -0.3013 -0.0042
    5FIC    C2137865   0.861  10.941   0.948 -0.0650 -0.3593  0.2418
    5FIC    C2237866   0.715  10.959   0.935 -0.0603 -0.3719  0.1704
    5FIC    C2337867   0.620  10.863   0.906 -0.0612 -0.4206  0.3332
    5FIC    C2437868   0.488  10.904   0.899 -0.0560 -0.4228  0.2211
    5FIC    C2537869   0.453  11.038   0.921 -0.0502 -0.3774 -0.0457
    5FIC    C2637870   0.548  11.135   0.950 -0.0492 -0.3285 -0.2094
    5FIC    C2737871   0.682  11.095   0.958 -0.0544 -0.3255 -0.0995
    5FIC    C2837872   0.806  11.172   0.986 -0.0550 -0.2804 -0.2173
    5FIC    C2937873   0.814  11.307   1.013 -0.0502 -0.2290 -0.4748
    5FIC    C3037874   0.699  11.393   1.016 -0.0440 -0.2123 -0.6678
    5FIC    C3137875   0.937  11.373   1.039 -0.0513 -0.1880 -0.5711
    1BTD     S237876   1.153   8.800   0.434  0.4701 -0.3105  0.0208
    1BTD     N137877   1.221   8.962   0.400  0.4806 -0.2701  0.2332
    1BTD     N237878   1.250   8.716   0.308  0.3351 -0.1245 -0.2093
    1BTD     N337879   1.573   8.840  -0.009  0.0788  0.3281 -0.2944
    1BTD     N437880   1.536   9.144   0.103  0.2581  0.1488  0.2507
    1BTD     C537881   1.386   9.053   0.244  0.3623 -0.0491  0.2358
    1BTD     C637882   1.308   8.947   0.302  0.3877 -0.1276  0.1272
    1BTD     C737883   1.325   8.809   0.250  0.3063 -0.0458 -0.1205
    1BTD     C837884   1.418   8.785   0.144  0.2035  0.1097 -0.2472
    1BTD    C1537885   1.492   8.892   0.090  0.1821  0.1813 -0.1337
    1BTD    C1637886   1.476   9.025   0.140  0.2606  0.1030  0.1049
    1BTD    C4337887   1.581   9.194  -0.031 -1.1158 -1.5959  0.3596
    1BTD    C4437888   1.540   9.320  -0.110 -1.0013 -0.5513 -0.7650
    1BTD    C4537889   1.381   9.330  -0.126 -0.1375  0.5009  0.6558
    1BTD    C4637890   1.271   9.299  -0.018  0.1724 -0.9375  0.0712
    1BTD    C4737891   1.591   9.364  -0.250  0.1124  0.7363 -0.7574
    1BTD    C4837892   1.611   9.241  -0.348  1.3195  0.1319 -1.0464
    1BTD    C4937893   1.738   9.154  -0.338  0.1705 -0.2198 -0.5118
    1BTD    C5037894   1.843   9.248  -0.401 -0.3065 -1.0255 -0.5106
    1BTD    C7537895   1.701   8.890  -0.062  0.0295 -1.0345  0.4947
    1BTD    C7637896   1.832   8.869  -0.003 -0.7964 -0.0345  0.1479
    1BTD    C7737897   1.845   8.872   0.147 -0.1526  0.2426  0.7774
    1BTD    C7837898   1.822   8.982   0.235  0.3869  0.0002  0.8073
    1BTD    C7937899   1.916   8.969  -0.081 -1.4646 -0.3141 -1.1010
    1BTD    C8037900   2.073   8.979  -0.082 -0.5732  0.4187  0.2649
    1BTD    C8137901   2.134   9.126  -0.109  0.7161 -0.0181  0.4369
    1BTD    C8237902   2.281   9.140  -0.115 -0.5496 -0.4708  0.6806
    2TTP     S137903   1.414   9.260   0.448  0.3639 -0.2836  0.6697
    2TTP     S537904   1.762   9.409   0.244 -0.2266  0.2615  0.0491
    2TTP     C137905   1.755   9.485   0.410  0.2306 -0.1488  0.2620
    2TTP     C237906   1.647   9.443   0.482  0.4399 -0.3414  0.4662
    2TTP     C337907   1.566   9.350   0.410  0.2468 -0.1717  0.4619
    2TTP     C437908   1.421   9.184   0.283 -0.0933  0.1268  0.4567
    2TTP    C1737909   1.529   9.226   0.210 -0.3025  0.3188  0.2525
    2TTP    C1837910   1.610   9.319   0.282 -0.1094  0.1493  0.2569
    2TTP    C3237911   1.585   9.495   0.614 -0.1847 -0.4065 -0.0291
    2TTP    C3337912   1.511   9.420   0.718 -0.0348  0.5204  1.1773
    2TTP    C3437913   1.591   9.366   0.837  0.5994  0.3320 -1.1942
    2TTP    C3537914   1.611   9.443   0.968  0.1303  0.0896 -0.5734
    2TTP    C3637915   1.701   9.387   1.078  0.2381  0.3345 -0.3739
    2TTP    C3737916   1.653   9.258   1.146  0.1907  1.0133  0.1987
    2TTP    C3837917   1.672   9.284   1.298  0.4751  1.6461  0.6867
    2TTP    C3937918   1.747   9.172   1.377  0.1929 -0.4886  0.6583
    2TTP    C4037919   1.899   9.203   1.380 -0.1583 -1.3649  0.0683
    2TTP    C4137920   1.976   9.196   1.252 -1.4622  1.1250  0.1239
    2TTP    C4237921   2.111   9.274   1.223  0.7652  0.0011  0.0798
    3TTP     S137922   1.466   8.486   0.123 -0.0046  0.2792  0.2521
    3TTP     S537923   1.749   8.563  -0.191  0.1743 -0.2379  0.2837
    3TTP     C137924   1.758   8.387  -0.148 -0.1757 -0.2609  0.2621
    3TTP     C237925   1.670   8.352  -0.048 -0.2517 -0.1025  0.2511
    3TTP     C337926   1.594   8.464  -0.003 -0.0360  0.0424  0.2592
    3TTP     C437927   1.457   8.662   0.080  0.3454  0.3021  0.2737
    3TTP    C1737928   1.545   8.697  -0.020  0.4213  0.1438  0.2849
    3TTP    C1837929   1.621   8.585  -0.065  0.2057 -0.0014  0.2766
    3TTP    C3237930   1.673   8.216   0.027 -0.4649 -0.1193 -0.1352
    3TTP    C3337931   1.714   8.237   0.182 -0.4865  1.5241 -1.0703
    3TTP    C3437932   1.792   8.124   0.265  0.4718 -1.1139  1.0865
    3TTP    C3537933   1.942   8.083   0.236  1.0483 -0.7138 -0.4170
    3TTP    C3637934   2.050   8.167   0.287 -0.0063  0.6038  0.8570
    3TTP    C3737935   2.144   8.051   0.280 -1.5280 -0.0548 -1.3044
    3TTP    C3837936   2.291   8.098   0.308 -0.6008 -0.9763  0.9412
    3TTP    C3937937   2.353   8.222   0.241  0.1666  0.4120  0.7521
    3TTP    C4037938   2.313   8.238   0.093  1.7663 -0.2295 -0.5098
    3TTP    C4137939   2.330   8.378   0.062  1.3591  0.0419  0.1666
    3TTP    C4237940   2.329   8.434  -0.084 -0.5077  1.3943 -0.4597
    4FIC     F137941   2.472   9.628   0.065  0.0678 -0.0772  0.2153
    4FIC     F237942   2.454   9.883   0.159 -0.4807  0.2587 -0.7733
    4FIC     O137943   2.032   9.405   0.288  0.4297 -0.1087  0.9046
    4FIC     N537944   2.114  10.090   0.453 -1.0111  0.7188 -1.7034
    4FIC     N637945   1.774   9.865   0.608 -0.6177  0.6268 -0.9655
    4FIC    C1937946   1.858   9.569   0.457  0.0344  0.2010  0.2049
    4FIC    C2037947   1.970   9.616   0.397 -0.0352  0.1955  0.0701
    4FIC    C2137948   2.054   9.525   0.312  0.1798  0.0315  0.4515
    4FIC    C2237949   2.167   9.606   0.263  0.0350  0.0708  0.1809
    4FIC    C2337950   2.271   9.566   0.180  0.1481 -0.0408  0.3767
    4FIC    C2437951   2.366   9.661   0.147 -0.0302  0.0260  0.0468
    4FIC    C2537952   2.357   9.792   0.195 -0.3128  0.1988 -0.4623
    4FIC    C2637953   2.253   9.833   0.278 -0.4271  0.3111 -0.6602
    4FIC    C2737954   2.155   9.738   0.313 -0.2497  0.2460 -0.3321
    4FIC    C2837955   2.034   9.749   0.397 -0.3041  0.3293 -0.4204
    4FIC    C2937956   1.990   9.862   0.463 -0.5556  0.4988 -0.8708
    4FIC    C3037957   2.058   9.987   0.457 -0.8052  0.6192 -1.3270
    4FIC    C3137958   1.871   9.863   0.543 -0.5883  0.5679 -0.9203
    5FIC     F137959   2.418   8.470  -0.626 -0.3746  0.4845 -0.4117
    5FIC     F237960   2.375   8.218  -0.718 -0.2376  0.2952  0.0412
    5FIC     O137961   2.020   8.517  -0.262 -0.0086  0.6847 -0.0355
    5FIC     N537962   2.029   7.888  -0.590  0.2203  0.1653  0.9594
    5FIC     N637963   1.727   7.975  -0.286  0.4786  0.3600  1.1618
    5FIC    C1937964   1.837   8.292  -0.220  0.2522  0.5749  0.5303
    5FIC    C2037965   1.939   8.290  -0.308  0.1548  0.5317  0.4179
    5FIC    C2137966   2.029   8.410  -0.324  0.0233  0.5932  0.1256
    5FIC    C2237967   2.128   8.374  -0.427 -0.0590  0.5238  0.0699
    5FIC    C2337968   2.232   8.453  -0.476 -0.1888  0.5465 -0.1736
    5FIC    C2437969   2.313   8.398  -0.573 -0.2465  0.4676 -0.1772
    5FIC    C2537970   2.291   8.268  -0.620 -0.1756  0.3700  0.0560
    5FIC    C2637971   2.187   8.189  -0.572 -0.0461  0.3474  0.2997
    5FIC    C2737972   2.104   8.243  -0.473  0.0139  0.4258  0.3073
    5FIC    C2837973   1.987   8.186  -0.402  0.1481  0.4270  0.5307
    5FIC    C2937974   1.933   8.060  -0.420  0.2472  0.3462  0.7918
    5FIC    C3037975   1.986   7.966  -0.513  0.2320  0.2471  0.8829
    5FIC    C3137976   1.820   8.014  -0.346  0.3739  0.3541  0.9940
    1BTD     S237977   9.803   8.794   2.972 -0.1563 -0.0671  0.5125
    1BTD     N137978   9.804   8.834   3.147 -0.0813  1.4832  0.1801
    1BTD     N237979   9.624   8.798   2.957 -0.2511 -1.6515  0.8329
    1BTD     N337980   9.260   8.880   3.242 -0.3085 -2.0816  0.8855
    1BTD     N437981   9.482   8.925   3.476 -0.0989  1.7810  0.0810
    1BTD     C537982   9.633   8.881   3.316 -0.0930  1.5922  0.1381
    1BTD     C637983   9.677   8.848   3.183 -0.1280  0.7765  0.3179
    1BTD     C737984   9.577   8.828   3.077 -0.2234 -0.9785  0.6834
    1BTD     C837985   9.437   8.842   3.108 -0.2787 -1.8294  0.8507
    1BTD    C1537986   9.399   8.874   3.240 -0.2411 -0.9810  0.6645
    1BTD    C1637987   9.495   8.894   3.343 -0.1495  0.7099  0.3124
    1BTD    C4337988   9.369   8.880   3.565  0.6245 -0.4221 -0.9720
    1BTD    C4437989   9.389   8.731   3.614  0.2722  0.5884 -1.2121
    1BTD    C4537990   9.377   8.600   3.543  1.4756 -0.3975  0.9207
    1BTD    C4637991   9.501   8.544   3.474  0.3443 -1.3982  1.9618
    1BTD    C4737992   9.329   8.720   3.761 -0.2800 -0.0915  1.1106
    1BTD    C4837993   9.195   8.648   3.790 -0.8328 -0.1936 -0.3135
    1BTD    C4937994   9.078   8.740   3.791 -1.3248  2.1539  0.0010
    1BTD    C5037995   8.947   8.668   3.808 -0.5433  0.1039 -0.6656
    1BTD    C7537996   9.164   8.973   3.319 -0.4087  0.5151 -0.4621
    1BTD    C7637997   9.160   9.129   3.302  0.1890 -0.8006  0.5556
    1BTD    C7737998   9.043   9.189   3.381 -0.7156 -0.0124 -0.8171
    1BTD    C7837999   8.915   9.231   3.308 -0.6977  1.0892  0.7575
    1BTD    C7938000   9.277   9.210   3.350  0.0229  0.8702 -0.5746
    1BTD    C8038001   9.407   9.196   3.266 -0.6328  1.0797 -0.1211
    1BTD    C8138002   9.420   9.268   3.131 -0.3884 -0.6053 -2.4108
    1BTD    C8238003   9.430   9.421   3.151  0.3223 -0.0393  0.6760
    2TTP     S138004   9.868   8.966   3.485  0.1737 -0.5072  0.0881
    2TTP     S538005   9.595   9.081   3.796 -0.0815  0.1287 -0.3675
    2TTP     C138006   9.762   9.134   3.844 -0.0967  0.0847 -0.2653
    2TTP     C238007   9.856   9.101   3.751 -0.0186 -0.1140 -0.1185
    2TTP     C338008   9.800   9.034   3.638  0.0558 -0.2391 -0.0816
    2TTP     C438009   9.701   8.914   3.438  0.1888 -0.4630 -0.0141
    2TTP    C1738010   9.606   8.946   3.531  0.1110 -0.2645 -0.1608
    2TTP    C1838011   9.663   9.014   3.643  0.0362 -0.1395 -0.1978
    2TTP    C3238012  10.010   9.143   3.738 -0.6208  0.0019  0.0927
    2TTP    C3338013  10.132   9.074   3.807  0.1710 -0.1855  0.3940
    2TTP    C3438014  10.144   8.921   3.780  1.3277  1.0090 -1.7413
    2TTP    C3538015  10.179   8.878   3.649 -0.3393  1.4340  0.3912
    2TTP    C3638016  10.110   8.742   3.602  0.0706 -1.5741  0.3749
    2TTP    C3738017  10.194   8.688   3.477 -0.4929 -1.5435  0.4151
    2TTP    C3838018  10.191   8.532   3.444 -0.5990  1.4695 -0.5917
    2TTP    C3938019  10.260   8.483   3.322 -0.0594  0.2399  0.0248
    2TTP    C4038020  10.308   8.331   3.315 -1.1243 -0.9467  1.5551
    2TTP    C4138021  10.410   8.292   3.201  0.3725  0.9190 -0.0017
    2TTP    C4238022  10.427   8.332   3.053  1.6333  0.0878  0.9986
    3TTP     S138023   9.269   8.830   2.853 -0.0555 -0.4063  0.0558
    3TTP     S538024   8.912   8.882   3.087  0.3140  0.7164  0.3811
    3TTP     C138025   8.865   8.862   2.912  0.0924  0.8633  0.4238
    3TTP     C238026   8.972   8.845   2.830 -0.0346  0.5252  0.3259
    3TTP     C338027   9.096   8.847   2.901  0.0381  0.1380  0.2136
    3TTP     C438028   9.317   8.849   3.027  0.1659 -0.5529  0.0131
    3TTP    C1738029   9.209   8.867   3.110  0.2929 -0.2152  0.1110
    3TTP    C1838030   9.086   8.865   3.038  0.2205  0.1721  0.2234
    3TTP    C3238031   8.964   8.799   2.686  0.4141  0.4691  1.2223
    3TTP    C3338032   9.021   8.866   2.564 -1.4906 -0.9604  0.2189
    3TTP    C3438033   9.076   8.782   2.452 -0.2116 -0.9205 -0.7122
    3TTP    C3538034   9.166   8.835   2.337  0.6949 -0.9183  0.0156
    3TTP    C3638035   9.309   8.890   2.373  0.6348  0.6881 -1.1842
    3TTP    C3738036   9.332   9.014   2.464 -0.4828 -0.9709 -0.3286
    3TTP    C3838037   9.274   9.157   2.402  1.2481  0.0085 -0.7955
    3TTP    C3938038   9.340   9.293   2.461  0.5611  0.6018 -0.9601
    3TTP    C4038039   9.486   9.306   2.480 -0.3791 -1.0530  0.5315
    3TTP    C4138040   9.533   9.408   2.583  0.9368 -0.6649 -0.3735
    3TTP    C4238041   9.460   9.411   2.724 -2.0488  0.3208  0.4497
    4FIC     F138042   9.410   9.784   4.203 -0.1030  0.0348 -0.1038
    4FIC     F238043   9.622   9.799   4.373 -0.1113  0.1719 -0.1041
    4FIC     O138044   9.555   9.364   3.894 -0.0992 -0.2317  0.2590
    4FIC     N538045  10.031   9.521   4.397 -0.1206  0.1793  0.1539
    4FIC     N638046  10.102   9.190   4.121 -0.1161 -0.0567  0.4374
    4FIC    C1938047   9.810   9.229   3.946 -0.1061 -0.1956  0.3875
    4FIC    C2038048   9.765   9.334   4.017 -0.1066 -0.1335  0.2962
    4FIC    C2138049   9.633   9.398   3.984 -0.1028 -0.1574  0.2345
    4FIC    C2238050   9.615   9.509   4.080 -0.1047 -0.0756  0.1403
    4FIC    C2338051   9.508   9.597   4.089 -0.1023 -0.0646  0.0598
    4FIC    C2438052   9.513   9.694   4.189 -0.1046  0.0196 -0.0214
    4FIC    C2538053   9.622   9.701   4.276 -0.1093  0.0899 -0.0215
    4FIC    C2638054   9.729   9.614   4.268 -0.1113  0.0796  0.0587
    4FIC    C2738055   9.726   9.515   4.168 -0.1090 -0.0050  0.1416
    4FIC    C2838056   9.823   9.408   4.133 -0.1104 -0.0379  0.2373
    4FIC    C2938057   9.942   9.382   4.195 -0.1142  0.0110  0.2661
    4FIC    C3038058   9.991   9.459   4.305 -0.1178  0.1032  0.2042
    4FIC    C3138059  10.029   9.277   4.154 -0.1152 -0.0267  0.3601
    5FIC     F138060   8.148   9.242   3.061  0.2761  0.1161  0.6006
    5FIC     F238061   8.039   9.112   2.848  0.2644  0.7651  0.2019
    5FIC     O138062   8.656   9.054   3.048  0.0758 -0.4182  0.4596
    5FIC     N538063   8.245   8.790   2.534  0.1056  1.3177 -0.4718
    5FIC     N638064   8.663   8.669   2.567 -0.0484  0.7696 -0.5017
    5FIC    C1938065   8.732   8.862   2.841 -0.0062  0.0123  0.0285
    5FIC    C2038066   8.609   8.915   2.852  0.0446  0.1216  0.0796
    5FIC    C2138067   8.577   9.013   2.961  0.0844 -0.1152  0.3048
    5FIC    C2238068   8.435   9.050   2.945  0.1357  0.0837  0.3045
    5FIC    C2338069   8.361   9.138   3.023  0.1841 -0.0267  0.4767
    5FIC    C2438070   8.228   9.157   2.988  0.2269  0.2083  0.4374
    5FIC    C2538071   8.172   9.089   2.878  0.2207  0.5426  0.2319
    5FIC    C2638072   8.246   9.001   2.800  0.1724  0.6545  0.0594
    5FIC    C2738073   8.380   8.981   2.834  0.1285  0.4201  0.0959
    5FIC    C2838074   8.485   8.895   2.773  0.0725  0.4568 -0.0504
    5FIC    C2938075   8.469   8.814   2.663  0.0508  0.7460 -0.2653
    5FIC    C3038076   8.346   8.801   2.592  0.0811  1.0593 -0.3781
    5FIC    C3138077   8.576   8.735   2.611 -0.0036  0.7572 -0.3941
    1BTD     S238078  10.817   9.104  10.699  0.4363  0.3948 -0.4521
    1BTD     N138079  10.670   9.053  10.610  0.8729  0.0401 -0.9835
    1BTD     N238080  10.811   9.274  10.642 -0.3793  0.6745  0.4101
    1BTD     N338081  10.532   9.529  10.363 -1.2512  0.6039  1.2074
    1BTD     N438082  10.358   9.257  10.324  0.2913 -0.1783 -0.5093
    1BTD     C538083  10.509   9.163  10.461  0.5505 -0.0646 -0.7153
    1BTD     C638084  10.626   9.160  10.545  0.4127  0.1428 -0.5150
    1BTD     C738085  10.705   9.284  10.563 -0.2882  0.4983  0.2649
    1BTD     C838086  10.663   9.404  10.496 -0.8159  0.6282  0.8054
    1BTD    C1538087  10.548   9.402  10.414 -0.6570  0.4160  0.5842
    1BTD    C1638088  10.472   9.283  10.397  0.0179  0.0733 -0.1671
    1BTD    C4338089  10.245   9.355  10.334  0.8111  0.7157  1.4204
    1BTD    C4438090  10.128   9.359  10.227  0.2435 -0.5379  0.9762
    1BTD    C4538091  10.018   9.441  10.289 -1.6181 -0.8703 -1.0711
    1BTD    C4638092   9.896   9.454  10.220  1.6083 -0.1602  0.4400
    1BTD    C4738093  10.170   9.397  10.094  0.8468 -0.7764  1.0447
    1BTD    C4838094  10.178   9.325   9.963 -0.4596 -0.7646  0.3418
    1BTD    C4938095  10.172   9.176   9.966 -0.1242 -0.6341 -0.8835
    1BTD    C5038096  10.192   9.099   9.821 -0.3235  0.8475 -0.2283
    1BTD    C7538097  10.480   9.551  10.222 -0.9383  0.8581  0.7521
    1BTD    C7638098  10.567   9.539  10.085  0.6532  0.0668 -0.2967
    1BTD    C7738099  10.665   9.423  10.095 -0.5189  0.2698 -0.0059
    1BTD    C7838100  10.791   9.458  10.004  1.3737 -0.1766  0.6891
    1BTD    C7938101  10.497   9.555   9.944 -0.1196 -0.2373  0.5141
    1BTD    C8038102  10.484   9.699   9.886  0.5235  1.1792  0.4339
    1BTD    C8138103  10.391   9.802   9.965 -0.5693  1.3524  1.2886
    1BTD    C8238104  10.358   9.918   9.883  0.8597  0.0744  0.1517
    2TTP     S138105  10.393   8.893  10.477 -0.2870  0.1286  0.4209
    2TTP     S538106  10.067   9.021  10.227 -0.5584 -0.3452  0.5276
    2TTP     C138107  10.040   8.847  10.273 -0.6529 -0.1790  1.1156
    2TTP     C238108  10.139   8.797  10.353 -0.5748 -0.0224  1.1172
    2TTP     C338109  10.240   8.895  10.381 -0.4373 -0.0286  0.6542
    2TTP     C438110  10.420   9.066  10.431 -0.1924 -0.0377 -0.1671
    2TTP    C1738111  10.321   9.116  10.351 -0.2702 -0.1939 -0.1688
    2TTP    C1838112  10.220   9.019  10.324 -0.4079 -0.1876  0.2944
    2TTP    C3238113  10.145   8.642  10.384  0.0858  0.0353  0.8415
    2TTP    C3338114  10.103   8.587  10.523 -0.4570 -0.4102  0.4755
    2TTP    C3438115  10.005   8.680  10.608 -1.4845 -0.7187 -0.8146
    2TTP    C3538116  10.028   8.673  10.770 -0.0909  0.4047 -0.6405
    2TTP    C3638117   9.951   8.739  10.873 -0.4121 -0.6598 -0.6566
    2TTP    C3738118   9.806   8.718  10.869  0.2880 -0.5282 -0.1355
    2TTP    C3838119   9.734   8.834  10.948 -1.2158  0.2808 -0.4498
    2TTP    C3938120   9.741   8.966  10.876 -0.9935 -1.1221 -0.5070
    2TTP    C4038121   9.699   9.081  10.962 -1.0670 -0.3050 -0.9358
    2TTP    C4138122   9.726   9.224  10.912  0.3074 -0.7394 -0.9346
    2TTP    C4238123   9.639   9.320  10.993  0.0491 -0.9059  0.4475
    3TTP     S138124  10.858   9.630  10.556 -0.3179  0.0782  0.3788
    3TTP     S538125  10.638   9.878  10.281 -0.2568 -0.6087 -0.2964
    3TTP     C138126  10.781   9.972  10.343 -0.5408 -0.2840 -0.1271
    3TTP     C238127  10.857   9.901  10.431 -0.5763 -0.0532  0.0918
    3TTP     C338128  10.806   9.770  10.454 -0.3808 -0.1237  0.1330
    3TTP     C438129  10.715   9.536  10.494 -0.0341 -0.2465  0.2093
    3TTP    C1738130  10.639   9.607  10.406  0.0014 -0.4777 -0.0093
    3TTP    C1838131  10.690   9.738  10.384 -0.1943 -0.4070 -0.0505
    3TTP    C3238132  10.953   9.947  10.527 -1.0273 -0.2712 -0.6674
    3TTP    C3338133  11.087   9.878  10.547  0.3268 -1.2542  0.1997
    3TTP    C3438134  11.149   9.927  10.687  0.1815  0.0331  1.0487
    3TTP    C3538135  11.298   9.949  10.709 -0.1852 -1.4834 -1.0656
    3TTP    C3638136  11.341  10.091  10.669  0.8109  0.2630 -0.4887
    3TTP    C3738137  11.473  10.162  10.712  0.8228  0.9568  1.7110
    3TTP    C3838138  11.575  10.074  10.778 -0.0298 -0.2847  0.0955
    3TTP    C3938139  11.700  10.023  10.704  0.3903  1.4508 -1.1607
    3TTP    C4038140  11.737   9.886  10.752  0.2679  0.8483 -0.4197
    3TTP    C4138141  11.762   9.866  10.905  1.1894  1.3879  0.3402
    3TTP    C4238142  11.796   9.719  10.946 -1.3124 -0.8259  0.1448
    4FIC     F138143   9.618   8.845   9.562  0.3142  0.0596 -0.4020
    4FIC     F238144   9.486   8.624   9.651 -0.1984  0.4864 -0.0906
    4FIC     O138145   9.948   8.942   9.981  0.3769  0.0212 -0.4420
    4FIC     N538146   9.531   8.376  10.076 -0.8905  1.0722  0.3283
    4FIC     N638147   9.815   8.496  10.386 -0.7381  0.9561  0.2341
    4FIC    C1938148   9.938   8.766  10.214 -0.0902  0.4154 -0.1591
    4FIC    C2038149   9.860   8.750  10.106 -0.0861  0.4082 -0.1609
    4FIC    C2138150   9.871   8.845   9.990  0.1619  0.1993 -0.3114
    4FIC    C2238151   9.773   8.799   9.889  0.0978  0.2491 -0.2723
    4FIC    C2338152   9.747   8.856   9.765  0.2651  0.1070 -0.3731
    4FIC    C2438153   9.650   8.795   9.687  0.1597  0.1912 -0.3089
    4FIC    C2538154   9.582   8.681   9.732 -0.1040  0.4108 -0.1481
    4FIC    C2638155   9.608   8.624   9.856 -0.2720  0.5538 -0.0470
    4FIC    C2738156   9.706   8.684   9.937 -0.1690  0.4716 -0.1099
    4FIC    C2838157   9.757   8.650  10.072 -0.2930  0.5779 -0.0350
    4FIC    C2938158   9.715   8.544  10.150 -0.5498  0.7927  0.1206
    4FIC    C3038159   9.614   8.452  10.109 -0.7365  0.9456  0.2341
    4FIC    C3138160   9.770   8.519  10.279 -0.6521  0.8812  0.1824
    5FIC     F138161  10.432  10.521   9.854  0.0160  0.2260  0.4268
    5FIC     F238162  10.665  10.662   9.857  0.2143 -0.0970  0.3657
    5FIC     O138163  10.552  10.119  10.196 -0.4187  0.0083  0.3242
    5FIC     N538164  11.084  10.579  10.106  0.1886 -0.7157  0.2050
    5FIC     N638165  11.131  10.236  10.372 -0.1912 -0.8209  0.1378
    5FIC    C1938166  10.817  10.111  10.321 -0.3842 -0.3773  0.2299
    5FIC    C2038167  10.777  10.206  10.235 -0.2825 -0.3099  0.2580
    5FIC    C2138168  10.640  10.204  10.175 -0.3085 -0.1101  0.3059
    5FIC    C2238169  10.630  10.321  10.086 -0.1769 -0.0834  0.3269
    5FIC    C2338170  10.521  10.361  10.009 -0.1500  0.0792  0.3715
    5FIC    C2438171  10.536  10.476   9.933 -0.0174  0.0705  0.3834
    5FIC    C2538172  10.656  10.548   9.935  0.0844 -0.0963  0.3519
    5FIC    C2638173  10.765  10.509  10.011  0.0582 -0.2587  0.3078
    5FIC    C2738174  10.752  10.393  10.089 -0.0753 -0.2530  0.2947
    5FIC    C2838175  10.847  10.326  10.180 -0.1361 -0.3984  0.2511
    5FIC    C2938176  10.976  10.366  10.209 -0.0696 -0.5808  0.2120
    5FIC    C3038177  11.035  10.483  10.152  0.0720 -0.6545  0.2081
    5FIC    C3138178  11.060  10.294  10.299 -0.1369 -0.7117  0.1709
    1BTD     S238179   0.829   3.717   5.059 -0.0007  0.0026  0.0106
    1BTD     N138180   0.830   3.649   5.225 -0.0452 -0.2161 -0.0781
    1BTD     N238181   0.678   3.811   5.082  0.0716  0.0885  0.1397
    1BTD     N338182   0.369   3.879   5.429  0.1385 -0.1311  0.2428
    1BTD     N438183   0.556   3.680   5.606 -0.0055 -0.5065 -0.0254
    1BTD     C538184   0.685   3.667   5.422 -0.0228 -0.3632 -0.0474
    1BTD     C638185   0.722   3.697   5.286 -0.0060 -0.2139 -0.0103
    1BTD     C738186   0.637   3.788   5.206  0.0594 -0.0433  0.1116
    1BTD     C838187   0.519   3.844   5.265  0.1048 -0.0307  0.1904
    1BTD    C1538188   0.486   3.812   5.398  0.0862 -0.1803  0.1502
    1BTD    C1638189   0.568   3.725   5.476  0.0232 -0.3445  0.0327
    1BTD    C4338190   0.484   3.746   5.703  0.1742 -0.3626 -1.3598
    1BTD    C4438191   0.430   3.682   5.833 -0.6857  0.6646  1.1600
    1BTD    C4538192   0.388   3.785   5.929  1.3170 -0.0683 -0.1470
    1BTD    C4638193   0.333   3.786   6.069  0.0342 -1.1876 -1.5638
    1BTD    C4738194   0.325   3.565   5.816  0.1974 -0.8593  0.5687
    1BTD    C4838195   0.271   3.483   5.945  0.2721 -0.5976  0.6897
    1BTD    C4938196   0.147   3.414   5.911  0.2810 -1.4833 -0.8296
    1BTD    C5038197   0.142   3.298   5.821  0.4944 -0.8520 -0.9440
    1BTD    C7538198   0.277   3.838   5.530 -0.2389 -0.3312 -0.2672
    1BTD    C7638199   0.170   3.727   5.526  1.2426  0.5780 -0.8830
    1BTD    C7738200   0.079   3.707   5.653 -1.0128  0.9911 -0.7985
    1BTD    C7838201   0.032   3.824   5.740 -0.3997  0.7052  1.2221
    1BTD    C7938202   0.195   3.592   5.443  0.1937  0.8581  0.4425
    1BTD    C8038203   0.202   3.584   5.285 -0.5347  0.5420 -0.6153
    1BTD    C8138204   0.244   3.475   5.176  0.5106 -0.4166 -0.6112
    1BTD    C8238205   0.384   3.430   5.172 -0.6059 -0.1369 -0.2662
    2TTP     S138206   0.867   3.465   5.537 -0.2981 -0.0479 -0.3109
    2TTP     S538207   0.657   3.493   5.911  0.9718  0.6871  0.3599
    2TTP     C138208   0.785   3.365   5.927  0.5412  0.1931 -0.0699
    2TTP     C238209   0.858   3.349   5.812  0.1237 -0.0631 -0.3022
    2TTP     C338210   0.814   3.437   5.708  0.1288  0.1217 -0.1494
    2TTP     C438211   0.738   3.592   5.522  0.1325  0.4462  0.1189
    2TTP    C1738212   0.666   3.609   5.637  0.5501  0.7024  0.3511
    2TTP    C1838213   0.709   3.521   5.741  0.5450  0.5175  0.1984
    2TTP    C3238214   0.978   3.238   5.799 -1.5776 -1.0236  0.1842
    2TTP    C3338215   0.988   3.144   5.672  0.4913 -0.0945 -1.2431
    2TTP    C3438216   1.098   3.046   5.667 -0.1729 -0.2414 -0.4642
    2TTP    C3538217   1.117   3.007   5.524 -0.9373  0.7080  0.3452
    2TTP    C3638218   1.190   2.879   5.482  1.3909  0.8099  0.2377
    2TTP    C3738219   1.157   2.832   5.339  1.5053 -0.7829 -0.9487
    2TTP    C3838220   1.165   2.688   5.336  0.1741  0.4208  0.7006
    2TTP    C3938221   1.129   2.637   5.201 -0.6411 -0.8352 -0.0228
    2TTP    C4038222   1.013   2.546   5.171  1.1828 -0.3636  0.5547
    2TTP    C4138223   1.010   2.500   5.027  0.8909  0.0698  0.4812
    2TTP    C4238224   0.880   2.435   4.962 -0.6598 -0.6655 -0.6639
    3TTP     S138225   0.350   3.969   5.040 -0.0437 -0.1951 -0.8448
    3TTP     S538226   0.008   3.992   5.300  0.2521 -0.0355 -0.4661
    3TTP     C138227  -0.043   4.040   5.132 -0.0174 -0.4751 -0.5110
    3TTP     C238228   0.060   4.035   5.042 -0.1247 -0.5502 -0.6304
    3TTP     C338229   0.182   3.995   5.102  0.0022 -0.2633 -0.6909
    3TTP     C438230   0.402   3.922   5.209  0.2259  0.2444 -0.7999
    3TTP    C1738231   0.299   3.926   5.298  0.3331  0.3197 -0.6802
    3TTP    C1838232   0.176   3.967   5.238  0.2063  0.0328 -0.6198
    3TTP    C3238233   0.050   4.069   4.890 -0.5554 -0.5416  0.2470
    3TTP    C3338234   0.033   3.966   4.770 -0.4958 -0.0989  1.0458
    3TTP    C3438235   0.060   4.029   4.632 -0.2174 -0.5482  1.1687
    3TTP    C3538236   0.021   3.935   4.508 -0.6293 -0.2203 -0.0943
    3TTP    C3638237   0.036   3.995   4.366  1.2128  0.1812 -0.6284
    3TTP    C3738238   0.186   4.008   4.322  0.4122 -0.0351 -0.1788
    3TTP    C3838239   0.283   3.892   4.349 -0.7572 -0.8315  0.3293
    3TTP    C3938240   0.428   3.936   4.309 -0.4879 -1.0726 -0.0582
    3TTP    C4038241   0.552   3.839   4.283  0.3537 -0.0772 -0.3077
    3TTP    C4138242   0.532   3.722   4.189  0.3608 -0.4366  0.0844
    3TTP    C4238243   0.474   3.591   4.254  0.3292  0.0507  0.2528
    4FIC     F138244   0.271   3.090   6.508  0.0545 -0.8880  0.1043
    4FIC     F238245   0.479   2.951   6.616  0.3763 -0.6850 -0.2480
    4FIC     O138246   0.511   3.316   6.078 -0.7051 -0.0278  0.1251
    4FIC     N538247   0.949   2.913   6.465  0.2977  0.2200 -0.7397
    4FIC     N638248   1.095   3.117   6.108 -0.3607  0.8513 -0.6527
    4FIC    C1938249   0.795   3.263   6.029 -0.6674  0.4718 -0.2041
    4FIC    C2038250   0.727   3.212   6.133 -0.4889  0.2475 -0.1956
    4FIC    C2138251   0.581   3.244   6.151 -0.5218 -0.0017 -0.0215
    4FIC    C2238252   0.538   3.172   6.273 -0.2948 -0.2062 -0.0595
    4FIC    C2338253   0.411   3.171   6.330 -0.2394 -0.4693  0.0604
    4FIC    C2438254   0.394   3.096   6.446 -0.0122 -0.6259 -0.0069
    4FIC    C2538255   0.501   3.024   6.501  0.1532 -0.5207 -0.1883
    4FIC    C2638256   0.628   3.025   6.445  0.0992 -0.2584 -0.3086
    4FIC    C2738257   0.647   3.101   6.328 -0.1299 -0.0969 -0.2431
    4FIC    C2838258   0.767   3.122   6.244 -0.2426  0.1860 -0.3341
    4FIC    C2938259   0.892   3.069   6.265 -0.1384  0.3582 -0.5125
    4FIC    C3038260   0.923   2.984   6.375  0.1010  0.2815 -0.6369
    4FIC    C3138261   1.003   3.096   6.179 -0.2613  0.6284 -0.5884
    5FIC     F138262  -0.595   4.477   5.553 -0.0243  0.3337 -0.2265
    5FIC     F238263  -0.778   4.419   5.360 -0.0024  0.3508 -0.2519
    5FIC     O138264  -0.154   4.235   5.354 -0.0439  0.2044 -0.1142
    5FIC     N538265  -0.725   4.163   4.940  0.0148  0.2836 -0.2081
    5FIC     N638266  -0.344   3.985   4.823 -0.0050  0.1791 -0.1152
    5FIC    C1938267  -0.171   4.093   5.098 -0.0300  0.1750 -0.0984
    5FIC    C2038268  -0.275   4.157   5.156 -0.0260  0.2068 -0.1256
    5FIC    C2138269  -0.258   4.227   5.288 -0.0336  0.2202 -0.1320
    5FIC    C2238270  -0.390   4.285   5.322 -0.0267  0.2553 -0.1637
    5FIC    C2338271  -0.424   4.359   5.434 -0.0296  0.2780 -0.1795
    5FIC    C2438272  -0.555   4.403   5.445 -0.0213  0.3100 -0.2092
    5FIC    C2538273  -0.649   4.373   5.345 -0.0105  0.3187 -0.2224
    5FIC    C2638274  -0.616   4.299   5.232 -0.0067  0.2964 -0.2065
    5FIC    C2738275  -0.483   4.253   5.220 -0.0153  0.2637 -0.1763
    5FIC    C2838276  -0.417   4.173   5.114 -0.0143  0.2344 -0.1535
    5FIC    C2938277  -0.475   4.124   5.000 -0.0048  0.2329 -0.1576
    5FIC    C3038278  -0.612   4.146   4.967  0.0062  0.2607 -0.1855
    5FIC    C3138279  -0.402   4.048   4.903 -0.0048  0.2034 -0.1342
    1BTD     S238280   7.192   7.017   7.347  0.3608  0.0803 -0.2679
    1BTD     N138281   7.048   7.063   7.446  0.2416  0.0522 -0.4270
    1BTD     N238282   7.273   7.176   7.365  0.3856  0.0435 -0.0432
    1BTD     N338283   7.181   7.584   7.578  0.2205 -0.0825  0.1271
    1BTD     N438284   6.904   7.445   7.678  0.0430 -0.0718 -0.3458
    1BTD     C538285   6.977   7.264   7.566  0.1401 -0.0128 -0.3788
    1BTD     C638286   7.068   7.188   7.485  0.2270  0.0185 -0.3104
    1BTD     C738287   7.194   7.251   7.439  0.3079  0.0136 -0.0957
    1BTD     C838288   7.222   7.387   7.477  0.2974 -0.0221  0.0401
    1BTD    C1538289   7.130   7.457   7.557  0.2109 -0.0516 -0.0336
    1BTD    C1638290   7.008   7.396   7.601  0.1331 -0.0471 -0.2406
    1BTD    C4338291   6.922   7.541   7.789 -1.2280  0.3807  0.3535
    1BTD    C4438292   6.834   7.581   7.918 -0.8249  1.0137  0.6361
    1BTD    C4538293   6.773   7.470   7.996  0.2173 -0.0733 -0.8420
    1BTD    C4638294   6.699   7.512   8.131  0.2152  0.2662  0.7756
    1BTD    C4738295   6.893   7.710   7.982  0.3309  0.4387  0.3128
    1BTD    C4838296   6.995   7.706   8.098  0.7635 -0.1958  0.4799
    1BTD    C4938297   6.991   7.790   8.231 -1.0637  0.5987 -0.1609
    1BTD    C5038298   7.005   7.925   8.184 -0.4998 -1.1803  0.2106
    1BTD    C7538299   7.110   7.707   7.596 -0.0347  0.1151  1.7092
    1BTD    C7638300   7.040   7.785   7.485  0.6061 -0.3250  1.0621
    1BTD    C7738301   7.077   7.755   7.336 -1.3095  0.1702 -0.2299
    1BTD    C7838302   6.973   7.705   7.239  0.8377  0.1186 -0.8849
    1BTD    C7938303   6.925   7.882   7.516  0.2433 -0.5535 -0.0200
    1BTD    C8038304   6.793   7.832   7.567 -0.2746  1.7888  0.6711
    1BTD    C8138305   6.724   7.716   7.491 -0.0659 -0.3959 -0.5690
    1BTD    C8238306   6.647   7.753   7.374 -0.0586  1.0678  0.6711
    2TTP     S138307   6.729   7.111   7.598 -0.2925 -0.1590 -0.6630
    2TTP     S538308   6.533   7.466   7.744  0.0845 -0.5209  0.7558
    2TTP     C138309   6.408   7.337   7.718 -0.0492 -0.2955  0.2650
    2TTP     C238310   6.461   7.220   7.671 -0.1737 -0.1706 -0.2022
    2TTP     C338311   6.602   7.228   7.655 -0.1676 -0.2482 -0.1892
    2TTP     C438312   6.854   7.240   7.624 -0.1588 -0.3844 -0.1724
    2TTP    C1738313   6.801   7.357   7.671 -0.0343 -0.5094  0.2948
    2TTP    C1838314   6.660   7.349   7.688 -0.0403 -0.4318  0.2818
    2TTP    C3238315   6.387   7.094   7.666  1.3696  0.0156  0.1605
    2TTP    C3338316   6.411   7.015   7.799  0.3177  0.0538 -0.7804
    2TTP    C3438317   6.363   6.869   7.820  0.4403  0.1735 -0.0790
    2TTP    C3538318   6.366   6.789   7.677  1.2792  0.4404 -0.9378
    2TTP    C3638319   6.247   6.700   7.623  0.0383 -1.2562  0.0582
    2TTP    C3738320   6.109   6.678   7.664  1.4657  0.0163  0.3278
    2TTP    C3838321   6.107   6.659   7.822 -0.6575  0.6681 -1.1034
    2TTP    C3938322   5.953   6.654   7.865 -0.9536  0.8624 -0.2748
    2TTP    C4038323   5.858   6.775   7.803 -0.4963  0.1433 -0.9006
    2TTP    C4138324   5.710   6.794   7.841  1.1017  1.1480  0.9673
    2TTP    C4238325   5.676   6.798   7.991 -0.3146  0.8353 -0.0838
    3TTP     S138326   7.500   7.469   7.371 -0.0064 -0.2906  0.3369
    3TTP     S538327   7.463   7.844   7.579 -0.2584  0.0546 -0.3269
    3TTP     C138328   7.630   7.833   7.507 -0.1074 -0.1474  0.0512
    3TTP     C238329   7.651   7.717   7.439 -0.0205 -0.2661  0.2785
    3TTP     C338330   7.537   7.632   7.441 -0.0703 -0.2015  0.1620
    3TTP     C438331   7.333   7.480   7.443 -0.1576 -0.0886 -0.0414
    3TTP    C1738332   7.312   7.596   7.511 -0.2444  0.0301 -0.2685
    3TTP    C1838333   7.427   7.681   7.509 -0.1945 -0.0346 -0.1523
    3TTP    C3238334   7.781   7.660   7.391  0.1292 -0.6067 -0.0628
    3TTP    C3338335   7.845   7.654   7.251 -0.9291  0.1573 -1.4287
    3TTP    C3438336   7.824   7.786   7.162 -0.0339  0.3702 -0.8845
    3TTP    C3538337   7.874   7.789   7.009 -0.2326 -0.8681 -0.2732
    3TTP    C3638338   7.773   7.765   6.897  0.3106  0.6548  0.3947
    3TTP    C3738339   7.842   7.764   6.762 -1.4466  0.3365  0.3808
    3TTP    C3838340   7.893   7.630   6.727 -0.2417 -0.2620 -0.5884
    3TTP    C3938341   7.797   7.573   6.634  0.0217  0.7180 -0.4657
    3TTP    C4038342   7.865   7.443   6.599 -0.8098  0.0324  0.8180
    3TTP    C4138343   7.801   7.407   6.468 -0.3432  1.3032  0.8539
    3TTP    C4238344   7.859   7.285   6.390  0.6254 -0.4309  0.0775
    4FIC     F138345   6.011   7.953   7.363  0.1345  0.3691 -0.3359
    4FIC     F238346   5.777   7.838   7.441 -0.0074  0.2915 -0.8671
    4FIC     O138347   6.370   7.595   7.555 -0.2073  0.1787 -0.0482
    4FIC     N538348   5.696   7.417   7.690 -0.4545  0.0443 -1.4256
    4FIC     N638349   6.024   7.161   7.824 -0.6931 -0.0888 -1.0937
    4FIC    C1938350   6.274   7.358   7.698 -0.4641  0.0371 -0.4534
    4FIC    C2038351   6.192   7.453   7.646 -0.3726  0.0880 -0.5051
    4FIC    C2138352   6.249   7.572   7.574 -0.2427  0.1595 -0.2861
    4FIC    C2238353   6.135   7.654   7.532 -0.1673  0.2017 -0.4100
    4FIC    C2338354   6.138   7.774   7.462 -0.0411  0.2714 -0.2865
    4FIC    C2438355   6.016   7.834   7.433  0.0103  0.3004 -0.4452
    4FIC    C2538356   5.895   7.774   7.473 -0.0630  0.2602 -0.7188
    4FIC    C2638357   5.892   7.654   7.543 -0.1889  0.1907 -0.8433
    4FIC    C2738358   6.014   7.592   7.573 -0.2425  0.1605 -0.6859
    4FIC    C2838359   6.045   7.466   7.645 -0.3717  0.0890 -0.7552
    4FIC    C2938360   5.954   7.379   7.700 -0.4711  0.0343 -1.0037
    4FIC    C3038361   5.812   7.401   7.694 -0.4617  0.0401 -1.2349
    4FIC    C3138362   5.993   7.260   7.768 -0.5928 -0.0330 -1.0518
    5FIC     F138363   7.950   8.239   8.140 -0.5900 -0.2599  0.0129
    5FIC     F238364   8.052   8.420   7.965  0.4523 -0.6711  0.1804
    5FIC     O138365   7.718   7.887   7.800 -0.7346  0.2491 -0.4175
    5FIC     N538366   8.034   8.430   7.470  1.8477 -0.8998  0.1143
    5FIC     N638367   7.831   8.119   7.240  1.5247 -0.4191 -0.2558
    5FIC    C1938368   7.733   7.935   7.512  0.2099  0.0370 -0.4104
    5FIC    C2038369   7.787   8.017   7.604  0.2055 -0.0751 -0.3088
    5FIC    C2138370   7.775   7.985   7.751 -0.2956  0.0458 -0.3198
    5FIC    C2238371   7.845   8.093   7.823 -0.1615 -0.1245 -0.1925
    5FIC    C2338372   7.861   8.107   7.960 -0.4973 -0.0923 -0.1557
    5FIC    C2438373   7.931   8.218   8.005 -0.2802 -0.2794 -0.0299
    5FIC    C2538374   7.984   8.312   7.915  0.2570 -0.4910  0.0562
    5FIC    C2638375   7.968   8.298   7.777  0.5944 -0.5245  0.0204
    5FIC    C2738376   7.898   8.186   7.730  0.3815 -0.3371 -0.1068
    5FIC    C2838377   7.864   8.143   7.592  0.6285 -0.3150 -0.1748
    5FIC    C2938378   7.898   8.208   7.476  1.1494 -0.4849 -0.1235
    5FIC    C3038379   7.972   8.330   7.473  1.5315 -0.7124  0.0072
    5FIC    C3138380   7.861   8.158   7.347  1.3529 -0.4478 -0.1966
    1BTD     S238381   2.400   6.527   6.346  0.3826  0.4630 -0.4744
    1BTD     N138382   2.509   6.616   6.458  0.8720  0.6791 -1.1113
    1BTD     N238383   2.504   6.381   6.337 -0.2128 -0.0230  0.2347
    1BTD     N338384   2.914   6.243   6.520 -0.5426 -0.6235  0.5299
    1BTD     N438385   2.920   6.533   6.669  0.7942  0.2419 -1.1289
    1BTD     C538386   2.724   6.569   6.566  0.8152  0.4404 -1.1007
    1BTD     C638387   2.612   6.536   6.481  0.5814  0.3926 -0.7799
    1BTD     C738388   2.610   6.404   6.414 -0.0259 -0.0005 -0.0263
    1BTD     C838389   2.718   6.312   6.434 -0.3688 -0.3260  0.3688
    1BTD    C1538390   2.825   6.349   6.518 -0.1218 -0.2656  0.0329
    1BTD    C1638391   2.828   6.476   6.584  0.4633  0.1130 -0.6933
    1BTD    C4338392   2.998   6.457   6.767  0.7358 -0.0992 -0.3976
    1BTD    C4438393   3.131   6.504   6.822  0.0672 -0.2874  1.1684
    1BTD    C4538394   3.185   6.413   6.928 -0.4009 -0.4706 -0.7335
    1BTD    C4638395   3.085   6.370   7.040 -0.1355  0.1014 -0.7231
    1BTD    C4738396   3.237   6.540   6.710  0.4932 -0.1106 -0.0011
    1BTD    C4838397   3.383   6.547   6.754 -0.1395  0.3004 -0.0095
    1BTD    C4938398   3.487   6.587   6.648  0.8814 -0.0969  0.5043
    1BTD    C5038399   3.584   6.498   6.572 -0.2891 -0.2836  0.0590
    1BTD    C7538400   3.066   6.236   6.565  0.8943 -0.9557 -0.3826
    1BTD    C7638401   3.122   6.101   6.597  0.0835  0.6840 -0.7672
    1BTD    C7738402   3.282   6.092   6.589  0.7360 -0.7579  0.2574
    1BTD    C7838403   3.352   6.131   6.460  0.6857 -1.2368  1.2291
    1BTD    C7938404   3.093   6.035   6.748  0.8818 -0.0249 -0.2010
    1BTD    C8038405   3.116   5.891   6.780  0.5000  0.2780 -0.4078
    1BTD    C8138406   3.016   5.833   6.901  0.6277 -1.1295  0.6078
    1BTD    C8238407   3.090   5.875   7.030  0.4250 -1.3493  0.7415
    2TTP     S138408   2.678   6.843   6.651  0.0004 -0.4053  0.2512
    2TTP     S538409   3.071   6.835   6.826  0.2945  0.5603 -0.3487
    2TTP     C138410   3.007   7.005   6.837 -0.0848  0.4150 -0.3015
    2TTP     C238411   2.881   7.017   6.783 -0.1979  0.1081 -0.1136
    2TTP     C338412   2.832   6.893   6.732  0.0107 -0.0231  0.0001
    2TTP     C438413   2.743   6.674   6.640  0.3796 -0.2596  0.2042
    2TTP    C1738414   2.868   6.661   6.694  0.4928  0.0471  0.0162
    2TTP    C1838415   2.918   6.785   6.745  0.2840  0.1782 -0.0975
    2TTP    C3238416   2.787   7.145   6.801 -0.0813 -0.8229  0.3682
    2TTP    C3338417   2.682   7.197   6.701 -0.6741  0.4324  1.5671
    2TTP    C3438418   2.639   7.343   6.715 -0.1208  1.1675  0.7101
    2TTP    C3538419   2.623   7.401   6.569  1.0889 -0.2304  0.1114
    2TTP    C3638420   2.582   7.548   6.600  0.3968 -0.1348  0.3655
    2TTP    C3738421   2.699   7.648   6.573  1.1468  1.1375  0.2247
    2TTP    C3838422   2.802   7.638   6.474 -1.1387  0.2923 -0.5347
    2TTP    C3938423   2.765   7.655   6.328  0.2162  0.5131  1.0233
    2TTP    C4038424   2.861   7.599   6.223 -0.1495  0.4088  1.3476
    2TTP    C4138425   2.912   7.444   6.215  0.7113 -0.9412 -0.1866
    2TTP    C4238426   3.026   7.399   6.313 -1.6207 -0.0340  0.2732
    3TTP     S138427   2.698   6.124   6.224 -0.0844 -0.3364  0.3660
    3TTP     S538428   3.108   6.012   6.293  0.2087  0.6101  0.2050
    3TTP     C138429   3.061   5.960   6.125  0.3208  0.6653  0.1561
    3TTP     C238430   2.932   5.991   6.094  0.2368  0.3763  0.2031
    3TTP     C338431   2.865   6.058   6.202  0.0810  0.1007  0.2791
    3TTP     C438432   2.745   6.176   6.392 -0.1965 -0.3918  0.4150
    3TTP    C1738433   2.875   6.145   6.423 -0.1126 -0.1028  0.3681
    3TTP    C1838434   2.941   6.078   6.316  0.0432  0.1727  0.2918
    3TTP    C3238435   2.852   5.967   5.964 -0.3729 -0.4341  0.2431
    3TTP    C3338436   2.805   6.107   5.900  0.6126  1.7619  0.2785
    3TTP    C3438437   2.666   6.152   5.894 -0.7282 -0.4064 -0.4852
    3TTP    C3538438   2.568   6.046   5.862  1.3655 -0.9779 -0.4255
    3TTP    C3638439   2.425   6.093   5.815  0.0300  0.6564  0.8092
    3TTP    C3738440   2.338   6.096   5.940 -0.3860  0.0496 -0.7281
    3TTP    C3838441   2.211   6.174   5.921  0.7328 -0.7951  0.8493
    3TTP    C3938442   2.130   6.172   6.057  1.0928  0.4112  0.6618
    3TTP    C4038443   2.020   6.280   6.064 -0.9916  0.9540  1.2672
    3TTP    C4138444   1.943   6.318   6.195 -0.2130  0.9315  1.5991
    3TTP    C4238445   1.809   6.378   6.146  0.2255 -0.4777 -1.3535
    4FIC     F138446   3.808   7.158   6.992  0.1632  0.2307  0.1762
    4FIC     F238447   3.765   7.412   6.904  0.2102  0.1184 -0.1755
    4FIC     O138448   3.310   6.949   6.952  0.2077  0.1453  0.0654
    4FIC     N538449   3.347   7.628   6.749  0.3095 -0.1044 -0.7608
    4FIC     N638450   2.967   7.413   6.736  0.3348 -0.1484 -0.7764
    4FIC    C1938451   3.092   7.117   6.854  0.2685  0.0074 -0.3103
    4FIC    C2038452   3.219   7.160   6.867  0.2554  0.0333 -0.2687
    4FIC    C2138453   3.326   7.067   6.919  0.2241  0.1047 -0.0721
    4FIC    C2238454   3.451   7.145   6.921  0.2169  0.1162 -0.0759
    4FIC    C2338455   3.577   7.102   6.960  0.1904  0.1751  0.0732
    4FIC    C2438456   3.681   7.194   6.954  0.1888  0.1743  0.0353
    4FIC    C2538457   3.658   7.325   6.908  0.2130  0.1162 -0.1460
    4FIC    C2638458   3.532   7.368   6.868  0.2396  0.0575 -0.2954
    4FIC    C2738459   3.426   7.277   6.875  0.2416  0.0572 -0.2601
    4FIC    C2838460   3.283   7.291   6.840  0.2662  0.0041 -0.3856
    4FIC    C2938461   3.221   7.404   6.792  0.2938 -0.0602 -0.5741
    4FIC    C3038462   3.291   7.527   6.769  0.3023 -0.0843 -0.6760
    4FIC    C3138463   3.081   7.408   6.761  0.3163 -0.1085 -0.6844
    5FIC     F138464   3.817   5.649   6.093 -0.5013 -0.9427 -0.4981
    5FIC     F238465   3.825   5.711   5.828 -0.3547  0.4513 -0.1842
    5FIC     O138466   3.314   5.802   6.220 -0.4601 -1.2971  0.1017
    5FIC     N538467   3.477   5.909   5.538 -0.1146  2.2027  0.6946
    5FIC     N638468   3.082   6.016   5.690 -0.1119  1.6450  1.1002
    5FIC    C1938469   3.142   5.916   6.012 -0.3054 -0.0914  0.6147
    5FIC    C2038470   3.268   5.875   5.990 -0.3215 -0.0566  0.4514
    5FIC    C2138471   3.350   5.818   6.102 -0.4025 -0.6995  0.1910
    5FIC    C2238472   3.482   5.784   6.045 -0.3996 -0.4783  0.0644
    5FIC    C2338473   3.591   5.728   6.110 -0.4606 -0.8917 -0.1800
    5FIC    C2438474   3.705   5.704   6.035 -0.4438 -0.5647 -0.2586
    5FIC    C2538475   3.709   5.736   5.898 -0.3681  0.1533 -0.0966
    5FIC    C2638476   3.600   5.792   5.832 -0.3071  0.5691  0.1476
    5FIC    C2738477   3.484   5.816   5.907 -0.3230  0.2475  0.2304
    5FIC    C2838478   3.353   5.874   5.868 -0.2720  0.5352  0.4748
    5FIC    C2938479   3.317   5.918   5.743 -0.1938  1.2193  0.6829
    5FIC    C3038480   3.405   5.913   5.630 -0.1506  1.7577  0.6886
    5FIC    C3138481   3.187   5.972   5.714 -0.1492  1.4493  0.9112
    1BTD     S238482   2.649   5.194   9.531  0.1143 -0.0545 -0.0474
    1BTD     N138483   2.814   5.258   9.558  0.2760 -0.1037 -0.8438
    1BTD     N238484   2.701   5.022   9.527 -0.1024 -0.1395  0.6504
    1BTD     N338485   3.105   4.788   9.571 -0.2520 -0.4019  0.6342
    1BTD     N438486   3.245   5.079   9.609  0.2143 -0.3581 -1.2071
    1BTD     C538487   3.037   5.161   9.585  0.2382 -0.2370 -1.0111
    1BTD     C638488   2.895   5.154   9.564  0.1658 -0.1773 -0.5631
    1BTD     C738489   2.832   5.021   9.546 -0.0460 -0.1973  0.2735
    1BTD     C838490   2.913   4.903   9.551 -0.1749 -0.2759  0.6194
    1BTD    C1538491   3.052   4.915   9.571 -0.0975 -0.3324  0.1583
    1BTD    C1638492   3.113   5.043   9.588  0.1065 -0.3133 -0.6476
    1BTD    C4338493   3.368   5.005   9.591 -0.1897  0.5175  0.8457
    1BTD    C4438494   3.496   5.019   9.514 -1.2524 -0.5372  0.8913
    1BTD    C4538495   3.473   5.103   9.375  1.2919  0.2657  0.0004
    1BTD    C4638496   3.592   5.176   9.326 -0.7641  0.6998 -0.2338
    1BTD    C4738497   3.602   4.904   9.536  0.3252 -0.9950 -0.2869
    1BTD    C4838498   3.713   4.942   9.638 -0.0422  0.5522  0.0459
    1BTD    C4938499   3.664   4.923   9.783 -0.7857 -0.4696  1.2374
    1BTD    C5038500   3.797   4.922   9.872  0.9329 -0.4932 -0.1969
    1BTD    C7538501   3.219   4.752   9.668  0.8976  0.3602 -0.4301
    1BTD    C7638502   3.249   4.605   9.719  0.2445 -1.1471  0.4522
    1BTD    C7738503   3.389   4.594   9.778  0.4920 -0.3763 -0.1978
    1BTD    C7838504   3.501   4.568   9.678  1.1157 -1.9428  0.4549
    1BTD    C7938505   3.127   4.538   9.789 -1.3855  1.0178  0.2508
    1BTD    C8038506   3.166   4.391   9.846  1.7442  0.2669 -1.7883
    1BTD    C8138507   3.138   4.288   9.745  0.8456  1.1208  0.0757
    1BTD    C8238508   3.177   4.131   9.759 -0.5191 -0.3439 -0.5575
    2TTP     S138509   3.111   5.449   9.597  0.0287 -0.2237 -0.1619
    2TTP     S538510   3.497   5.330   9.745  0.3309  0.5711 -0.3004
    2TTP     C138511   3.484   5.512   9.755 -0.0648  0.5423 -0.2351
    2TTP     C238512   3.365   5.559   9.710 -0.1814  0.2952 -0.1886
    2TTP     C338513   3.278   5.454   9.666  0.0376  0.1196 -0.2029
    2TTP     C438514   3.123   5.268   9.587  0.4244 -0.1949 -0.2272
    2TTP    C1738515   3.243   5.221   9.632  0.5411  0.0521 -0.2741
    2TTP    C1838516   3.330   5.326   9.676  0.3221  0.2278 -0.2596
    2TTP    C3238517   3.323   5.709   9.703 -0.7376  0.2386 -0.6441
    2TTP    C3338518   3.229   5.767   9.809  0.1021  0.2244  0.4861
    2TTP    C3438519   3.182   5.896   9.761  0.2115  0.5395  1.0588
    2TTP    C3538520   3.049   5.947   9.822  1.5263 -0.4166 -0.1000
    2TTP    C3638521   3.048   6.094   9.796 -1.1281  0.4753 -1.2726
    2TTP    C3738522   3.044   6.137   9.660  0.0340 -0.3358  1.4335
    2TTP    C3838523   2.895   6.162   9.634 -1.1220  0.1626  0.6436
    2TTP    C3938524   2.862   6.262   9.509 -0.4921 -1.2997 -1.4924
    2TTP    C4038525   2.715   6.332   9.517 -0.2981 -0.8507  0.7038
    2TTP    C4138526   2.703   6.409   9.377 -1.2757 -0.6993 -1.5276
    2TTP    C4238527   2.645   6.556   9.397 -0.2553  0.4483  0.6232
    3TTP     S138528   2.747   4.687   9.458 -0.5469 -0.5178  0.3660
    3TTP     S538529   3.103   4.463   9.365 -0.1690  0.3994 -0.4230
    3TTP     C138530   2.962   4.387   9.278 -0.1355  0.1447 -0.2565
    3TTP     C238531   2.844   4.452   9.302 -0.2502 -0.1534 -0.0031
    3TTP     C338532   2.860   4.563   9.390 -0.3688 -0.1919  0.0687
    3TTP     C438533   2.888   4.763   9.545 -0.5804 -0.2632  0.1991
    3TTP    C1738534   3.006   4.698   9.521 -0.4656  0.0350 -0.0545
    3TTP    C1838535   2.990   4.586   9.434 -0.3472  0.0730 -0.1261
    3TTP    C3238536   2.693   4.418   9.275 -0.9185  0.8977  0.8002
    3TTP    C3338537   2.622   4.390   9.391  0.3032  0.5975  0.2516
    3TTP    C3438538   2.469   4.358   9.351 -0.4844 -1.7668  0.3529
    3TTP    C3538539   2.387   4.463   9.280  0.2092 -0.3337 -0.8082
    3TTP    C3638540   2.393   4.582   9.388 -0.1126 -0.3751  1.4128
    3TTP    C3738541   2.350   4.729   9.354 -0.0575  0.7098 -0.4639
    3TTP    C3838542   2.399   4.812   9.229  0.4518  0.4777 -0.9549
    3TTP    C3938543   2.539   4.860   9.235  0.1919  0.5640  1.1194
    3TTP    C4038544   2.565   4.978   9.150 -1.4120  0.6902  0.7774
    3TTP    C4138545   2.720   4.990   9.153 -0.3858  0.2426  0.9254
    3TTP    C4238546   2.773   4.887   9.048  0.2325  0.0789 -2.0054
    4FIC     F138547   4.136   5.410  10.245 -0.3099 -0.0149  0.1845
    4FIC     F238548   4.247   5.632  10.134 -0.3349  0.1017  0.3905
    4FIC     O138549   3.664   5.388   9.980  0.1180 -0.3986 -0.5512
    4FIC     N538550   4.071   5.935   9.785 -0.0657 -0.0044  0.1626
    4FIC     N638551   3.680   5.873   9.600  0.2737 -0.3278 -0.4537
    4FIC    C1938552   3.603   5.592   9.779  0.2461 -0.4237 -0.6154
    4FIC    C2038553   3.717   5.589   9.850  0.1395 -0.3315 -0.4385
    4FIC    C2138554   3.741   5.481   9.952  0.0792 -0.3250 -0.4172
    4FIC    C2238555   3.874   5.507  10.010 -0.0342 -0.2148 -0.2072
    4FIC    C2338556   3.940   5.434  10.109 -0.1207 -0.1705 -0.1161
    4FIC    C2438557   4.065   5.478  10.148 -0.2208 -0.0637  0.0852
    4FIC    C2538558   4.122   5.592  10.091 -0.2336 -0.0040  0.1909
    4FIC    C2638559   4.057   5.666   9.993 -0.1477 -0.0474  0.1013
    4FIC    C2738560   3.931   5.623   9.951 -0.0456 -0.1553 -0.1023
    4FIC    C2838561   3.836   5.678   9.851  0.0606 -0.2249 -0.2403
    4FIC    C2938562   3.856   5.789   9.773  0.0819 -0.1959 -0.1934
    4FIC    C3038563   3.974   5.869   9.780  0.0007 -0.0906  0.0019
    4FIC    C3138564   3.759   5.835   9.678  0.1873 -0.2686 -0.3366
    5FIC     F138565   3.426   3.746   9.411  0.4629  0.1611 -0.1166
    5FIC     F238566   3.435   3.705   9.143  0.1153 -0.2233 -0.0722
    5FIC     O138567   3.083   4.165   9.438  0.1658 -0.0728 -0.2451
    5FIC     N538568   3.205   3.943   8.775 -0.5962 -0.9427 -0.0999
    5FIC     N638569   2.936   4.278   8.850 -0.7583 -1.0481 -0.2093
    5FIC    C1938570   2.971   4.274   9.191 -0.2718 -0.5232 -0.2482
    5FIC    C2038571   3.057   4.170   9.194 -0.1835 -0.4493 -0.2179
    5FIC    C2138572   3.110   4.120   9.325  0.0426 -0.2155 -0.2182
    5FIC    C2238573   3.200   4.007   9.294  0.0874 -0.1904 -0.1807
    5FIC    C2338574   3.273   3.929   9.383  0.2763 -0.0026 -0.1678
    5FIC    C2438575   3.351   3.828   9.329  0.2811 -0.0185 -0.1316
    5FIC    C2538576   3.356   3.806   9.191  0.1018 -0.2167 -0.1085
    5FIC    C2638577   3.283   3.884   9.101 -0.0871 -0.4048 -0.1211
    5FIC    C2738578   3.204   3.987   9.154 -0.0951 -0.3919 -0.1583
    5FIC    C2838579   3.116   4.086   9.087 -0.2686 -0.5590 -0.1795
    5FIC    C2938580   3.094   4.098   8.952 -0.4699 -0.7739 -0.1676
    5FIC    C3038581   3.155   4.013   8.855 -0.5386 -0.8661 -0.1302
    5FIC    C3138582   3.007   4.197   8.897 -0.6273 -0.9234 -0.1905
    1BTD     S238583   1.865   5.462   7.685  0.6823  0.1640 -0.6908
    1BTD     N138584   2.002   5.346   7.686  1.3964  0.9923 -0.2639
    1BTD     N238585   1.849   5.469   7.864 -0.3192 -0.3715 -0.7416
    1BTD     N338586   2.067   5.273   8.231 -1.0710  0.0333 -0.0746
    1BTD     N438587   2.255   5.122   8.012  1.0430  1.7138  0.5140
    1BTD     C538588   2.132   5.231   7.859  1.1864  1.3489  0.1352
    1BTD     C638589   2.028   5.320   7.813  0.8782  0.8354 -0.1854
    1BTD     C738590   1.943   5.388   7.913 -0.0820  0.0719 -0.4528
    1BTD     C838591   1.965   5.365   8.053 -0.6861 -0.1398 -0.3862
    1BTD    C1538592   2.068   5.277   8.093 -0.3546  0.3814 -0.0686
    1BTD    C1638593   2.150   5.211   7.997  0.5707  1.1168  0.1890
    1BTD    C4338594   2.338   5.077   8.122  0.6988  0.1546  0.4013
    1BTD    C4438595   2.479   5.124   8.143  0.2664 -0.2565 -1.4701
    1BTD    C4538596   2.570   5.049   8.241  1.1231  0.7046 -0.3297
    1BTD    C4638597   2.589   4.904   8.206  1.0509 -0.9072  0.1521
    1BTD    C4738598   2.478   5.275   8.155  0.3436 -0.3710  0.6851
    1BTD    C4838599   2.611   5.323   8.121 -1.7196 -0.2282 -1.1713
    1BTD    C4938600   2.679   5.302   7.979 -0.3512 -0.0427 -0.5038
    1BTD    C5038601   2.583   5.368   7.874 -1.1006  0.6413  0.3342
    1BTD    C7538602   2.138   5.192   8.333  0.3015  0.5628 -0.0661
    1BTD    C7638603   2.091   5.050   8.406  0.3478 -0.0250  1.3474
    1BTD    C7738604   2.046   4.952   8.313 -2.1106 -0.4991  1.1362
    1BTD    C7838605   1.987   4.816   8.355 -0.3566  0.3203  0.5002
    1BTD    C7938606   2.175   5.013   8.519  0.5535 -0.3745 -0.0118
    1BTD    C8038607   2.180   5.132   8.625 -1.1541  0.4948  0.2071
    1BTD    C8138608   2.248   5.104   8.762  0.4787  0.4399  0.5645
    1BTD    C8238609   2.402   5.079   8.768 -0.3939 -0.6336  0.5019
    2TTP     S138610   2.305   5.141   7.627 -0.0185  0.1650 -0.2584
    2TTP     S538611   2.477   4.838   7.879  0.4505  0.2956 -0.4200
    2TTP     C138612   2.543   4.818   7.711 -0.0589  0.0471 -0.5961
    2TTP     C238613   2.494   4.911   7.623 -0.2337 -0.0080 -0.5566
    2TTP     C338614   2.402   5.001   7.686  0.0283  0.1442 -0.3858
    2TTP     C438615   2.238   5.161   7.795  0.4908  0.4137 -0.0823
    2TTP    C1738616   2.288   5.068   7.883  0.6656  0.4687 -0.1217
    2TTP    C1838617   2.380   4.979   7.821  0.4036  0.3165 -0.2927
    2TTP    C3238618   2.548   4.948   7.483 -0.2819  0.4981 -1.7444
    2TTP    C3338619   2.440   4.907   7.384  0.7180 -0.9057  1.1069
    2TTP    C3438620   2.446   4.995   7.254  0.7911  1.3388 -0.1260
    2TTP    C3538621   2.358   4.963   7.116 -0.0645  1.1251 -1.7542
    2TTP    C3638622   2.409   4.963   6.978 -0.3870 -0.3154  0.4438
    2TTP    C3738623   2.549   4.924   6.926  0.3923 -0.5166 -0.9778
    2TTP    C3838624   2.564   5.019   6.796  0.2247 -0.0223  1.4262
    2TTP    C3938625   2.579   4.952   6.657 -0.7360  0.6274  0.9264
    2TTP    C4038626   2.614   4.803   6.632  0.0593  0.3542 -0.1311
    2TTP    C4138627   2.613   4.780   6.490  0.2232  0.7308  1.6161
    2TTP    C4238628   2.687   4.651   6.459 -1.4967  0.0235 -0.1750
    3TTP     S138629   1.740   5.488   8.211  0.1235  0.0317 -0.2626
    3TTP     S538630   1.900   5.306   8.566 -0.1002  0.2534 -0.0477
    3TTP     C138631   1.738   5.377   8.606 -0.2335  0.0686 -0.2545
    3TTP     C238632   1.679   5.438   8.499 -0.1723 -0.0108 -0.3328
    3TTP     C338633   1.760   5.430   8.381 -0.0179  0.0716 -0.2327
    3TTP     C438634   1.903   5.416   8.171  0.2568  0.2167 -0.0563
    3TTP    C1738635   1.962   5.356   8.279  0.1956  0.2960  0.0226
    3TTP    C1838636   1.881   5.364   8.396  0.0412  0.2137 -0.0777
    3TTP    C3238637   1.533   5.501   8.515  0.5203  0.2077  0.1644
    3TTP    C3338638   1.430   5.459   8.430 -0.7127  1.5940  0.2514
    3TTP    C3438639   1.297   5.531   8.445  0.1542  0.9978 -0.8433
    3TTP    C3538640   1.172   5.455   8.385  0.3536 -0.2424  1.5157
    3TTP    C3638641   1.157   5.298   8.380 -0.2438 -0.3659  0.4061
    3TTP    C3738642   1.205   5.206   8.258 -0.5400  0.0291 -0.6185
    3TTP    C3838643   1.260   5.075   8.318  1.0127  0.8822  1.3277
    3TTP    C3938644   1.398   5.034   8.362 -0.1640  0.3795 -0.5506
    3TTP    C4038645   1.429   5.074   8.511  0.4260 -0.4803  0.8170
    3TTP    C4138646   1.360   4.978   8.604  0.7521 -0.6286 -0.9421
    3TTP    C4238647   1.236   5.042   8.668  0.5555  0.8386 -0.1272
    4FIC     F138648   3.000   4.205   8.045  0.1301  0.1278  0.2332
    4FIC     F238649   3.037   4.107   7.795  0.0750 -0.0719  0.3030
    4FIC     O138650   2.704   4.646   7.939  0.0662  0.0175 -0.0479
    4FIC     N538651   2.879   4.279   7.358 -0.0497 -0.4371  0.2033
    4FIC     N638652   2.640   4.643   7.326 -0.0885 -0.4832 -0.0306
    4FIC    C1938653   2.634   4.708   7.662 -0.0091 -0.2122 -0.0808
    4FIC    C2038654   2.707   4.601   7.698  0.0092 -0.1768 -0.0130
    4FIC    C2138655   2.739   4.576   7.843  0.0479 -0.0572 -0.0002
    4FIC    C2238656   2.819   4.452   7.847  0.0594 -0.0473  0.0790
    4FIC    C2338657   2.872   4.389   7.960  0.0929  0.0478  0.1171
    4FIC    C2438658   2.945   4.273   7.939  0.0975  0.0369  0.1921
    4FIC    C2538659   2.964   4.222   7.810  0.0690 -0.0659  0.2281
    4FIC    C2638660   2.911   4.285   7.697  0.0354 -0.1609  0.1907
    4FIC    C2738661   2.837   4.403   7.716  0.0303 -0.1518  0.1144
    4FIC    C2838662   2.769   4.492   7.619 -0.0016 -0.2356  0.0592
    4FIC    C2938663   2.765   4.477   7.483 -0.0348 -0.3462  0.0727
    4FIC    C3038664   2.828   4.368   7.415 -0.0429 -0.3958  0.1444
    4FIC    C3138665   2.696   4.568   7.397 -0.0642 -0.4208  0.0159
    5FIC     F138666   2.108   5.405   9.338 -0.0739  1.2069  0.1266
    5FIC     F238667   1.870   5.340   9.452  0.3081 -0.5449 -0.0267
    5FIC     O138668   1.965   5.440   8.817 -0.2951  1.6855  0.2182
    5FIC     N538669   1.426   5.270   9.245  0.6996 -2.7221 -0.1826
    5FIC     N638670   1.363   5.310   8.815  0.4497 -1.9950 -0.0801
    5FIC    C1938671   1.687   5.390   8.741 -0.0087  0.1820  0.1039
    5FIC    C2038672   1.732   5.383   8.868  0.0320  0.1301  0.0868
    5FIC    C2138673   1.877   5.411   8.899 -0.1230  0.9323  0.1488
    5FIC    C2238674   1.892   5.396   9.045 -0.0302  0.6456  0.1106
    5FIC    C2338675   2.008   5.411   9.120 -0.1159  1.1579  0.1447
    5FIC    C2438676   1.998   5.392   9.257  0.0015  0.7397  0.0967
    5FIC    C2538677   1.875   5.358   9.316  0.1982 -0.1629  0.0176
    5FIC    C2638678   1.759   5.342   9.241  0.2846 -0.6778 -0.0165
    5FIC    C2738679   1.767   5.361   9.102  0.1682 -0.2663  0.0310
    5FIC    C2838680   1.664   5.353   8.996  0.2142 -0.6191  0.0131
    5FIC    C2938681   1.531   5.322   9.013  0.3919 -1.4760 -0.0582
    5FIC    C3038682   1.474   5.293   9.141  0.5604 -2.1582 -0.1264
    5FIC    C3138683   1.439   5.316   8.904  0.4226 -1.7564 -0.0699
    1BTD     S238684   4.924   9.131   4.396  0.3978  0.8355 -0.1725
    1BTD     N138685   4.979   8.961   4.419  0.3414  0.9167  0.6131
    1BTD     N238686   5.083   9.190   4.336  0.2922  0.4158 -0.8897
    1BTD     N338687   5.506   9.003   4.256 -0.0256 -0.2935 -0.9328
    1BTD     N438688   5.378   8.722   4.358  0.0350  0.3235  0.9189
    1BTD     C538689   5.189   8.840   4.386  0.1807  0.5996  0.7505
    1BTD     C638690   5.106   8.957   4.383  0.2513  0.6406  0.3157
    1BTD     C738691   5.165   9.085   4.336  0.2236  0.3605 -0.5255
    1BTD     C838692   5.302   9.089   4.295  0.1270  0.0529 -0.8899
    1BTD    C1538693   5.379   8.971   4.300  0.0603  0.0237 -0.4412
    1BTD    C1638694   5.323   8.848   4.345  0.0869  0.2939  0.3691
    1BTD    C4338695   5.452   8.643   4.253 -1.6690 -1.0277 -0.5552
    1BTD    C4438696   5.486   8.686   4.111 -1.7128  0.0276 -0.1796
    1BTD    C4538697   5.606   8.594   4.059  0.4728 -0.4683  0.8111
    1BTD    C4638698   5.689   8.663   3.949 -0.4539  0.5990 -1.0678
    1BTD    C4738699   5.355   8.685   4.020  0.1019 -0.3028 -0.2346
    1BTD    C4838700   5.290   8.559   3.969  0.6388  0.0405 -1.0226
    1BTD    C4938701   5.203   8.578   3.859 -0.1331 -0.2263 -0.1078
    1BTD    C5038702   5.223   8.484   3.731  0.3572  0.4039 -0.8676
    1BTD    C7538703   5.628   8.940   4.298 -0.1539  0.2631  0.6614
    1BTD    C7638704   5.750   9.040   4.315 -1.2354 -0.0328  0.5332
    1BTD    C7738705   5.874   8.939   4.327 -1.1128 -0.2719 -0.0393
    1BTD    C7838706   5.925   8.877   4.201 -1.7570 -0.0729  0.7208
    1BTD    C7938707   5.717   9.146   4.435 -0.7470  0.2988  0.2112
    1BTD    C8038708   5.838   9.214   4.485 -0.0083  0.1552 -0.8480
    1BTD    C8138709   5.917   9.340   4.408 -0.1571 -0.1219 -0.9705
    1BTD    C8238710   5.838   9.464   4.362  0.4409 -0.7399 -0.1877
    2TTP     S138711   5.031   8.596   4.464  0.2410 -0.0834  1.1220
    2TTP     S538712   5.383   8.355   4.410 -0.4038 -0.7133 -0.3772
    2TTP     C138713   5.245   8.246   4.457 -0.4268 -0.4799  0.1090
    2TTP     C238714   5.128   8.314   4.476 -0.2290 -0.2720  0.6005
    2TTP     C338715   5.143   8.455   4.455 -0.0521 -0.2887  0.6112
    2TTP     C438716   5.169   8.705   4.417  0.2642 -0.3169  0.6360
    2TTP    C1738717   5.286   8.637   4.398  0.0663 -0.5248  0.1444
    2TTP    C1838718   5.271   8.496   4.419 -0.1105 -0.5076  0.1340
    2TTP    C3238719   5.003   8.257   4.504  0.5432 -0.9502 -1.3702
    2TTP    C3338720   4.936   8.312   4.636 -0.4436  0.2922  0.1373
    2TTP    C3438721   4.799   8.245   4.654 -1.8752  0.0952  0.7246
    2TTP    C3538722   4.726   8.325   4.759  0.8400  0.7595 -0.5281
    2TTP    C3638723   4.593   8.260   4.816 -0.9007 -1.4209  0.5206
    2TTP    C3738724   4.617   8.150   4.914  0.0799  1.0901  0.5313
    2TTP    C3838725   4.611   7.997   4.865  1.2565 -0.1118  0.2433
    2TTP    C3938726   4.670   7.890   4.975 -0.4063 -1.5740  1.2713
    2TTP    C4038727   4.813   7.883   5.037 -0.6711 -0.8584  0.0772
    2TTP    C4138728   4.922   7.894   4.931 -0.3931  0.2692 -0.1285
    2TTP    C4238729   4.960   7.776   4.843 -1.6033 -0.0718 -0.0159
    3TTP     S138730   5.325   9.303   4.069 -0.1482 -0.1695 -0.5930
    3TTP     S538731   5.684   9.100   3.946  0.2968  0.3734 -0.2031
    3TTP     C138732   5.634   9.215   3.814  0.0763  0.0542 -0.4000
    3TTP     C238733   5.520   9.284   3.844 -0.0741 -0.1326 -0.5320
    3TTP     C338734   5.468   9.249   3.973 -0.0207 -0.0300 -0.4824
    3TTP     C438735   5.375   9.189   4.201  0.0725  0.1495 -0.3963
    3TTP    C1738736   5.488   9.119   4.171  0.2227  0.3360 -0.2642
    3TTP    C1838737   5.540   9.154   4.043  0.1693  0.2339 -0.3138
    3TTP    C3238738   5.425   9.374   3.756  0.3912  0.0150  0.3640
    3TTP    C3338739   5.465   9.524   3.782  0.9618  0.0973 -0.1800
    3TTP    C3438740   5.380   9.624   3.695  0.9043 -0.5497  0.8735
    3TTP    C3538741   5.336   9.758   3.740  0.3562 -0.2591 -0.2864
    3TTP    C3638742   5.277   9.836   3.634  1.1580  0.9916  0.8454
    3TTP    C3738743   5.258   9.988   3.631  0.3641 -0.8839 -0.5926
    3TTP    C3838744   5.226  10.023   3.491  0.9276 -0.8236 -1.7773
    3TTP    C3938745   5.249  10.169   3.464  0.0610  0.2696  0.1307
    3TTP    C4038746   5.215  10.206   3.324 -0.4764 -1.0629 -0.1448
    3TTP    C4138747   5.271  10.349   3.274 -0.9965  0.6580 -0.0082
    3TTP    C4238748   5.242  10.407   3.139  0.5393 -0.2609 -0.4697
    4FIC     F138749   5.850   7.725   4.626 -0.2803 -0.0036  0.0635
    4FIC     F238750   5.686   7.517   4.564 -0.4691 -0.0999  0.8665
    4FIC     O138751   5.516   8.145   4.553 -0.1792 -0.0422 -0.6289
    4FIC     N538752   5.212   7.517   4.423 -0.6686 -0.2660  1.5277
    4FIC     N638753   4.984   7.887   4.378 -0.5516 -0.2768  0.8246
    4FIC    C1938754   5.240   8.095   4.467 -0.3237 -0.1482 -0.1076
    4FIC    C2038755   5.331   7.998   4.488 -0.3418 -0.1346  0.0349
    4FIC    C2138756   5.471   8.031   4.532 -0.2637 -0.0792 -0.2521
    4FIC    C2238757   5.542   7.903   4.545 -0.3076 -0.0782  0.0021
    4FIC    C2338758   5.675   7.883   4.584 -0.2631 -0.0354 -0.1273
    4FIC    C2438759   5.720   7.752   4.589 -0.3194 -0.0440  0.1702
    4FIC    C2538760   5.635   7.645   4.557 -0.4166 -0.0937  0.5837
    4FIC    C2638761   5.503   7.664   4.519 -0.4613 -0.1365  0.7153
    4FIC    C2738762   5.455   7.796   4.513 -0.4055 -0.1285  0.4183
    4FIC    C2838763   5.322   7.850   4.476 -0.4306 -0.1652  0.4550
    4FIC    C2938764   5.212   7.777   4.439 -0.5190 -0.2176  0.8105
    4FIC    C3038765   5.212   7.634   4.430 -0.6011 -0.2440  1.2034
    4FIC    C3138766   5.087   7.838   4.406 -0.5363 -0.2500  0.8161
    5FIC     F138767   5.879   8.673   3.236 -0.4073 -0.0389 -0.4911
    5FIC     F238768   5.965   8.883   3.087  0.1478 -0.0143 -0.1417
    5FIC     O138769   5.664   8.930   3.662 -0.1239 -0.1628 -0.2722
    5FIC     N538770   5.936   9.369   3.175  1.1479 -0.0670  0.5166
    5FIC     N638771   5.750   9.528   3.538  1.2574 -0.1688  0.6173
    5FIC    C1938772   5.670   9.222   3.670  0.5070 -0.1834  0.1395
    5FIC    C2038773   5.720   9.149   3.569  0.4141 -0.1531  0.0707
    5FIC    C2138774   5.714   8.999   3.572  0.0857 -0.1445 -0.1429
    5FIC    C2238775   5.777   8.952   3.447  0.0635 -0.1101 -0.1674
    5FIC    C2338776   5.795   8.820   3.406 -0.1956 -0.0911 -0.3395
    5FIC    C2438777   5.858   8.800   3.284 -0.1605 -0.0588 -0.3264
    5FIC    C2538778   5.903   8.909   3.207  0.1259 -0.0462 -0.1464
    5FIC    C2638779   5.886   9.040   3.248  0.3853 -0.0648  0.0260
    5FIC    C2738780   5.822   9.063   3.371  0.3542 -0.0975  0.0157
    5FIC    C2838781   5.788   9.189   3.443  0.5811 -0.1237  0.1692
    5FIC    C2938782   5.815   9.316   3.400  0.8872 -0.1209  0.3651
    5FIC    C3038783   5.882   9.345   3.277  1.0294 -0.0911  0.4478
    5FIC    C3138784   5.780   9.432   3.476  1.0892 -0.1469  0.5027
    1BTD     S238785   1.453   0.204   6.907 -0.2378  0.0446  0.4345
    1BTD     N138786   1.472   0.122   6.748 -0.2077 -0.1329  0.5293
    1BTD     N238787   1.279   0.242   6.883 -0.1564  0.2908  0.2285
    1BTD     N338788   0.958   0.173   6.547  0.0639  0.4721 -0.0206
    1BTD     N438789   1.196   0.024   6.381  0.0007 -0.0500  0.3498
    1BTD     C538790   1.325   0.073   6.558 -0.0981 -0.0833  0.4311
    1BTD     C638791   1.354   0.127   6.688 -0.1419 -0.0060  0.4086
    1BTD     C738792   1.246   0.195   6.764 -0.1132  0.2311  0.2403
    1BTD     C838793   1.115   0.204   6.705 -0.0421  0.3792  0.1030
    1BTD    C1538794   1.091   0.149   6.578 -0.0012  0.2961  0.1309
    1BTD    C1638795   1.195   0.084   6.505 -0.0289  0.0676  0.2930
    1BTD    C4338796   1.117   0.041   6.251  0.2414 -0.8892 -0.2675
    1BTD    C4438797   1.154   0.143   6.152  0.2307 -1.1839 -0.1357
    1BTD    C4538798   1.183   0.284   6.214 -0.5087  0.5943  0.1344
    1BTD    C4638799   1.284   0.368   6.132 -0.1095  0.2376  0.2682
    1BTD    C4738800   1.073   0.158   6.024 -0.6087 -0.5643  0.2787
    1BTD    C4838801   1.144   0.103   5.905  0.5019  1.1748  0.0291
    1BTD    C4938802   1.107   0.147   5.761 -0.3953 -1.4914 -0.8490
    1BTD    C5038803   1.150   0.291   5.715 -0.4652  0.1788  0.6874
    1BTD    C7538804   0.868   0.118   6.445  0.9398 -0.1270 -0.7636
    1BTD    C7638805   0.824  -0.041   6.492  0.5729 -1.3246  0.8645
    1BTD    C7738806   0.773  -0.079   6.642 -0.2854  0.5022  1.2312
    1BTD    C7838807   0.633  -0.044   6.701  0.5217 -0.1731  1.2283
    1BTD    C7938808   0.752  -0.109   6.378 -1.1320  0.3483 -0.3552
    1BTD    C8038809   0.831  -0.229   6.323  0.7530  0.2471 -0.0142
    1BTD    C8138810   0.775  -0.260   6.182 -0.5326  0.2701 -0.2066
    1BTD    C8238811   0.862  -0.368   6.114  0.9665 -1.5565  0.1459
    2TTP     S138812   1.572  -0.069   6.432  0.4551  0.7779 -0.4410
    2TTP     S538813   1.325  -0.197   6.104 -0.4388  0.2306  0.4328
    2TTP     C138814   1.496  -0.252   6.073 -0.4576  0.4524 -0.0878
    2TTP     C238815   1.582  -0.216   6.172 -0.1827  0.6344 -0.3883
    2TTP     C338816   1.516  -0.143   6.277  0.0528  0.6053 -0.2182
    2TTP     C438817   1.401  -0.014   6.463  0.4739  0.5560  0.0796
    2TTP    C1738818   1.315  -0.050   6.363  0.1990  0.3736  0.3802
    2TTP    C1838819   1.380  -0.123   6.259 -0.0364  0.4032  0.2100
    2TTP    C3238820   1.729  -0.254   6.198 -0.6449 -0.4670  0.9249
    2TTP    C3338821   1.836  -0.161   6.140  0.2208  0.4976  0.2540
    2TTP    C3438822   1.982  -0.181   6.110 -0.9889 -0.9630  1.4798
    2TTP    C3538823   2.083  -0.076   6.159 -0.0461  1.1535 -0.9033
    2TTP    C3638824   2.117  -0.082   6.310 -0.6960 -0.4609  0.6344
    2TTP    C3738825   2.014  -0.059   6.422  0.6589 -0.1844 -1.9188
    2TTP    C3838826   1.969   0.073   6.453  0.4125 -1.3345  0.2431
    2TTP    C3938827   2.013   0.155   6.575  0.4906 -0.3355 -0.2647
    2TTP    C4038828   1.915   0.241   6.651  0.0691 -0.1994  0.6126
    2TTP    C4138829   1.834   0.172   6.761  0.1046 -1.1341 -0.2510
    2TTP    C4238830   1.767   0.279   6.854 -0.9555 -1.0439 -0.7733
    3TTP     S138831   0.955   0.366   6.888 -0.6271  0.1845 -0.0688
    3TTP     S538832   0.659   0.391   6.578 -0.4441 -0.1084 -0.2683
    3TTP     C138833   0.619   0.514   6.706 -0.5874 -0.0692 -0.3496
    3TTP     C238834   0.709   0.514   6.809 -0.6523  0.0235 -0.2928
    3TTP     C338835   0.811   0.416   6.791 -0.5913  0.0670 -0.1830
    3TTP     C438836   0.995   0.243   6.760 -0.4839  0.1454  0.0125
    3TTP    C1738837   0.905   0.243   6.657 -0.4189  0.0526 -0.0444
    3TTP    C1838838   0.803   0.341   6.675 -0.4799  0.0091 -0.1541
    3TTP    C3238839   0.725   0.595   6.949 -0.6107  1.0609  0.3679
    3TTP    C3338840   0.816   0.727   6.925  0.0430 -1.5523 -0.1667
    3TTP    C3438841   0.831   0.789   7.065  0.1188  0.1053  0.9784
    3TTP    C3538842   0.898   0.914   7.077  0.5283 -0.9194 -1.0458
    3TTP    C3638843   0.792   1.032   7.107 -0.5888 -0.2946 -0.6811
    3TTP    C3738844   0.842   1.177   7.112 -0.0016 -0.3793  0.2627
    3TTP    C3838845   0.795   1.229   7.239 -1.4287 -0.5132  0.6045
    3TTP    C3938846   0.864   1.192   7.362 -0.5786 -0.3737 -0.1197
    3TTP    C4038847   0.829   1.269   7.493 -0.2186 -0.1468 -0.0393
    3TTP    C4138848   0.818   1.183   7.620  0.5907 -1.3789  0.0054
    3TTP    C4238849   0.943   1.128   7.657 -0.6894 -0.7320 -1.6458
    4FIC     F138850   1.159  -0.580   5.395  0.0429 -0.2556  0.1968
    4FIC     F238851   1.370  -0.750   5.380  0.3003  0.0820 -0.0544
    4FIC     O138852   1.295  -0.287   5.830 -0.0122 -0.1783  0.1619
    4FIC     N538853   1.771  -0.788   5.668  0.6312  0.6227 -0.4404
    4FIC     N638854   1.834  -0.525   6.011  0.5362  0.6154 -0.4171
    4FIC    C1938855   1.545  -0.347   5.970  0.2142  0.1719 -0.0906
    4FIC    C2038856   1.503  -0.414   5.862  0.2180  0.1392 -0.0720
    4FIC    C2138857   1.373  -0.377   5.795  0.0975 -0.0443  0.0608
    4FIC    C2238858   1.357  -0.469   5.681  0.1356 -0.0334  0.0466
    4FIC    C2338859   1.252  -0.474   5.589  0.0570 -0.1695  0.1431
    4FIC    C2438860   1.259  -0.569   5.489  0.1150 -0.1271  0.1063
    4FIC    C2538861   1.368  -0.657   5.482  0.2477  0.0469 -0.0231
    4FIC    C2638862   1.473  -0.653   5.572  0.3267  0.1838 -0.1199
    4FIC    C2738863   1.468  -0.557   5.674  0.2697  0.1433 -0.0846
    4FIC    C2838864   1.562  -0.526   5.785  0.3256  0.2563 -0.1626
    4FIC    C2938865   1.680  -0.590   5.812  0.4528  0.4349 -0.2937
    4FIC    C3038866   1.730  -0.699   5.733  0.5504  0.5374 -0.3740
    4FIC    C3138867   1.764  -0.554   5.922  0.4979  0.5331 -0.3608
    5FIC     F138868   0.370   0.943   6.058 -0.3528 -0.1558 -0.4480
    5FIC     F238869   0.154   1.025   6.203  0.2467  0.7510 -0.0445
    5FIC     O138870   0.636   0.649   6.426 -0.3220 -0.3173 -0.5990
    5FIC     N538871   0.034   0.931   6.674  1.1305  1.9396  0.4276
    5FIC     N638872   0.285   0.685   6.932  1.0336  1.6306  0.2282
    5FIC    C1938873   0.525   0.622   6.695  0.2616  0.4917 -0.2673
    5FIC    C2038874   0.466   0.693   6.597  0.2305  0.4969 -0.2451
    5FIC    C2138875   0.530   0.702   6.461 -0.0772  0.0669 -0.4228
    5FIC    C2238876   0.440   0.786   6.379 -0.0297  0.1929 -0.3462
    5FIC    C2338877   0.457   0.823   6.246 -0.2482 -0.0915 -0.4550
    5FIC    C2438878   0.360   0.903   6.189 -0.1487  0.1057 -0.3497
    5FIC    C2538879   0.249   0.945   6.264  0.1603  0.5729 -0.1419
    5FIC    C2638880   0.231   0.908   6.397  0.3796  0.8586 -0.0322
    5FIC    C2738881   0.329   0.827   6.456  0.2832  0.6653 -0.1365
    5FIC    C2838882   0.340   0.771   6.593  0.4553  0.8707 -0.0660
    5FIC    C2938883   0.251   0.790   6.696  0.7640  1.3212  0.1280
    5FIC    C3038884   0.132   0.867   6.683  0.9644  1.6596  0.2919
    5FIC    C3138885   0.271   0.732   6.825  0.9106  1.4888  0.1822
    1BTD     S238886   5.729   4.178   6.789  0.0715  0.7172 -0.3328
    1BTD     N138887   5.618   4.234   6.658 -0.3493  0.1103 -0.2469
    1BTD     N238888   5.806   4.051   6.688  0.4343  0.8951 -0.2801
    1BTD     N338889   5.766   3.893   6.248  0.4135  0.1618 -0.0181
    1BTD     N438890   5.534   4.119   6.211 -0.5519 -0.8051  0.0231
    1BTD     C538891   5.577   4.171   6.425 -0.4435 -0.3561 -0.1066
    1BTD     C638892   5.644   4.159   6.552 -0.2052  0.0734 -0.1867
    1BTD     C738893   5.749   4.056   6.569  0.2334  0.5128 -0.2054
    1BTD     C838894   5.782   3.971   6.458  0.4117  0.5006 -0.1429
    1BTD    C1538895   5.714   3.987   6.336  0.1668  0.0721 -0.0654
    1BTD    C1638896   5.613   4.085   6.320 -0.2558 -0.3511 -0.0473
    1BTD    C4338897   5.505   4.037   6.099  0.0595  0.6875  0.8573
    1BTD    C4438898   5.416   4.093   5.985  0.8522  0.6877 -0.5980
    1BTD    C4538899   5.268   4.086   5.999  1.3717  0.8160 -0.8683
    1BTD    C4638900   5.187   3.965   6.050  0.5091 -1.1808 -0.4934
    1BTD    C4738901   5.481   4.087   5.852 -0.2931  0.6865 -0.8711
    1BTD    C4838902   5.431   4.018   5.733 -0.3237  0.5023  0.0430
    1BTD    C4938903   5.318   4.081   5.671 -0.2307 -1.8977 -0.0982
    1BTD    C5038904   5.339   4.071   5.519 -0.4836 -0.9422  0.3353
    1BTD    C7538905   5.781   3.882   6.102 -0.8447 -0.0018  0.4418
    1BTD    C7638906   5.888   3.931   6.012  0.6751 -1.1519 -0.6308
    1BTD    C7738907   5.942   4.068   6.034  0.7971 -0.4161 -0.9796
    1BTD    C7838908   6.028   4.068   6.147 -0.5779 -0.4293 -0.3292
    1BTD    C7938909   5.879   3.883   5.874 -0.6608  0.6018 -0.4229
    1BTD    C8038910   6.015   3.906   5.798  0.0439  0.0463  0.4178
    1BTD    C8138911   6.072   3.785   5.718  0.5923  0.4972 -1.6799
    1BTD    C8238912   6.225   3.787   5.699 -0.7596 -0.2988  0.9029
    2TTP     S138913   5.453   4.428   6.432 -0.2140  0.3509 -0.3536
    2TTP     S538914   5.505   4.438   6.005  0.0004  0.0242 -0.3362
    2TTP     C138915   5.475   4.608   6.064 -0.1701  0.0513 -0.4981
    2TTP     C238916   5.458   4.614   6.200 -0.2463  0.1537 -0.5130
    2TTP     C338917   5.467   4.486   6.262 -0.1727  0.2146 -0.3972
    2TTP     C438918   5.483   4.258   6.373 -0.0435  0.3239 -0.1916
    2TTP    C1738919   5.501   4.251   6.238  0.0328  0.2215 -0.1767
    2TTP    C1838920   5.492   4.380   6.176 -0.0408  0.1606 -0.2927
    2TTP    C3238921   5.431   4.723   6.313 -1.1946  0.2516 -0.0214
    2TTP    C3338922   5.344   4.858   6.297 -0.3008  0.5703  0.9309
    2TTP    C3438923   5.360   4.976   6.402 -0.1704  0.6322  0.6524
    2TTP    C3538924   5.344   5.125   6.375 -1.1893 -0.3878  1.6354
    2TTP    C3638925   5.199   5.168   6.385  1.8457  0.7448 -0.3348
    2TTP    C3738926   5.209   5.313   6.402 -0.0488 -1.4460 -0.2055
    2TTP    C3838927   5.072   5.393   6.429  0.0162  0.5532  0.2285
    2TTP    C3938928   5.063   5.543   6.436  0.7655 -0.1398  0.1647
    2TTP    C4038929   5.123   5.586   6.576 -0.1381 -0.6174  0.5945
    2TTP    C4138930   5.185   5.719   6.598  0.4957 -0.6755 -0.9772
    2TTP    C4238931   5.294   5.773   6.512 -0.7105 -1.3343 -0.0655
    3TTP     S138932   5.955   3.739   6.549 -0.0619 -0.1236 -0.3443
    3TTP     S538933   5.901   3.541   6.171  0.1209  0.0426 -0.4579
    3TTP     C138934   5.980   3.425   6.287  0.0179 -0.0250 -0.4552
    3TTP     C238935   6.001   3.479   6.410 -0.0445 -0.0803 -0.4199
    3TTP     C338936   5.956   3.615   6.418 -0.0135 -0.0713 -0.3939
    3TTP     C438937   5.876   3.855   6.434  0.0411 -0.0560 -0.3471
    3TTP    C1738938   5.854   3.801   6.310  0.1036 -0.0007 -0.3824
    3TTP    C1838939   5.900   3.666   6.302  0.0725 -0.0097 -0.4085
    3TTP    C3238940   6.081   3.413   6.527  0.5120  0.5930  1.1549
    3TTP    C3338941   6.011   3.301   6.607  1.7846  0.6385  0.7229
    3TTP    C3438942   6.098   3.267   6.721 -0.7232  0.6632 -0.0182
    3TTP    C3538943   6.008   3.196   6.816 -0.2973  0.7955  1.4549
    3TTP    C3638944   6.010   3.045   6.835  0.6655 -0.8778  0.2318
    3TTP    C3738945   6.026   2.930   6.733 -0.5110 -1.7733  0.3915
    3TTP    C3838946   6.130   2.834   6.785  0.2485 -1.3784 -0.5978
    3TTP    C3938947   6.172   2.743   6.671 -0.2265 -1.1234 -0.7801
    3TTP    C4038948   6.247   2.618   6.702  0.3056  0.1188 -0.1806
    3TTP    C4138949   6.115   2.537   6.739 -1.5362  0.4183  0.3634
    3TTP    C4238950   6.147   2.387   6.802 -0.3246  0.0640  0.1396
    4FIC     F138951   6.004   4.797   5.476 -0.0006  0.2124  0.1353
    4FIC     F238952   5.886   5.042   5.456 -0.3891 -0.0117 -0.3455
    4FIC     O138953   5.710   4.574   5.872  0.1161  0.3866  0.3210
    4FIC     N538954   5.507   5.234   5.708 -0.8644 -0.2096 -0.9044
    4FIC     N638955   5.300   5.010   6.022 -0.6950 -0.0284 -0.6624
    4FIC    C1938956   5.492   4.728   5.993 -0.2136  0.2345 -0.0725
    4FIC    C2038957   5.571   4.775   5.894 -0.2279  0.1993 -0.1004
    4FIC    C2138958   5.681   4.689   5.837 -0.0517  0.2826  0.1106
    4FIC    C2238959   5.746   4.770   5.732 -0.1179  0.2167  0.0180
    4FIC    C2338960   5.853   4.733   5.651 -0.0068  0.2573  0.1464
    4FIC    C2438961   5.898   4.827   5.559 -0.1019  0.1783  0.0193
    4FIC    C2538962   5.837   4.953   5.549 -0.3022  0.0630 -0.2281
    4FIC    C2638963   5.730   4.990   5.629 -0.4139  0.0222 -0.3576
    4FIC    C2738964   5.684   4.897   5.723 -0.3203  0.1006 -0.2322
    4FIC    C2838965   5.573   4.905   5.822 -0.3957  0.0854 -0.3147
    4FIC    C2938966   5.490   5.012   5.843 -0.5850 -0.0154 -0.5457
    4FIC    C3038967   5.499   5.134   5.769 -0.7380 -0.1220 -0.7422
    4FIC    C3138968   5.386   5.010   5.941 -0.6444 -0.0219 -0.6086
    5FIC     F138969   5.820   2.889   5.675  0.5555 -0.2324 -0.3108
    5FIC     F238970   5.983   2.709   5.797 -0.8903 -0.9016  0.6856
    5FIC     O138971   5.846   3.303   6.023  1.1048  0.1445 -0.7967
    5FIC     N538972   6.236   2.745   6.221 -2.5773 -1.5951  1.7722
    5FIC     N638973   6.223   3.105   6.468 -1.8567 -1.1657  1.1914
    5FIC    C1938974   6.011   3.278   6.263 -0.0814 -0.3609 -0.0172
    5FIC    C2038975   5.998   3.181   6.171 -0.1632 -0.4296  0.0662
    5FIC    C2138976   5.912   3.201   6.050  0.4728 -0.1561 -0.3539
    5FIC    C2238977   5.920   3.077   5.971  0.1960 -0.3160 -0.1354
    5FIC    C2338978   5.857   3.049   5.850  0.5845 -0.1636 -0.3794
    5FIC    C2438979   5.880   2.924   5.794  0.2049 -0.3668 -0.0935
    5FIC    C2538980   5.964   2.831   5.858 -0.5398 -0.7115  0.4197
    5FIC    C2638981   6.027   2.859   5.978 -0.9308 -0.8653  0.6654
    5FIC    C2738982   6.005   2.985   6.036 -0.5558 -0.6637  0.3827
    5FIC    C2838983   6.056   3.045   6.162 -0.8062 -0.7471  0.5268
    5FIC    C2938984   6.142   2.986   6.252 -1.5013 -1.0592  0.9972
    5FIC    C3038985   6.193   2.853   6.235 -2.0905 -1.3527  1.4216
    5FIC    C3138986   6.186   3.051   6.370 -1.6928 -1.1159  1.1014
    1BTD     S238987   8.647  10.515   0.462 -0.4518 -0.1217  0.1855
    1BTD     N138988   8.473  10.544   0.496 -0.3443  0.5751  0.1757
    1BTD     N238989   8.632  10.542   0.285 -0.4444 -0.6847  0.0949
    1BTD     N338990   8.287  10.649  -0.014 -0.2353 -0.5751 -0.1073
    1BTD     N438991   8.091  10.651   0.246 -0.1121  0.9773 -0.0078
    1BTD     C538992   8.276  10.600   0.362 -0.2248  0.7660  0.0787
    1BTD     C638993   8.415  10.571   0.380 -0.3104  0.3629  0.1089
    1BTD     C738994   8.505  10.570   0.262 -0.3662 -0.3424  0.0637
    1BTD     C838995   8.449  10.598   0.132 -0.3338 -0.6089 -0.0095
    1BTD    C1538996   8.312  10.626   0.119 -0.2493 -0.1952 -0.0367
    1BTD    C1638997   8.226  10.627   0.233 -0.1958  0.4844  0.0068
    1BTD    C4338998   8.029  10.783   0.203 -0.5968  1.5247 -0.0873
    1BTD    C4438999   8.114  10.906   0.153  1.7322  0.0784 -0.1335
    1BTD    C4539000   8.234  10.945   0.250 -0.5177  0.5749 -0.2425
    1BTD    C4639001   8.231  10.965   0.408  0.4673 -0.1645  0.3194
    1BTD    C4739002   7.993  11.005   0.135 -0.3503 -0.6117 -1.1322
    1BTD    C4839003   8.035  11.146   0.104  0.3586 -0.3237  0.2212
    1BTD    C4939004   7.907  11.242   0.075  0.3966 -0.5394 -0.3794
    1BTD    C5039005   7.806  11.235  -0.032 -0.0892  0.7291  1.6087
    1BTD    C7539006   8.156  10.659  -0.091 -1.7161  0.2242 -0.5543
    1BTD    C7639007   8.108  10.531  -0.146 -1.2164 -1.0742  0.8187
    1BTD    C7739008   8.104  10.404  -0.063  0.7836 -1.0371 -0.2158
    1BTD    C7839009   8.217  10.299  -0.050 -0.1017  0.4728  0.0170
    1BTD    C7939010   7.991  10.560  -0.244  0.4580 -0.8479 -1.2476
    1BTD    C8039011   7.839  10.537  -0.209 -0.0106 -0.4220 -1.7653
    1BTD    C8139012   7.757  10.560  -0.329 -1.0342  0.3214  0.4845
    1BTD    C8239013   7.754  10.475  -0.453 -0.3142  0.7954  0.9983
    2TTP     S139014   8.130  10.602   0.629 -0.1450 -0.1224 -0.6701
    2TTP     S539015   7.750  10.637   0.430 -0.1534 -0.3085 -0.6876
    2TTP     C139016   7.720  10.617   0.609 -0.1506 -0.2834 -0.6842
    2TTP     C239017   7.836  10.605   0.681 -0.1477 -0.2241 -0.6786
    2TTP     C339018   7.952  10.611   0.597 -0.1479 -0.1969 -0.6767
    2TTP     C439019   8.159  10.622   0.451 -0.1483 -0.1476 -0.6735
    2TTP    C1739020   8.044  10.634   0.379 -0.1511 -0.2065 -0.6791
    2TTP    C1839021   7.928  10.628   0.462 -0.1507 -0.2339 -0.6809
    2TTP    C3239022   7.857  10.564   0.824 -0.0774  1.2184 -1.0241
    2TTP    C3339023   7.945  10.626   0.922  0.3972 -0.3222  0.4475
    2TTP    C3439024   7.880  10.698   1.037  0.2699 -1.3232 -0.4599
    2TTP    C3539025   7.959  10.715   1.166 -0.2152  1.2924  0.6768
    2TTP    C3639026   8.065  10.820   1.207 -0.8315 -0.2851 -0.0924
    2TTP    C3739027   8.013  10.966   1.205  0.4179 -1.4531 -1.4887
    2TTP    C3839028   7.940  11.045   1.106  1.6011 -0.9323  0.9001
    2TTP    C3939029   8.041  11.069   0.999  1.6866  0.4595 -0.0945
    2TTP    C4039030   8.097  11.206   0.975  0.1535 -2.0313  0.4845
    2TTP    C4139031   8.176  11.214   0.835 -1.0525 -1.5378 -1.3976
    2TTP    C4239032   8.316  11.168   0.870 -0.6475  0.2475  1.2379
    3TTP     S139033   8.668  10.602  -0.077 -0.2480 -0.3961 -0.2556
    3TTP     S539034   8.399  10.752  -0.377 -0.0215 -0.1209 -0.3221
    3TTP     C139035   8.567  10.747  -0.447 -0.1360 -1.0828 -0.5584
    3TTP     C239036   8.660  10.700  -0.359 -0.2131 -1.2243 -0.5515
    3TTP     C339037   8.602  10.667  -0.232 -0.1838 -0.5784 -0.3600
    3TTP     C439038   8.500  10.607  -0.007 -0.1330  0.5655 -0.0193
    3TTP    C1739039   8.407  10.653  -0.096 -0.0560  0.7068 -0.0262
    3TTP    C1839040   8.465  10.687  -0.222 -0.0854  0.0613 -0.2182
    3TTP    C3239041   8.815  10.714  -0.374  0.0932 -0.0053  0.5332
    3TTP    C3339042   8.862  10.847  -0.299  0.3317  0.6991 -0.8423
    3TTP    C3439043   8.864  10.980  -0.353  0.2252 -0.1918 -0.1896
    3TTP    C3539044   8.927  11.110  -0.277  0.0351  0.1238  0.2882
    3TTP    C3639045   8.996  11.114  -0.149 -0.3861 -0.1057  1.3647
    3TTP    C3739046   9.110  11.012  -0.104  0.2052 -0.5535  0.3388
    3TTP    C3839047   9.241  11.020  -0.204  0.5571 -0.6070 -0.1616
    3TTP    C3939048   9.353  10.917  -0.165  0.0718  0.0560  0.1890
    3TTP    C4039049   9.381  10.824  -0.273  1.1951  0.3090  1.5337
    3TTP    C4139050   9.485  10.829  -0.394  0.9397  1.1073 -0.9691
    3TTP    C4239051   9.558  10.955  -0.455 -0.2546  0.1000  0.3214
    4FIC     F139052   6.940  10.688   0.364 -0.4524 -0.6015 -0.1801
    4FIC     F239053   6.868  10.707   0.626 -0.2936  0.8390 -0.2223
    4FIC     O139054   7.475  10.623   0.410 -0.5139 -1.0822 -0.1332
    4FIC     N539055   7.146  10.687   1.035 -0.1093  2.5678 -0.2495
    4FIC     N639056   7.579  10.633   1.017 -0.1893  1.9019 -0.2043
    4FIC    C1939057   7.597  10.618   0.676 -0.3840  0.1233 -0.1568
    4FIC    C2039058   7.465  10.634   0.654 -0.3748  0.1879 -0.1670
    4FIC    C2139059   7.410  10.635   0.514 -0.4444 -0.4568 -0.1537
    4FIC    C2239060   7.264  10.654   0.527 -0.4138 -0.1986 -0.1698
    4FIC    C2339061   7.170  10.662   0.424 -0.4562 -0.6006 -0.1653
    4FIC    C2439062   7.038  10.680   0.461 -0.4143 -0.2371 -0.1833
    4FIC    C2539063   7.001  10.689   0.596 -0.3325  0.5052 -0.2050
    4FIC    C2639064   7.094  10.681   0.698 -0.2899  0.9093 -0.2096
    4FIC    C2739065   7.229  10.663   0.664 -0.3313  0.5510 -0.1916
    4FIC    C2839066   7.351  10.651   0.747 -0.3040  0.8183 -0.1907
    4FIC    C2939067   7.356  10.655   0.885 -0.2278  1.5159 -0.2086
    4FIC    C3039068   7.241  10.673   0.967 -0.1630  2.0916 -0.2310
    4FIC    C3139069   7.479  10.643   0.957 -0.2069  1.7245 -0.2061
    5FIC     F139070   8.166  11.089  -1.078  0.1862  0.0503  0.7651
    5FIC     F239071   8.399  11.091  -1.218 -0.0632 -0.1283  0.3424
    5FIC     O139072   8.325  10.860  -0.614  0.7553 -0.4914  0.3066
    5FIC     N539073   8.849  10.930  -1.087 -0.0165 -0.7706 -0.5925
    5FIC     N639074   8.926  10.751  -0.697  0.4787 -1.1580 -0.8655
    5FIC    C1939075   8.605  10.781  -0.582  0.7190 -0.8541 -0.2603
    5FIC    C2039076   8.556  10.838  -0.694  0.5856 -0.7110 -0.1285
    5FIC    C2139077   8.411  10.876  -0.702  0.6146 -0.5288  0.1631
    5FIC    C2239078   8.391  10.936  -0.836  0.4435 -0.4044  0.2427
    5FIC    C2339079   8.273  10.986  -0.890  0.4051 -0.2210  0.4945
    5FIC    C2439080   8.279  11.037  -1.019  0.2332 -0.1316  0.5220
    5FIC    C2539081   8.399  11.038  -1.090  0.1054 -0.2237  0.3039
    5FIC    C2639082   8.517  10.988  -1.037  0.1426 -0.4067  0.0525
    5FIC    C2739083   8.513  10.936  -0.907  0.3157 -0.4997  0.0207
    5FIC    C2839084   8.619  10.876  -0.822  0.3982 -0.6919 -0.2165
    5FIC    C2939085   8.752  10.859  -0.857  0.3157 -0.8259 -0.4690
    5FIC    C3039086   8.805  10.898  -0.984  0.1333 -0.7954 -0.5360
    5FIC    C3139087   8.847  10.800  -0.768  0.4058 -1.0078 -0.6857
    1BTD     S239088   0.276   5.544   5.015  0.4467  0.1062 -0.0696
    1BTD     N139089   0.235   5.612   5.177  0.3112  0.1255 -0.1117
    1BTD     N239090   0.119   5.458   4.996  0.4571  0.1154 -0.1966
    1BTD     N339091  -0.273   5.404   5.248  0.2339  0.1688 -0.5306
    1BTD     N439092  -0.130   5.594   5.471  0.0541  0.1813 -0.4261
    1BTD     C539093   0.042   5.600   5.328  0.1791  0.1544 -0.2770
    1BTD     C639094   0.113   5.569   5.206  0.2823  0.1371 -0.2128
    1BTD     C739095   0.048   5.483   5.105  0.3638  0.1315 -0.2602
    1BTD     C839096  -0.084   5.432   5.130  0.3383  0.1434 -0.3697
    1BTD    C1539097  -0.149   5.465   5.250  0.2369  0.1602 -0.4297
    1BTD    C1639098  -0.087   5.549   5.348  0.1578  0.1656 -0.3839
    1BTD    C4339099  -0.190   5.493   5.566  0.6603 -0.1805 -1.0166
    1BTD    C4439100  -0.272   5.528   5.699  0.3154 -0.2403  0.3622
    1BTD    C4539101  -0.165   5.566   5.817  1.3463 -0.6078 -0.2689
    1BTD    C4639102  -0.043   5.471   5.841  0.6526 -0.5625  0.6722
    1BTD    C4739103  -0.388   5.616   5.666  0.5329  0.0483  1.3294
    1BTD    C4839104  -0.487   5.655   5.775 -0.4797 -0.5008  0.2607
    1BTD    C4939105  -0.607   5.718   5.722  0.0723 -0.3097 -0.0256
    1BTD    C5039106  -0.592   5.825   5.627 -1.4421  0.2388  0.3064
    1BTD    C7539107  -0.377   5.406   5.354  2.0254 -0.3586  0.8496
    1BTD    C7639108  -0.501   5.491   5.339 -0.3960  1.2295  1.2960
    1BTD    C7739109  -0.619   5.462   5.422 -1.8636  0.3773 -1.0285
    1BTD    C7839110  -0.684   5.314   5.436 -0.3352 -1.2999  0.4605
    1BTD    C7939111  -0.501   5.637   5.282 -0.6959 -0.9374  1.3038
    1BTD    C8039112  -0.600   5.660   5.150  0.3181 -0.1878 -0.5512
    1BTD    C8139113  -0.599   5.530   5.054  0.9717 -0.5936 -1.6659
    1BTD    C8239114  -0.709   5.567   4.959  0.2914  0.1030 -0.8825
    2TTP     S139115   0.179   5.829   5.471  0.3569 -0.5795  0.6176
    2TTP     S539116  -0.188   5.899   5.685 -0.2673  0.4433 -0.7554
    2TTP     C139117  -0.073   6.034   5.722  0.1386 -0.0963  0.0093
    2TTP     C239118   0.047   6.021   5.658  0.3552 -0.4439  0.4783
    2TTP     C339119   0.053   5.903   5.578  0.2084 -0.2968  0.2507
    2TTP     C439120   0.064   5.694   5.434 -0.0489 -0.0398 -0.1470
    2TTP    C1739121  -0.056   5.707   5.498 -0.2655  0.3077 -0.6161
    2TTP    C1839122  -0.062   5.825   5.578 -0.1190  0.1606 -0.3885
    2TTP    C3239123   0.160   6.127   5.670  0.0817  0.9937 -0.6299
    2TTP    C3339124   0.305   6.069   5.729  1.0057  0.0429  0.9411
    2TTP    C3439125   0.321   6.070   5.878  0.0647  0.0173  0.1157
    2TTP    C3539126   0.430   6.149   5.944 -0.8039  0.1010 -0.6505
    2TTP    C3639127   0.573   6.066   5.932  0.8913 -1.0076 -0.1482
    2TTP    C3739128   0.707   6.137   5.889  0.4861 -0.1146  0.4557
    2TTP    C3839129   0.714   6.301   5.914 -0.7642  2.1024 -0.1359
    2TTP    C3939130   0.746   6.316   6.065 -1.1238 -1.1168  0.9492
    2TTP    C4039131   0.725   6.466   6.118  0.7744 -0.5588  0.0642
    2TTP    C4139132   0.826   6.518   6.228  1.2298 -0.8201  0.9876
    2TTP    C4239133   0.813   6.486   6.370 -0.2626 -2.0289 -0.5552
    3TTP     S139134  -0.162   5.231   4.917 -0.1271 -0.0869 -0.1665
    3TTP     S539135  -0.519   5.166   5.147  0.2806 -0.6207  0.3192
    3TTP     C139136  -0.511   5.040   5.016  0.5855 -0.9730  0.6705
    3TTP     C239137  -0.400   5.053   4.937  0.4776 -0.8287  0.5412
    3TTP     C339138  -0.318   5.162   4.977  0.1500 -0.4352  0.1601
    3TTP     C439139  -0.170   5.357   5.048 -0.4320  0.2651 -0.5176
    3TTP    C1739140  -0.281   5.344   5.127 -0.3241  0.1209 -0.3885
    3TTP    C1839141  -0.363   5.235   5.087  0.0033 -0.2726 -0.0073
    3TTP    C3239142  -0.394   4.993   4.800 -0.9630  1.1896  1.0079
    3TTP    C3339143  -0.285   5.004   4.686 -0.1739  0.1000 -0.0137
    3TTP    C3439144  -0.154   4.924   4.705  0.0539  0.2016 -0.6923
    3TTP    C3539145  -0.108   4.850   4.831 -0.2714 -0.4900  0.9093
    3TTP    C3639146   0.042   4.794   4.827 -0.0314  0.9196 -0.9208
    3TTP    C3739147   0.156   4.902   4.844 -0.3847 -1.4723  0.7844
    3TTP    C3839148   0.146   4.995   4.965 -0.4200 -0.1697  1.0274
    3TTP    C3939149   0.194   5.135   4.939 -0.6843  0.6858  0.1176
    3TTP    C4039150   0.335   5.176   4.971 -0.1521 -1.1927  0.6136
    3TTP    C4139151   0.416   5.120   5.084  0.5529  0.3793 -0.0089
    3TTP    C4239152   0.423   5.187   5.214 -0.8664 -1.7350 -0.2996
    4FIC     F139153  -0.696   6.200   6.236  0.0265  0.0987 -0.1125
    4FIC     F239154  -0.559   6.420   6.320  0.1516 -0.0815  0.1554
    4FIC     O139155  -0.352   5.999   5.870  0.0153  0.2196 -0.1899
    4FIC     N539156  -0.117   6.592   6.180  0.3242 -0.2542  0.4859
    4FIC     N639157   0.125   6.390   5.877  0.2906 -0.1230  0.3716
    4FIC    C1939158  -0.098   6.137   5.820  0.1313  0.0908  0.0389
    4FIC    C2039159  -0.190   6.179   5.909  0.1295  0.0672  0.0477
    4FIC    C2139160  -0.318   6.102   5.929  0.0677  0.1374 -0.0745
    4FIC    C2239161  -0.395   6.175   6.032  0.0823  0.0895 -0.0294
    4FIC    C2339162  -0.520   6.142   6.083  0.0403  0.1260 -0.1069
    4FIC    C2439163  -0.573   6.227   6.180  0.0651  0.0668 -0.0422
    4FIC    C2539164  -0.502   6.340   6.223  0.1297 -0.0259  0.0961
    4FIC    C2639165  -0.377   6.373   6.172  0.1717 -0.0629  0.1740
    4FIC    C2739166  -0.322   6.289   6.074  0.1476 -0.0041  0.1100
    4FIC    C2839167  -0.194   6.296   6.000  0.1791 -0.0215  0.1628
    4FIC    C2939168  -0.096   6.392   6.014  0.2422 -0.1038  0.2940
    4FIC    C3039169  -0.108   6.501   6.105  0.2871 -0.1861  0.3991
    4FIC    C3139170   0.025   6.390   5.939  0.2682 -0.1140  0.3358
    5FIC     F139171  -1.311   5.149   4.997  0.4268  0.2285 -0.8335
    5FIC     F239172  -1.341   4.883   4.948  0.2885  0.0964 -0.0708
    5FIC     O139173  -0.771   5.189   5.018  0.4454 -0.0091 -0.8742
    5FIC     N539174  -1.000   4.529   4.891  0.1030 -0.2627  0.9967
    5FIC     N639175  -0.572   4.614   4.917  0.1452 -0.4216  0.8112
    5FIC    C1939176  -0.609   4.949   4.978  0.3200 -0.2194 -0.1599
    5FIC    C2039177  -0.743   4.949   4.975  0.3209 -0.1546 -0.1795
    5FIC    C2139178  -0.820   5.077   4.996  0.3872 -0.0474 -0.5575
    5FIC    C2239179  -0.963   5.042   4.986  0.3695  0.0019 -0.4761
    5FIC    C2339180  -1.072   5.127   4.999  0.4144  0.1014 -0.7365
    5FIC    C2439181  -1.198   5.071   4.986  0.3858  0.1311 -0.5921
    5FIC    C2539182  -1.214   4.934   4.960  0.3142  0.0629 -0.1989
    5FIC    C2639183  -1.105   4.848   4.947  0.2692 -0.0365  0.0623
    5FIC    C2739184  -0.976   4.903   4.960  0.2973 -0.0678 -0.0786
    5FIC    C2839185  -0.842   4.841   4.952  0.2646 -0.1668  0.1193
    5FIC    C2939186  -0.815   4.708   4.928  0.1953 -0.2531  0.5059
    5FIC    C3039187  -0.917   4.610   4.908  0.1450 -0.2582  0.7745
    5FIC    C3139188  -0.682   4.657   4.922  0.1683 -0.3455  0.6716
    1BTD     S239189   0.905   1.319   4.673 -0.0641  0.0496 -0.2248
    1BTD     N139190   1.075   1.328   4.732  0.1597 -0.0828 -0.8285
    1BTD     N239191   0.900   1.491   4.621 -0.3453  0.2337  0.3926
    1BTD     N339192   1.195   1.857   4.622 -0.5140  0.3698  0.5608
    1BTD     N439193   1.410   1.655   4.760  0.1082 -0.0202 -0.9440
    1BTD     C539194   1.247   1.501   4.745  0.1253 -0.0454 -0.8707
    1BTD     C639195   1.116   1.452   4.711  0.0206  0.0121 -0.5531
    1BTD     C739196   1.018   1.543   4.649 -0.2621  0.1893  0.1304
    1BTD     C839197   1.056   1.680   4.623 -0.4259  0.3000  0.4621
    1BTD    C1539198   1.186   1.723   4.657 -0.3148  0.2381  0.1316
    1BTD    C1639199   1.280   1.635   4.718 -0.0424  0.0675 -0.5267
    1BTD    C4339200   1.475   1.780   4.795 -0.6837  0.0195  0.1919
    1BTD    C4439201   1.462   1.891   4.917  0.3591  0.2230  1.2710
    1BTD    C4539202   1.319   1.895   4.968 -0.2301 -0.5162 -0.2242
    1BTD    C4639203   1.297   2.008   5.081 -0.2328 -0.4082  0.8751
    1BTD    C4739204   1.546   2.016   4.919 -0.2751 -1.0753  0.8021
    1BTD    C4839205   1.704   2.010   4.911  0.9224  0.8817  0.3906
    1BTD    C4939206   1.779   2.132   4.877  1.0157 -0.7468 -0.6607
    1BTD    C5039207   1.926   2.119   4.915  0.1407  0.0363  0.7617
    1BTD    C7539208   1.316   1.933   4.594  0.0695 -0.7940 -0.0851
    1BTD    C7639209   1.395   1.940   4.461 -0.4865  0.5229  0.0978
    1BTD    C7739210   1.429   1.807   4.413  1.1549  1.1424 -0.4749
    1BTD    C7839211   1.390   1.742   4.278  1.3933  0.9661  0.5033
    1BTD    C7939212   1.516   2.028   4.466  0.5633  0.7986  0.1823
    1BTD    C8039213   1.547   2.058   4.325  0.4458 -0.7634 -0.6325
    1BTD    C8139214   1.674   2.152   4.308  0.4006 -0.6089 -0.4322
    1BTD    C8239215   1.635   2.295   4.274  0.0058  0.5843  0.2148
    2TTP     S139216   1.401   1.281   4.897 -0.2149  0.3149  0.0927
    2TTP     S539217   1.716   1.563   4.977  0.6660 -0.4030 -0.7938
    2TTP     C139218   1.749   1.411   5.071  0.1326 -0.1793 -0.2290
    2TTP     C239219   1.654   1.315   5.052 -0.1708  0.0556  0.0780
    2TTP     C339220   1.551   1.358   4.962  0.0070  0.0674 -0.1216
    2TTP     C439221   1.368   1.434   4.803  0.3185  0.0911 -0.4721
    2TTP    C1739222   1.463   1.529   4.822  0.6219 -0.1437 -0.7791
    2TTP    C1839223   1.566   1.486   4.912  0.4442 -0.1555 -0.5794
    2TTP    C3239224   1.672   1.172   5.079  0.8933 -0.5769  0.5428
    2TTP    C3339225   1.787   1.108   5.010 -0.8213 -0.1857  0.8406
    2TTP    C3439226   1.852   1.112   4.857  1.4319  0.6558  0.3130
    2TTP    C3539227   1.801   1.217   4.735  0.9438  0.2964 -0.4112
    2TTP    C3639228   1.906   1.237   4.630  0.8418  0.6393  0.3369
    2TTP    C3739229   2.020   1.329   4.679  1.0304  1.4238  0.0684
    2TTP    C3839230   2.149   1.320   4.600 -0.6082 -0.5149 -2.2665
    2TTP    C3939231   2.265   1.222   4.641  1.2297 -0.8671 -0.6819
    2TTP    C4039232   2.385   1.261   4.558  0.8980 -0.0452  0.6019
    2TTP    C4139233   2.380   1.323   4.407 -0.6264 -1.2076 -1.1227
    2TTP    C4239234   2.306   1.247   4.303  0.3684 -0.4520 -0.4548
    3TTP     S139235   0.820   1.843   4.525  0.2666 -0.3213 -0.3793
    3TTP     S539236   1.069   2.194   4.525  0.0017 -0.1248  0.8146
    3TTP     C139237   0.898   2.244   4.487  0.1076 -0.2371  0.1661
    3TTP     C239238   0.811   2.139   4.485  0.1957 -0.3044 -0.2409
    3TTP     C339239   0.876   2.015   4.513  0.1826 -0.2698 -0.0551
    3TTP     C439240   0.991   1.793   4.563  0.1607 -0.2090  0.2691
    3TTP    C1739241   1.078   1.899   4.565  0.0727 -0.1417  0.6762
    3TTP    C1839242   1.012   2.023   4.537  0.0857 -0.1764  0.4904
    3TTP    C3239243   0.668   2.147   4.428  0.1783  0.7037  1.3012
    3TTP    C3339244   0.556   2.117   4.548 -1.3223 -0.5891  1.0008
    3TTP    C3439245   0.478   1.991   4.528  0.5159  1.0235 -0.5715
    3TTP    C3539246   0.325   2.028   4.540  0.5705 -0.1063  1.0099
    3TTP    C3639247   0.275   2.006   4.677  0.9890  0.6360 -1.0535
    3TTP    C3739248   0.158   2.088   4.703  0.2717  0.5037 -0.3839
    3TTP    C3839249   0.073   2.031   4.826  0.8711  0.3085 -0.5961
    3TTP    C3939250  -0.043   1.920   4.790 -1.8768  0.5888  1.4118
    3TTP    C4039251  -0.110   1.885   4.916  0.1240 -0.4133  0.1807
    3TTP    C4139252  -0.116   1.748   4.978  0.2848  1.5483  0.5516
    3TTP    C4239253  -0.004   1.725   5.066  0.2718  0.0657  1.2329
    4FIC     F139254   2.479   1.726   4.914  0.3878 -0.3267 -0.1057
    4FIC     F239255   2.546   1.678   5.174  0.1035  0.3028  0.0870
    4FIC     O139256   1.980   1.514   4.898  0.2816 -0.0806 -0.0520
    4FIC     N539257   2.288   1.460   5.535 -0.3810  1.3832  0.4022
    4FIC     N639258   1.885   1.305   5.470 -0.4067  1.4487  0.4051
    4FIC    C1939259   1.868   1.394   5.140 -0.0278  0.6082  0.1510
    4FIC    C2039260   1.991   1.449   5.134  0.0100  0.5217  0.1299
    4FIC    C2139261   2.042   1.509   5.006  0.1716  0.1621  0.0237
    4FIC    C2239262   2.177   1.560   5.034  0.1728  0.1566  0.0275
    4FIC    C2339263   2.264   1.623   4.946  0.2968 -0.1205 -0.0523
    4FIC    C2439264   2.388   1.662   4.996  0.2703 -0.0639 -0.0300
    4FIC    C2539265   2.422   1.638   5.129  0.1237  0.2607  0.0691
    4FIC    C2639266   2.336   1.574   5.218 -0.0006  0.5383  0.1493
    4FIC    C2739267   2.211   1.534   5.170  0.0241  0.4860  0.1283
    4FIC    C2839268   2.097   1.465   5.236 -0.0818  0.7232  0.1951
    4FIC    C2939269   2.092   1.425   5.368 -0.2354  1.0644  0.2979
    4FIC    C3039270   2.200   1.444   5.459 -0.3150  1.2385  0.3548
    4FIC    C3139271   1.979   1.359   5.423 -0.3287  1.2738  0.3563
    5FIC     F139272   1.312   2.919   4.307 -0.0868 -0.1186  0.2062
    5FIC     F239273   1.114   3.064   4.425 -0.3315 -0.0895 -0.2346
    5FIC     O139274   1.112   2.418   4.349  0.3055 -0.2249  0.8444
    5FIC     N539275   0.687   2.915   4.624 -0.4035 -0.1238 -0.4141
    5FIC     N639276   0.570   2.494   4.633 -0.0476 -0.2128  0.1733
    5FIC    C1939277   0.851   2.378   4.476  0.2112 -0.2350  0.6496
    5FIC    C2039278   0.910   2.499   4.461  0.1221 -0.2095  0.5062
    5FIC    C2139279   1.044   2.511   4.394  0.1786 -0.2058  0.6200
    5FIC    C2239280   1.077   2.655   4.395  0.0540 -0.1756  0.4135
    5FIC    C2339281   1.192   2.715   4.344  0.0531 -0.1621  0.4274
    5FIC    C2439282   1.202   2.853   4.355 -0.0781 -0.1332  0.2062
    5FIC    C2539283   1.100   2.927   4.416 -0.2041 -0.1183 -0.0209
    5FIC    C2639284   0.985   2.868   4.467 -0.2039 -0.1315 -0.0358
    5FIC    C2739285   0.973   2.728   4.456 -0.0720 -0.1610  0.1861
    5FIC    C2839286   0.866   2.635   4.500 -0.0352 -0.1811  0.2339
    5FIC    C2939287   0.749   2.669   4.563 -0.1291 -0.1748  0.0591
    5FIC    C3039288   0.715   2.804   4.597 -0.2796 -0.1467 -0.2005
    5FIC    C3139289   0.651   2.573   4.601 -0.0837 -0.1957  0.1229
    1BTD     S239290   5.274   3.090   8.658 -0.0482  0.1417 -0.0103
    1BTD     N139291   5.380   3.196   8.757 -0.2574  0.2483  0.0999
    1BTD     N239292   5.205   3.004   8.800  0.1174 -0.1408 -0.0985
    1BTD     N339293   5.254   3.021   9.266  0.0774 -0.5238 -0.0792
    1BTD     N439294   5.471   3.259   9.213 -0.3843 -0.0445  0.1652
    1BTD     C539295   5.425   3.226   8.996 -0.3179  0.0896  0.1314
    1BTD     C639296   5.359   3.164   8.883 -0.1961  0.0768  0.0670
    1BTD     C739297   5.261   3.056   8.908  0.0137 -0.1410 -0.0441
    1BTD     C839298   5.233   3.015   9.043  0.0910 -0.3350 -0.0856
    1BTD    C1539299   5.300   3.079   9.149 -0.0340 -0.3145 -0.0201
    1BTD    C1639300   5.394   3.183   9.126 -0.2360 -0.1046  0.0874
    1BTD    C4339301   5.519   3.217   9.354 -0.8091 -0.8722  0.2379
    1BTD    C4439302   5.659   3.173   9.400  0.5299 -1.0411  0.2983
    1BTD    C4539303   5.669   3.197   9.556 -0.0534 -0.4831  0.5280
    1BTD    C4639304   5.708   3.347   9.616  0.0955  0.5764  0.1188
    1BTD    C4739305   5.694   3.036   9.356  0.5475  0.8165  0.9849
    1BTD    C4839306   5.630   2.890   9.393  0.2341 -0.1998 -0.5101
    1BTD    C4939307   5.614   2.883   9.537  0.8845  0.1711  0.6538
    1BTD    C5039308   5.645   2.756   9.606  0.6425 -0.5474  0.3887
    1BTD    C7539309   5.212   3.104   9.380  0.9128  0.4389 -1.2784
    1BTD    C7639310   5.065   3.142   9.410  0.4164 -0.9637 -0.3736
    1BTD    C7739311   5.016   3.187   9.554 -1.7889 -0.3128  0.1086
    1BTD    C7839312   5.077   3.111   9.676 -0.2014  0.0412 -1.3255
    1BTD    C7939313   5.001   3.239   9.315 -0.3052  1.6528  0.3063
    1BTD    C8039314   5.084   3.352   9.246 -0.8848  1.2354  0.7234
    1BTD    C8139315   4.964   3.437   9.181  0.3333  0.7711  0.4826
    1BTD    C8239316   5.064   3.510   9.092  0.5814  0.6039 -0.2323
    2TTP     S139317   5.581   3.474   8.905 -0.3420  0.1348 -0.3056
    2TTP     S539318   5.598   3.608   9.314 -0.4618  0.0198 -0.2627
    2TTP     C139319   5.660   3.741   9.206 -0.1607 -0.0553 -0.1835
    2TTP     C239320   5.658   3.707   9.074 -0.1061 -0.0242 -0.1919
    2TTP     C339321   5.608   3.575   9.052 -0.2998  0.0601 -0.2613
    2TTP     C439322   5.519   3.341   9.013 -0.6431  0.2100 -0.3843
    2TTP    C1739323   5.520   3.374   9.145 -0.6978  0.1789 -0.3762
    2TTP    C1839324   5.571   3.506   9.167 -0.5039  0.0946 -0.3066
    2TTP    C3239325   5.674   3.797   8.947 -0.2112  0.5676 -0.6771
    2TTP    C3339326   5.566   3.873   8.877  0.5719  0.2567  0.3023
    2TTP    C3439327   5.558   3.878   8.726  0.2793  1.8726  0.3397
    2TTP    C3539328   5.682   3.880   8.643 -0.1098  0.8203 -0.6111
    2TTP    C3639329   5.712   3.739   8.577  0.6509  0.7096 -0.4613
    2TTP    C3739330   5.616   3.678   8.481  0.3817 -0.7790 -0.7343
    2TTP    C3839331   5.706   3.558   8.429  0.0318 -0.6095 -0.7966
    2TTP    C3939332   5.745   3.436   8.506  0.1660  1.1074 -0.6178
    2TTP    C4039333   5.639   3.344   8.542  1.1957  0.0187 -0.5606
    2TTP    C4139334   5.522   3.287   8.457  0.1176 -0.7633 -1.6821
    2TTP    C4239335   5.566   3.194   8.356  0.1671  0.0884  0.3950
    3TTP     S139336   5.160   2.729   9.056  0.0756  0.4122 -0.2432
    3TTP     S539337   5.185   2.761   9.484 -0.3084  0.5296 -0.2284
    3TTP     C139338   5.192   2.585   9.439 -0.0103  0.5304 -0.1911
    3TTP     C239339   5.184   2.564   9.304  0.1260  0.4942 -0.1936
    3TTP     C339340   5.173   2.687   9.232 -0.0004  0.4646 -0.2246
    3TTP     C439341   5.153   2.905   9.102 -0.2227  0.4115 -0.2801
    3TTP    C1739342   5.160   2.925   9.237 -0.3589  0.4477 -0.2782
    3TTP    C1839343   5.171   2.802   9.309 -0.2326  0.4774 -0.2470
    3TTP    C3239344   5.190   2.434   9.225 -1.6142 -0.5957 -1.4468
    3TTP    C3339345   5.331   2.372   9.205  0.0216  0.8378 -0.2974
    3TTP    C3439346   5.358   2.279   9.097 -0.1851 -0.9306 -0.2887
    3TTP    C3539347   5.279   2.152   9.093 -1.2275 -0.5762 -0.8219
    3TTP    C3639348   5.329   2.005   9.095 -0.8039  0.6119 -0.2801
    3TTP    C3739349   5.262   1.894   9.144 -0.0896  1.0205 -0.7423
    3TTP    C3839350   5.259   1.779   9.045 -0.4654 -0.3346  0.0431
    3TTP    C3939351   5.209   1.631   9.088 -1.7380  0.1022  0.4167
    3TTP    C4039352   5.073   1.603   9.133  0.3451  0.3935 -0.6440
    3TTP    C4139353   5.028   1.631   9.279 -0.5135  0.8269 -0.2473
    3TTP    C4239354   4.890   1.677   9.287  2.0727 -0.5168 -0.5864
    4FIC     F139355   6.085   3.924   9.883  0.4283 -0.2026 -0.4268
    4FIC     F239356   6.091   4.184   9.803 -0.7273  0.0175  0.1662
    4FIC     O139357   5.820   3.695   9.470  0.9640 -0.3480 -0.6909
    4FIC     N539358   5.909   4.395   9.393 -2.0072  0.2304  0.8302
    4FIC     N639359   5.701   4.163   9.087 -1.3555  0.0724  0.5038
    4FIC    C1939360   5.731   3.862   9.247  0.0502 -0.1894 -0.2189
    4FIC    C2039361   5.798   3.910   9.354 -0.0395 -0.1613 -0.1755
    4FIC    C2139362   5.840   3.817   9.465  0.4524 -0.2477 -0.4294
    4FIC    C2239363   5.909   3.901   9.565  0.2061 -0.1895 -0.3059
    4FIC    C2339364   5.967   3.860   9.685  0.4952 -0.2348 -0.4563
    4FIC    C2439365   6.027   3.958   9.763  0.1701 -0.1632 -0.2920
    4FIC    C2539366   6.029   4.092   9.722 -0.4251 -0.0498  0.0139
    4FIC    C2639367   5.973   4.133   9.602 -0.7163 -0.0039  0.1652
    4FIC    C2739368   5.911   4.036   9.521 -0.3946 -0.0752  0.0026
    4FIC    C2839369   5.843   4.046   9.390 -0.5692 -0.0534  0.0947
    4FIC    C2939370   5.824   4.161   9.316 -1.1171  0.0474  0.3765
    4FIC    C3039371   5.871   4.289   9.359 -1.6046  0.1477  0.6251
    4FIC    C3139372   5.757   4.162   9.191 -1.2451  0.0606  0.4451
    5FIC     F139373   5.198   2.495  10.254  0.2266 -0.0159  0.0210
    5FIC     F239374   5.100   2.243  10.222  0.0826  0.0219  0.1628
    5FIC     O139375   5.243   2.653   9.738  0.1231 -0.2574 -0.0627
    5FIC     N539376   4.990   1.994   9.809 -0.1981 -0.0959  0.3076
    5FIC     N639377   5.045   2.169   9.412 -0.2501 -0.2922  0.2134
    5FIC    C1939378   5.165   2.469   9.524 -0.0513 -0.3071  0.0434
    5FIC    C2039379   5.157   2.439   9.655 -0.0196 -0.2478  0.0587
    5FIC    C2139380   5.199   2.539   9.759  0.0707 -0.2257  0.0014
    5FIC    C2239381   5.179   2.475   9.890  0.0842 -0.1595  0.0360
    5FIC    C2339382   5.203   2.528  10.016  0.1582 -0.1191  0.0045
    5FIC    C2439383   5.176   2.448  10.126  0.1558 -0.0583  0.0484
    5FIC    C2539384   5.125   2.319  10.109  0.0817 -0.0389  0.1220
    5FIC    C2639385   5.100   2.264   9.984  0.0076 -0.0790  0.1538
    5FIC    C2739386   5.128   2.344   9.872  0.0088 -0.1407  0.1099
    5FIC    C2839387   5.112   2.317   9.727 -0.0581 -0.1943  0.1266
    5FIC    C2939388   5.066   2.201   9.669 -0.1398 -0.1941  0.1926
    5FIC    C3039389   5.024   2.088   9.746 -0.1715 -0.1401  0.2556
    5FIC    C3139390   5.055   2.184   9.528 -0.2000 -0.2481  0.2036
    1BTD     S239391   9.869   9.073   5.849  0.1948 -0.4571  0.5063
    1BTD     N139392   9.918   9.158   5.699 -0.8657  0.5944  0.7247
    1BTD     N239393  10.014   9.124   5.943  0.8280 -1.0631 -0.1217
    1BTD     N339394  10.398   9.382   5.861  0.2034 -0.3996 -1.0072
    1BTD     N439395  10.280   9.424   5.560 -1.8842  1.6422  0.0358
    1BTD     C539396  10.108   9.296   5.630 -1.3723  1.1168  0.3524
    1BTD     C639397  10.034   9.217   5.724 -0.7019  0.4468  0.3381
    1BTD     C739398  10.088   9.198   5.861  0.2468 -0.4807 -0.1355
    1BTD     C839399  10.213   9.259   5.896  0.4768 -0.6924 -0.5714
    1BTD    C1539400  10.282   9.336   5.801 -0.2023 -0.0144 -0.5399
    1BTD    C1639401  10.231   9.354   5.669 -1.1157  0.8789 -0.0836
    1BTD    C4339402  10.432   9.416   5.525  0.4351 -1.0892  0.3873
    1BTD    C4439403  10.536   9.452   5.405  0.9037  1.4339 -0.5457
    1BTD    C4539404  10.575   9.332   5.317 -0.0169 -0.3864  1.1716
    1BTD    C4639405  10.694   9.238   5.319  1.2721 -0.0308  0.6062
    1BTD    C4739406  10.633   9.553   5.468 -0.7453  1.0141 -0.1499
    1BTD    C4839407  10.766   9.600   5.417  0.1085 -1.2747  0.5711
    1BTD    C4939408  10.749   9.653   5.276  0.1233  0.8378 -0.7898
    1BTD    C5039409  10.887   9.691   5.227 -0.7730 -0.7606 -0.8550
    1BTD    C7539410  10.468   9.503   5.824 -1.2600 -0.0566 -0.2536
    1BTD    C7639411  10.623   9.528   5.858  1.7395 -0.8239  1.1575
    1BTD    C7739412  10.702   9.418   5.781  0.5749  0.2862  0.0622
    1BTD    C7839413  10.849   9.417   5.797  0.0946 -0.3780 -0.7304
    1BTD    C7939414  10.658   9.677   5.812 -0.5520 -2.0968 -1.4923
    1BTD    C8039415  10.792   9.744   5.842 -0.6456  0.3920  0.2388
    1BTD    C8139416  10.782   9.898   5.845 -0.9849 -0.7169 -0.6127
    1BTD    C8239417  10.881  10.011   5.915  0.2509 -1.3397 -1.2779
    2TTP     S139418   9.960   9.306   5.360 -0.2194  0.3960 -0.2099
    2TTP     S539419  10.285   9.537   5.199  0.0095  0.5648  0.4902
    2TTP     C139420  10.155   9.524   5.073  0.0297  1.0096  0.4213
    2TTP     C239421  10.047   9.452   5.115 -0.0398  0.9835  0.2011
    2TTP     C339422  10.063   9.404   5.249 -0.1116  0.6118  0.0787
    2TTP     C439423  10.090   9.318   5.486 -0.2396 -0.0486 -0.1410
    2TTP    C1739424  10.198   9.391   5.444 -0.1705 -0.0226  0.0792
    2TTP    C1839425  10.182   9.438   5.310 -0.0987  0.3493  0.2015
    2TTP    C3239426   9.935   9.400   5.035  0.6545  0.4758 -3.0482
    2TTP    C3339427   9.929   9.348   4.891 -0.2935 -0.4145  0.6638
    2TTP    C3439428   9.956   9.191   4.882 -0.4849 -0.4800 -1.9886
    2TTP    C3539429  10.101   9.145   4.931  0.3926 -0.8407  1.0563
    2TTP    C3639430  10.222   9.180   4.849  0.7987 -1.0385  0.4668
    2TTP    C3739431  10.227   9.101   4.719 -1.1180  0.3226  0.4457
    2TTP    C3839432  10.292   9.164   4.590 -0.2038 -1.8080  0.2484
    2TTP    C3939433  10.426   9.241   4.607  0.2092 -0.8002  0.9711
    2TTP    C4039434  10.465   9.328   4.472  0.0669  0.1402 -1.1538
    2TTP    C4139435  10.357   9.435   4.438  0.8297 -0.6519 -0.1652
    2TTP    C4239436  10.403   9.488   4.291  0.4470  0.7670 -0.9397
    3TTP     S139437  10.286   9.178   6.173  0.0307 -0.6393  0.2600
    3TTP     S539438  10.650   9.404   6.135 -0.3183 -0.1683 -0.3263
    3TTP     C139439  10.647   9.327   6.300  0.1017 -0.2721 -0.3629
    3TTP     C239440  10.534   9.252   6.321  0.2339 -0.4234 -0.1839
    3TTP     C339441  10.447   9.253   6.208  0.0091 -0.4632 -0.0116
    3TTP     C439442  10.290   9.254   6.008 -0.3891 -0.5357  0.2966
    3TTP    C1739443  10.403   9.329   5.986 -0.5217 -0.3842  0.1175
    3TTP    C1839444  10.490   9.328   6.100 -0.2961 -0.3445 -0.0548
    3TTP    C3239445  10.497   9.166   6.435 -0.2798  0.3003 -0.7494
    3TTP    C3339446  10.369   9.203   6.524 -0.7048  0.4440 -0.1266
    3TTP    C3439447  10.349   9.351   6.558 -0.5693 -0.1123  0.5811
    3TTP    C3539448  10.214   9.370   6.616  0.1882  0.6930  0.0537
    3TTP    C3639449  10.161   9.511   6.644 -0.4313 -0.3152 -0.2363
    3TTP    C3739450  10.114   9.527   6.791 -0.8300 -0.4940  0.7345
    3TTP    C3839451   9.985   9.601   6.848 -0.0732  1.2355 -0.3554
    3TTP    C3939452   9.986   9.646   6.985  0.3773 -0.1943  0.1144
    3TTP    C4039453   9.858   9.638   7.062  0.3183  0.4078  0.4023
    3TTP    C4139454   9.781   9.503   7.068 -0.9549 -0.0998  1.2765
    3TTP    C4239455   9.810   9.405   7.171  1.2866  0.3713 -0.1404
    4FIC     F139456  10.802   9.841   4.685 -0.1192  0.0858 -0.6107
    4FIC     F239457  10.637   9.914   4.481 -0.4375  0.2506 -0.2953
    4FIC     O139458  10.454   9.589   5.014  0.3886 -0.1574 -0.2583
    4FIC     N539459  10.151   9.840   4.424 -0.5333  0.3138  0.4097
    4FIC     N639460   9.912   9.629   4.723 -0.0727  0.0901  0.6216
    4FIC    C1939461  10.172   9.570   4.937  0.2647 -0.0864  0.1684
    4FIC    C2039462  10.266   9.630   4.862  0.1493 -0.0317  0.0675
    4FIC    C2139463  10.409   9.636   4.909  0.2236 -0.0734 -0.1519
    4FIC    C2239464  10.484   9.708   4.804  0.0622  0.0052 -0.2140
    4FIC    C2339465  10.620   9.738   4.803  0.0618  0.0012 -0.4041
    4FIC    C2439466  10.669   9.808   4.693 -0.1087  0.0848 -0.4269
    4FIC    C2539467  10.583   9.845   4.588 -0.2721  0.1695 -0.2641
    4FIC    C2639468  10.447   9.816   4.589 -0.2730  0.1740 -0.0743
    4FIC    C2739469  10.396   9.746   4.699 -0.1020  0.0899 -0.0480
    4FIC    C2839470  10.259   9.699   4.731 -0.0548  0.0708  0.1314
    4FIC    C2939471  10.147   9.717   4.653 -0.1771  0.1354  0.3206
    4FIC    C3039472  10.149   9.784   4.528 -0.3726  0.2332  0.3688
    4FIC    C3139473  10.018   9.668   4.692 -0.1190  0.1101  0.4851
    5FIC     F139474  11.211   9.916   6.422 -0.5131  0.3300  0.4950
    5FIC     F239475  11.297   9.778   6.640  0.2940 -0.2334 -0.1650
    5FIC     O139476  10.811   9.594   6.248 -0.5302  0.2949  0.5983
    5FIC     N539477  11.135   9.350   6.830  1.4420 -1.0684 -1.0405
    5FIC     N639478  10.806   9.127   6.650  1.2658 -0.9828 -0.8267
    5FIC    C1939479  10.751   9.348   6.395  0.2349 -0.2560  0.0041
    5FIC    C2039480  10.849   9.435   6.430  0.2074 -0.2253  0.0041
    5FIC    C2139481  10.873   9.559   6.349 -0.1965  0.0651  0.3196
    5FIC    C2239482  10.985   9.630   6.415 -0.1175  0.0222  0.2315
    5FIC    C2339483  11.044   9.750   6.376 -0.3986  0.2291  0.4418
    5FIC    C2439484  11.148   9.798   6.454 -0.2514  0.1368  0.3014
    5FIC    C2539485  11.192   9.726   6.567  0.1642 -0.1537 -0.0387
    5FIC    C2639486  11.134   9.606   6.605  0.4466 -0.3610 -0.2497
    5FIC    C2739487  11.028   9.557   6.528  0.3033 -0.2718 -0.1124
    5FIC    C2839488  10.946   9.434   6.542  0.5195 -0.4354 -0.2656
    5FIC    C2939489  10.958   9.338   6.639  0.9305 -0.7260 -0.5947
    5FIC    C3039490  11.055   9.345   6.744  1.2100 -0.9134 -0.8386
    5FIC    C3139491  10.874   9.222   6.645  1.1127 -0.8657 -0.7204
    1BTD     S239492   8.903  10.016   5.267  0.0833  0.4247  0.6106
    1BTD     N139493   8.763   9.906   5.241  0.1633  0.3514  0.4847
    1BTD     N239494   8.823  10.113   5.396 -0.1519  0.5028  0.4057
    1BTD     N339495   8.405  10.111   5.610 -0.4864  0.5302 -0.2394
    1BTD     N439496   8.332   9.857   5.420 -0.0982  0.3438 -0.1419
    1BTD     C539497   8.539   9.883   5.337  0.0219  0.3495  0.1564
    1BTD     C639498   8.669   9.945   5.325  0.0181  0.3872  0.3057
    1BTD     C739499   8.702  10.061   5.412 -0.1583  0.4721  0.2613
    1BTD     C839500   8.604  10.109   5.505 -0.3221  0.5150  0.0700
    1BTD    C1539501   8.478  10.045   5.513 -0.3116  0.4755 -0.0716
    1BTD    C1639502   8.447   9.934   5.430 -0.1417  0.3940 -0.0288
    1BTD    C4339503   8.239   9.833   5.534 -0.5303  0.3794  0.6375
    1BTD    C4439504   8.297   9.716   5.607 -0.1189  0.6054  0.4784
    1BTD    C4539505   8.200   9.643   5.718 -0.4694 -0.6803 -0.2042
    1BTD    C4639506   8.072   9.564   5.670  0.0768  1.4804 -0.9110
    1BTD    C4739507   8.444   9.697   5.657 -0.3651  0.2811  0.0239
    1BTD    C4839508   8.500   9.776   5.767 -0.4667 -0.2708  1.5746
    1BTD    C4939509   8.642   9.733   5.809 -1.1638 -0.4625  1.5704
    1BTD    C5039510   8.658   9.760   5.942 -1.1633 -0.8211 -0.0262
    1BTD    C7539511   8.255  10.146   5.603 -1.1420  0.9928  0.5571
    1BTD    C7639512   8.178  10.226   5.708  0.3241 -0.1063  1.0089
    1BTD    C7739513   8.097  10.343   5.645 -0.4318 -0.1526 -0.5814
    1BTD    C7839514   8.035  10.448   5.737 -0.1664  0.2707 -0.5685
    1BTD    C7939515   8.095  10.123   5.781 -0.0865 -0.0481 -1.1316
    1BTD    C8039516   7.942  10.133   5.747 -1.2173  1.4340  1.0448
    1BTD    C8139517   7.870  10.006   5.729 -0.1494  0.8680 -0.3695
    1BTD    C8239518   7.877   9.895   5.830  0.8015 -0.7790  0.2266
    2TTP     S139519   8.496   9.676   5.111 -0.2099 -0.1995 -0.6644
    2TTP     S539520   8.090   9.625   5.244 -0.1628  0.4911 -0.2518
    2TTP     C139521   8.116   9.522   5.097 -0.3892  0.1840 -0.0790
    2TTP     C239522   8.242   9.531   5.047 -0.4170 -0.0474 -0.1963
    2TTP     C339523   8.324   9.620   5.123 -0.2608  0.0098 -0.4268
    2TTP     C439524   8.470   9.779   5.258  0.0165  0.1075 -0.8373
    2TTP    C1739525   8.343   9.769   5.308  0.0440  0.3393 -0.7199
    2TTP    C1839526   8.262   9.680   5.232 -0.1125  0.2820 -0.4895
    2TTP    C3239527   8.295   9.446   4.930  0.3882  0.0069 -0.1130
    2TTP    C3339528   8.414   9.355   4.943 -0.1091 -0.9693 -0.1750
    2TTP    C3439529   8.397   9.212   5.003 -1.2300 -0.9440  0.8581
    2TTP    C3539530   8.541   9.159   5.048  0.9343 -0.4711 -0.8125
    2TTP    C3639531   8.533   9.155   5.210 -0.4849 -0.9010 -0.0730
    2TTP    C3739532   8.495   9.283   5.286  0.4434 -0.1560 -0.4489
    2TTP    C3839533   8.528   9.262   5.428  1.1522 -0.6605 -0.5661
    2TTP    C3939534   8.642   9.169   5.473 -0.5682  0.3074 -0.1177
    2TTP    C4039535   8.779   9.222   5.513  1.2857 -0.3762 -0.6766
    2TTP    C4139536   8.877   9.218   5.406 -0.5510 -0.1396  0.9112
    2TTP    C4239537   8.968   9.107   5.447  0.3451 -0.1318  1.1489
    3TTP     S139538   8.748  10.301   5.673  0.2312  0.1748  0.2872
    3TTP     S539539   8.406  10.318   5.934 -0.2089 -0.0303 -0.2722
    3TTP     C139540   8.546  10.401   6.016 -0.3662 -0.0301 -0.0022
    3TTP     C239541   8.660  10.401   5.940 -0.2391  0.0336  0.1863
    3TTP     C339542   8.641  10.335   5.815 -0.0138  0.0839  0.1245
    3TTP     C439543   8.609  10.218   5.591  0.3884  0.1745  0.0174
    3TTP    C1739544   8.495  10.218   5.667  0.2616  0.1110 -0.1714
    3TTP    C1839545   8.514  10.284   5.792  0.0360  0.0603 -0.1096
    3TTP    C3239546   8.806  10.458   5.964  0.5132  0.9731  1.2810
    3TTP    C3339547   8.907  10.381   6.034  0.2834  0.3899 -0.2832
    3TTP    C3439548   9.035  10.354   5.947  1.2371  0.1305  0.4789
    3TTP    C3539549   9.038  10.210   5.912 -0.6641  0.2299  1.5805
    3TTP    C3639550   9.136  10.181   5.805 -0.9855 -0.5566 -0.2543
    3TTP    C3739551   9.159  10.260   5.662  0.6811  1.2830 -0.9165
    3TTP    C3839552   9.147  10.148   5.551 -0.2472 -0.9188  0.4577
    3TTP    C3939553   9.137  10.193   5.406 -0.0370  0.8177 -0.2211
    3TTP    C4039554   9.253  10.171   5.328 -0.3409 -0.1501 -0.6772
    3TTP    C4139555   9.251  10.265   5.208  1.2781  1.4965 -0.6171
    3TTP    C4239556   9.360  10.248   5.107  0.1022 -0.1297  1.1172
    4FIC     F139557   7.323   9.371   5.247  0.0625 -0.3099  0.5177
    4FIC     F239558   7.306   9.250   5.003 -0.3773  0.3021  0.2396
    4FIC     O139559   7.846   9.510   5.257  0.2501 -0.9866  0.2397
    4FIC     N539560   7.656   9.176   4.660 -0.8761  0.7002 -0.3587
    4FIC     N639561   8.068   9.309   4.717 -0.6411  0.0479 -0.5199
    4FIC    C1939562   8.016   9.444   5.028 -0.1036 -0.6419 -0.1249
    4FIC    C2039563   7.885   9.414   5.035 -0.1336 -0.4954 -0.0441
    4FIC    C2139564   7.804   9.451   5.156  0.0565 -0.6893  0.1436
    4FIC    C2239565   7.667   9.404   5.131 -0.0329 -0.4568  0.1901
    4FIC    C2339566   7.556   9.415   5.214  0.0808 -0.5226  0.3502
    4FIC    C2439567   7.436   9.363   5.169 -0.0395 -0.2624  0.3632
    4FIC    C2539568   7.428   9.301   5.043 -0.2659  0.0529  0.2196
    4FIC    C2639569   7.538   9.289   4.959 -0.3803  0.1199  0.0594
    4FIC    C2739570   7.660   9.341   5.004 -0.2617 -0.1402  0.0439
    4FIC    C2839571   7.794   9.345   4.940 -0.3325 -0.1512 -0.1059
    4FIC    C2939572   7.827   9.295   4.816 -0.5424  0.1078 -0.2699
    4FIC    C3039573   7.733   9.230   4.731 -0.7253  0.4325 -0.3181
    4FIC    C3139574   7.959   9.303   4.762 -0.5953  0.0734 -0.4065
    5FIC     F139575   7.970  10.507   6.593 -0.0024 -0.0007  0.1173
    5FIC     F239576   8.149  10.657   6.733 -0.1521  0.4437 -0.1612
    5FIC     O139577   8.271  10.358   6.168  0.1283 -0.4425  0.3638
    5FIC     N539578   8.621  10.766   6.631 -0.2747  0.7670 -0.3854
    5FIC     N639579   8.820  10.619   6.271 -0.1426  0.3326 -0.1366
    5FIC    C1939580   8.549  10.448   6.151  0.0316 -0.1748  0.1855
    5FIC    C2039581   8.466  10.480   6.252  0.0045 -0.0811  0.1343
    5FIC    C2139582   8.324  10.430   6.254  0.0579 -0.2301  0.2327
    5FIC    C2239583   8.263  10.482   6.377  0.0100 -0.0741  0.1429
    5FIC    C2339584   8.133  10.463   6.422  0.0339 -0.1326  0.1863
    5FIC    C2439585   8.097  10.523   6.542 -0.0220  0.0452  0.0816
    5FIC    C2539586   8.190  10.600   6.614 -0.0991  0.2734 -0.0616
    5FIC    C2639587   8.320  10.620   6.570 -0.1235  0.3333 -0.1056
    5FIC    C2739588   8.358  10.560   6.448 -0.0677  0.1554 -0.0012
    5FIC    C2839589   8.486  10.561   6.374 -0.0744  0.1607 -0.0123
    5FIC    C2939590   8.602  10.626   6.412 -0.1404  0.3524 -0.1349
    5FIC    C3039591   8.612  10.702   6.532 -0.2141  0.5798 -0.2723
    5FIC    C3139592   8.721  10.621   6.334 -0.1411  0.3405 -0.1351
    1BTD     S239593   6.521   9.115   6.902  0.3349 -0.5953  0.3272
    1BTD     N139594   6.586   9.079   6.738  1.1748  0.3626  0.4280
    1BTD     N239595   6.407   9.242   6.845 -0.8085 -1.6265  0.2646
    1BTD     N339596   6.290   9.433   6.432 -1.6216 -1.9977  0.3185
    1BTD     N439597   6.511   9.233   6.301  0.8223  0.4530  0.5199
    1BTD     C539598   6.544   9.162   6.511  0.9613  0.3803  0.4735
    1BTD     C639599   6.522   9.159   6.653  0.5901 -0.1109  0.4106
    1BTD     C739600   6.422   9.250   6.713 -0.5200 -1.2245  0.3191
    1BTD     C839601   6.348   9.339   6.628 -1.2035 -1.7908  0.2952
    1BTD    C1539602   6.373   9.339   6.489 -0.8056 -1.2778  0.3590
    1BTD    C1639603   6.470   9.251   6.432  0.2639 -0.2052  0.4471
    1BTD    C4339604   6.425   9.251   6.182  0.1522  0.7350 -1.1911
    1BTD    C4439605   6.478   9.295   6.053 -1.8236 -0.2800 -0.8794
    1BTD    C4539606   6.595   9.406   6.055 -0.8013 -0.3162  0.6424
    1BTD    C4639607   6.615   9.492   5.923  0.1085  0.2785 -0.8341
    1BTD    C4739608   6.370   9.287   5.944  0.0305  0.6878  1.3901
    1BTD    C4839609   6.291   9.164   5.894 -0.4707  0.0500  0.4043
    1BTD    C4939610   6.172   9.224   5.818 -0.9657 -0.9203 -0.2347
    1BTD    C5039611   6.042   9.145   5.829 -0.2414 -1.1023  0.7128
    1BTD    C7539612   6.314   9.514   6.309 -0.1632  0.0212  0.1837
    1BTD    C7639613   6.374   9.655   6.343  0.3722  0.0757  1.3705
    1BTD    C7739614   6.358   9.764   6.219 -1.2854  0.4305  0.0606
    1BTD    C7839615   6.483   9.742   6.127  0.2557  0.2271  0.3712
    1BTD    C7939616   6.491   9.668   6.436  0.3123  0.3220  0.4366
    1BTD    C8039617   6.506   9.817   6.483 -0.4312  0.2662 -0.9823
    1BTD    C8139618   6.616   9.856   6.574  0.8329 -0.2891  0.3494
    1BTD    C8239619   6.594  10.002   6.584  2.3102 -0.7234  0.8137
    2TTP     S139620   6.753   8.958   6.420  0.3465  0.1760  0.1076
    2TTP     S539621   6.723   9.093   6.013 -0.2576 -0.0560  0.0730
    2TTP     C139622   6.853   8.967   6.023 -0.4369 -0.2554 -0.1041
    2TTP     C239623   6.870   8.918   6.149 -0.2611 -0.1957 -0.1040
    2TTP     C339624   6.781   8.978   6.243  0.0218  0.0103  0.0361
    2TTP     C439625   6.623   9.084   6.411  0.5258  0.3757  0.2846
    2TTP    C1739626   6.606   9.134   6.285  0.3499  0.3160  0.2846
    2TTP    C1839627   6.695   9.073   6.191  0.0670  0.1101  0.1444
    2TTP    C3239628   6.957   8.795   6.194 -0.1853 -1.0128  0.5232
    2TTP    C3339629   7.054   8.825   6.310 -0.4001 -0.7180 -0.4166
    2TTP    C3439630   7.110   8.971   6.344 -0.1009 -0.3789  0.0696
    2TTP    C3539631   7.164   9.043   6.221 -0.9006  0.4615 -1.3219
    2TTP    C3639632   7.252   9.166   6.243  1.0332  0.2856  0.8795
    2TTP    C3739633   7.308   9.262   6.126  1.0677  0.6224 -0.1313
    2TTP    C3839634   7.189   9.327   6.062  0.6047  1.0622  0.5237
    2TTP    C3939635   7.177   9.288   5.914 -1.7497 -0.0811 -0.4871
    2TTP    C4039636   7.145   9.415   5.845 -0.3120  0.9948  1.5220
    2TTP    C4139637   7.206   9.400   5.702 -0.7761 -0.0154 -0.9274
    2TTP    C4239638   7.207   9.546   5.639 -0.5014 -0.7214 -0.3934
    3TTP     S139639   6.142   9.493   6.791  0.2421 -0.5189  0.1534
    3TTP     S539640   5.978   9.656   6.428 -0.1173 -0.0927  0.5038
    3TTP     C139641   5.878   9.714   6.569 -0.1619 -0.5011  0.6460
    3TTP     C239642   5.923   9.668   6.689 -0.0535 -0.6564  0.5461
    3TTP     C339643   6.038   9.584   6.675  0.0688 -0.4590  0.3537
    3TTP     C439644   6.242   9.434   6.651  0.2867 -0.1106  0.0111
    3TTP    C1739645   6.198   9.481   6.531  0.1784  0.0449  0.1110
    3TTP    C1839646   6.083   9.565   6.545  0.0563 -0.1526  0.3035
    3TTP    C3239647   5.873   9.681   6.823  1.7756 -0.1611 -0.0108
    3TTP    C3339648   5.934   9.784   6.908  0.5322  0.0267 -0.0024
    3TTP    C3439649   5.877   9.800   7.045 -0.4336  0.2523 -0.8788
    3TTP    C3539650   5.740   9.869   7.077  0.1185  1.4095  0.9653
    3TTP    C3639651   5.747  10.017   7.026 -0.2388  1.2965 -1.7782
    3TTP    C3739652   5.648  10.097   7.106  0.0243  0.7564  0.2038
    3TTP    C3839653   5.662  10.149   7.242 -0.1418 -1.7380 -0.6555
    3TTP    C3939654   5.800  10.228   7.272 -0.2570 -0.0667 -1.1209
    3TTP    C4039655   5.817  10.285   7.422 -0.6606  0.4450  0.5753
    3TTP    C4139656   5.877  10.168   7.509 -0.7640  0.3450  0.1720
    3TTP    C4239657   5.786  10.080   7.605 -0.4407 -1.8407  0.5542
    4FIC     F139658   6.965   9.179   5.237  0.2717  0.0958  0.2519
    4FIC     F239659   7.216   9.075   5.252  0.2590  0.0300  0.0263
    4FIC     O139660   6.778   9.072   5.734  0.7021  0.1776  0.4315
    4FIC     N539661   7.444   8.851   5.629  0.5478 -0.0060 -0.1698
    4FIC     N639662   7.248   8.788   6.015  0.8864  0.0710  0.0162
    4FIC    C1939663   6.952   8.935   5.925  0.8429  0.1440  0.2800
    4FIC    C2039664   6.989   8.966   5.800  0.7350  0.1261  0.2434
    4FIC    C2139665   6.894   9.037   5.707  0.6682  0.1452  0.3268
    4FIC    C2239666   6.966   9.055   5.579  0.5552  0.1178  0.2592
    4FIC    C2339667   6.919   9.115   5.463  0.4638  0.1228  0.2986
    4FIC    C2439668   7.005   9.120   5.355  0.3653  0.0926  0.2184
    4FIC    C2539669   7.134   9.067   5.363  0.3590  0.0592  0.1024
    4FIC    C2639670   7.182   9.007   5.479  0.4498  0.0536  0.0621
    4FIC    C2739671   7.096   9.000   5.590  0.5502  0.0837  0.1422
    4FIC    C2839672   7.116   8.944   5.725  0.6605  0.0877  0.1280
    4FIC    C2939673   7.229   8.883   5.773  0.6882  0.0603  0.0271
    4FIC    C3039674   7.347   8.865   5.694  0.6109  0.0238 -0.0808
    4FIC    C3139675   7.239   8.831   5.906  0.7973  0.0665  0.0216
    5FIC     F139676   5.207   9.641   6.101 -0.0548 -0.0536 -0.2309
    5FIC     F239677   5.142   9.899   6.158  0.0312 -0.0298 -0.2403
    5FIC     O139678   5.654   9.578   6.399 -0.2284 -0.2773 -0.0163
    5FIC     N539679   5.369  10.225   6.454  0.0312 -0.1562 -0.1010
    5FIC     N639680   5.731  10.124   6.675 -0.1218 -0.3357  0.0684
    5FIC    C1939681   5.752   9.803   6.560 -0.2079 -0.3346  0.0507
    5FIC    C2039682   5.642   9.808   6.483 -0.1675 -0.2789 -0.0029
    5FIC    C2139683   5.598   9.689   6.403 -0.1814 -0.2527 -0.0346
    5FIC    C2239684   5.476   9.729   6.331 -0.1283 -0.1924 -0.0911
    5FIC    C2339685   5.399   9.652   6.244 -0.1200 -0.1509 -0.1355
    5FIC    C2439686   5.287   9.712   6.188 -0.0658 -0.0966 -0.1853
    5FIC    C2539687   5.254   9.845   6.217 -0.0217 -0.0847 -0.1899
    5FIC    C2639688   5.330   9.922   6.304 -0.0296 -0.1259 -0.1459
    5FIC    C2739689   5.444   9.863   6.362 -0.0840 -0.1814 -0.0951
    5FIC    C2839690   5.544   9.917   6.457 -0.1065 -0.2337 -0.0411
    5FIC    C2939691   5.547  10.044   6.510 -0.0763 -0.2396 -0.0290
    5FIC    C3039692   5.449  10.143   6.479 -0.0173 -0.1936 -0.0685
    5FIC    C3139693   5.648  10.088   6.600 -0.1016 -0.2928  0.0246
    1BTD     S239694   5.966   2.426   1.224  0.2347 -0.0648  0.0017
    1BTD     N139695   5.818   2.324   1.227  0.7730 -0.8702 -0.3011
    1BTD     N239696   5.995   2.415   1.401 -0.5518  0.8422  0.2073
    1BTD     N339697   5.789   2.207   1.768 -1.1824  1.2359  0.0795
    1BTD     N439698   5.571   2.095   1.554  0.4500 -0.8740 -0.5470
    1BTD     C539699   5.692   2.205   1.401  0.5848 -0.8467 -0.4219
    1BTD     C639700   5.799   2.288   1.354  0.3603 -0.4438 -0.2367
    1BTD     C739701   5.899   2.340   1.451 -0.3814  0.5148  0.0479
    1BTD     C839702   5.885   2.305   1.590 -0.8613  1.0222  0.1331
    1BTD    C1539703   5.778   2.224   1.631 -0.6181  0.5996 -0.0554
    1BTD    C1639704   5.682   2.175   1.538  0.0964 -0.3239 -0.3295
    1BTD    C4339705   5.547   1.975   1.635  0.2932 -1.4924  0.1151
    1BTD    C4439706   5.631   1.855   1.643 -1.1892  1.0833  0.3061
    1BTD    C4539707   5.784   1.842   1.707 -0.1857  0.7054  2.2559
    1BTD    C4639708   5.880   1.736   1.649 -0.1826 -0.0129  1.1804
    1BTD    C4739709   5.534   1.742   1.698 -0.5363  0.1746  1.7862
    1BTD    C4839710   5.432   1.668   1.598 -1.3477  0.7146  1.0705
    1BTD    C4939711   5.316   1.592   1.643  0.6373  0.3538 -1.2545
    1BTD    C5039712   5.224   1.675   1.724  1.1427 -0.3787 -0.2002
    1BTD    C7539713   5.696   2.178   1.880  0.7642  0.1158  0.3594
    1BTD    C7639714   5.602   2.277   1.959 -0.3859 -0.1076  1.7745
    1BTD    C7739715   5.473   2.224   2.008  0.2987  0.3840 -0.4673
    1BTD    C7839716   5.374   2.139   1.917  0.4063 -1.0258  1.0860
    1BTD    C7939717   5.692   2.348   2.057  0.6896  0.3456 -0.1678
    1BTD    C8039718   5.632   2.472   2.110 -0.0914 -0.0063 -0.1641
    1BTD    C8139719   5.753   2.563   2.137 -0.1863  0.5386  1.0587
    1BTD    C8239720   5.734   2.656   2.253 -0.2616 -0.3359  0.1982
    2TTP     S139721   5.492   2.164   1.176 -0.0999  0.3534  0.0516
    2TTP     S539722   5.224   1.975   1.454  0.2850 -0.5736 -0.1997
    2TTP     C139723   5.142   1.985   1.292  0.0989 -0.1253 -0.0797
    2TTP     C239724   5.220   2.044   1.197 -0.0306  0.1875  0.0049
    2TTP     C339725   5.347   2.083   1.248  0.0120  0.0842 -0.0219
    2TTP     C439726   5.575   2.153   1.338  0.0862 -0.0950 -0.0685
    2TTP    C1739727   5.497   2.094   1.434  0.2159 -0.4077 -0.1530
    2TTP    C1839728   5.369   2.055   1.382  0.1732 -0.3045 -0.1262
    2TTP    C3239729   5.180   2.047   1.048  0.4271 -2.1219 -0.2780
    2TTP    C3339730   5.181   2.191   0.989  0.9580  0.1874  1.2599
    2TTP    C3439731   5.100   2.200   0.850 -1.7166 -0.0964  0.0495
    2TTP    C3539732   5.133   2.338   0.786 -0.4463 -0.2100 -0.3395
    2TTP    C3639733   5.254   2.365   0.690 -0.5836  0.6482  2.1264
    2TTP    C3739734   5.239   2.295   0.544 -0.8931 -0.4530  0.6983
    2TTP    C3839735   5.189   2.405   0.462  0.1434 -0.0640  1.5782
    2TTP    C3939736   5.205   2.390   0.317 -0.7633  1.3050 -0.3147
    2TTP    C4039737   5.124   2.497   0.253 -0.0607 -1.1530  0.0984
    2TTP    C4139738   5.172   2.538   0.107 -0.0163  1.5315 -0.8898
    2TTP    C4239739   5.217   2.677   0.145 -0.2554  0.0696  0.8353
    3TTP     S139740   6.139   2.375   1.736  0.1507  0.1591  0.3836
    3TTP     S539741   5.999   2.174   2.089  0.3114 -0.6091  0.0149
    3TTP     C139742   6.174   2.218   2.113  0.3149 -0.6366  0.0407
    3TTP     C239743   6.227   2.283   2.005  0.2654 -0.4010  0.1560
    3TTP     C339744   6.132   2.300   1.900  0.2230 -0.1903  0.2282
    3TTP     C439745   5.964   2.332   1.712  0.1473  0.1864  0.3578
    3TTP    C1739746   5.910   2.267   1.819  0.1967 -0.0491  0.2425
    3TTP    C1839747   6.006   2.250   1.925  0.2390 -0.2599  0.1703
    3TTP    C3239748   6.373   2.329   1.981  0.2944  0.1060 -0.1080
    3TTP    C3339749   6.511   2.257   2.016  0.1983 -1.1748  0.9910
    3TTP    C3439750   6.572   2.146   1.929  0.1086 -0.8713 -1.1005
    3TTP    C3539751   6.700   2.086   1.985  0.6548  1.4833 -0.5606
    3TTP    C3639752   6.731   1.933   1.967  0.7956 -0.2815  0.2793
    3TTP    C3739753   6.827   1.863   1.867 -0.5240 -1.1220 -1.4915
    3TTP    C3839754   6.879   1.906   1.732  0.9579 -0.7385  0.3180
    3TTP    C3939755   6.963   1.824   1.627  0.7361 -1.5964 -0.8641
    3TTP    C4039756   6.848   1.750   1.535 -0.0019  0.1543 -1.0883
    3TTP    C4139757   6.922   1.703   1.413 -1.2053 -0.0252  0.4305
    3TTP    C4239758   6.845   1.608   1.305  0.6095 -0.2595 -0.7410
    4FIC     F139759   4.529   1.640   1.722  0.5026  0.1380 -0.0492
    4FIC     F239760   4.354   1.739   1.539  0.2801 -0.0974  0.0357
    4FIC     O139761   5.000   1.804   1.511  0.1956  0.5788 -0.3970
    4FIC     N539762   4.437   1.998   1.126 -0.2587 -0.1214 -0.0902
    4FIC     N639763   4.841   2.107   0.998 -0.4537  0.2705 -0.3791
    4FIC    C1939764   5.000   1.957   1.262 -0.1262  0.5106 -0.4395
    4FIC    C2039765   4.889   1.912   1.322 -0.0402  0.4089 -0.3553
    4FIC    C2139766   4.897   1.834   1.450  0.1246  0.4524 -0.3389
    4FIC    C2239767   4.758   1.800   1.488  0.1835  0.3162 -0.2407
    4FIC    C2339768   4.715   1.729   1.599  0.3306  0.3012 -0.1932
    4FIC    C2439769   4.579   1.710   1.614  0.3599  0.1607 -0.1003
    4FIC    C2539770   4.489   1.761   1.519  0.2449  0.0397 -0.0567
    4FIC    C2639771   4.531   1.832   1.408  0.0981  0.0539 -0.1037
    4FIC    C2739772   4.668   1.853   1.392  0.0663  0.1952 -0.1978
    4FIC    C2839773   4.745   1.923   1.286 -0.0758  0.2474 -0.2665
    4FIC    C2939774   4.693   1.987   1.176 -0.2136  0.1622 -0.2507
    4FIC    C3039775   4.553   1.993   1.149 -0.2379  0.0065 -0.1625
    4FIC    C3139776   4.775   2.052   1.079 -0.3450  0.2223 -0.3215
    5FIC     F139777   6.168   1.627   2.662 -0.5809 -0.1890 -0.0817
    5FIC     F239778   6.309   1.789   2.829 -0.3471 -0.4876  0.0114
    5FIC     O139779   6.128   1.943   2.224 -0.4002  0.2420  0.2111
    5FIC     N539780   6.484   2.246   2.757  0.1181 -0.6096  0.3541
    5FIC     N639781   6.424   2.460   2.381  0.2123 -0.2127  0.5641
    5FIC    C1939782   6.249   2.209   2.228 -0.1124  0.1098  0.4040
    5FIC    C2039783   6.253   2.124   2.332 -0.1670  0.0130  0.3268
    5FIC    C2139784   6.189   1.988   2.322 -0.3159  0.0902  0.2298
    5FIC    C2239785   6.212   1.921   2.451 -0.3412 -0.0493  0.1625
    5FIC    C2339786   6.171   1.794   2.489 -0.4641 -0.0398  0.0645
    5FIC    C2439787   6.205   1.752   2.617 -0.4629 -0.1893  0.0154
    5FIC    C2539788   6.278   1.835   2.703 -0.3424 -0.3429  0.0636
    5FIC    C2639789   6.319   1.963   2.666 -0.2193 -0.3534  0.1614
    5FIC    C2739790   6.286   2.007   2.537 -0.2183 -0.2034  0.2123
    5FIC    C2839791   6.314   2.134   2.467 -0.1066 -0.1712  0.3151
    5FIC    C2939792   6.383   2.242   2.517  0.0273 -0.2895  0.3859
    5FIC    C3039793   6.438   2.244   2.649  0.0767 -0.4652  0.3682
    5FIC    C3139794   6.405   2.362   2.442  0.1283 -0.2465  0.4836
    1BTD     S239795   8.647   3.611   3.135  0.0477  0.3288  0.5520
    1BTD     N139796   8.509   3.720   3.101 -0.2828  0.1049  1.1340
    1BTD     N239797   8.568   3.465   3.065  0.4311  0.4242 -0.0964
    1BTD     N339798   8.157   3.366   2.860  0.6156  0.2146 -0.3667
    1BTD     N439799   8.084   3.681   2.904 -0.2644 -0.1790  1.1495
    1BTD     C539800   8.288   3.696   2.997 -0.2625 -0.0386  1.1238
    1BTD     C639801   8.415   3.647   3.042 -0.1001  0.1124  0.8308
    1BTD     C739802   8.449   3.504   3.022  0.2997  0.2912  0.1420
    1BTD     C839803   8.352   3.417   2.959  0.5167  0.3100 -0.2193
    1BTD    C1539804   8.229   3.470   2.917  0.3457  0.1584  0.0876
    1BTD    C1639805   8.197   3.608   2.936 -0.0394 -0.0138  0.7513
    1BTD    C4339806   7.966   3.664   2.824 -0.1545  0.4013  0.3125
    1BTD    C4439807   7.828   3.640   2.879 -0.1757  0.4315 -0.1050
    1BTD    C4539808   7.725   3.644   2.775  1.9085  0.3958  0.2147
    1BTD    C4639809   7.698   3.534   2.688  0.7227  1.3491 -0.3791
    1BTD    C4739810   7.824   3.572   3.023  0.4635  1.0240  0.0879
    1BTD    C4839811   7.699   3.536   3.109 -0.5922  0.4606  1.1728
    1BTD    C4939812   7.730   3.588   3.261  1.3539 -0.0913  0.1659
    1BTD    C5039813   7.797   3.485   3.339  0.4892 -0.3455 -0.3607
    1BTD    C7539814   8.054   3.363   2.757  1.9951 -0.6589  0.2325
    1BTD    C7639815   8.070   3.364   2.599 -0.5649 -1.0832 -0.7057
    1BTD    C7739816   8.181   3.457   2.537  1.2231 -0.4200 -0.0289
    1BTD    C7839817   8.228   3.418   2.390 -0.8610 -0.1762 -0.0593
    1BTD    C7939818   7.940   3.364   2.510  0.4274  0.4128 -0.5898
    1BTD    C8039819   7.860   3.240   2.545 -0.4981 -0.7688  0.7545
    1BTD    C8139820   7.747   3.195   2.457  0.3116  0.9163  1.5400
    1BTD    C8239821   7.761   3.087   2.346  0.4060 -0.2236 -0.6699
    2TTP     S139822   8.257   4.001   3.050 -0.2453  0.2389  0.0893
    2TTP     S539823   7.869   3.984   2.866  0.0288 -0.2134 -0.4562
    2TTP     C139824   7.899   4.155   2.922 -0.4327 -0.2744 -0.0091
    2TTP     C239825   8.021   4.170   2.982 -0.5445 -0.1382  0.1857
    2TTP     C339826   8.095   4.047   2.986 -0.2699  0.0190 -0.0112
    2TTP     C439827   8.227   3.830   2.993  0.2167  0.2999 -0.3579
    2TTP    C1739828   8.105   3.815   2.933  0.3282  0.1638 -0.5527
    2TTP    C1839829   8.032   3.938   2.929  0.0532  0.0064 -0.3558
    2TTP    C3239830   8.087   4.300   3.031 -0.2540  1.2166 -0.4866
    2TTP    C3339831   8.097   4.417   2.939 -0.6259 -0.3356  0.8431
    2TTP    C3439832   8.155   4.537   3.012  1.4820 -0.3741  1.0590
    2TTP    C3539833   8.288   4.551   2.967 -2.3521 -0.4924 -0.3493
    2TTP    C3639834   8.292   4.657   2.852 -0.0095  0.9699 -0.1080
    2TTP    C3739835   8.344   4.794   2.902 -0.1681  0.6855 -0.1561
    2TTP    C3839836   8.488   4.824   2.875 -1.1374 -0.1185 -0.5349
    2TTP    C3939837   8.611   4.735   2.890  0.6949  0.1875 -0.1312
    2TTP    C4039838   8.657   4.738   3.036 -0.5593  0.8129 -0.2367
    2TTP    C4139839   8.804   4.685   3.007 -0.4718 -0.1266 -0.2455
    2TTP    C4239840   8.932   4.782   3.002 -0.7751 -0.7410  0.9527
    3TTP     S139841   8.468   3.140   2.919  0.1046  0.1099  0.0358
    3TTP     S539842   8.097   3.018   2.739  0.1941  0.7350 -0.5851
    3TTP     C139843   8.215   2.880   2.729  0.0183  0.5774 -0.4969
    3TTP     C239844   8.336   2.909   2.784 -0.0198  0.3750 -0.3000
    3TTP     C339845   8.340   3.042   2.836  0.0885  0.3372 -0.2117
    3TTP     C439846   8.350   3.279   2.929  0.2801  0.2674 -0.0524
    3TTP    C1739847   8.228   3.249   2.874  0.3184  0.4697 -0.2493
    3TTP    C1839848   8.224   3.116   2.822  0.2100  0.5077 -0.3377
    3TTP    C3239849   8.460   2.834   2.737 -0.9225 -0.6498 -0.6750
    3TTP    C3339850   8.580   2.854   2.835  0.1599  0.8242  0.2274
    3TTP    C3439851   8.693   2.754   2.785  0.9416 -0.0229  1.4527
    3TTP    C3539852   8.814   2.718   2.860  0.7655 -0.7667  1.4658
    3TTP    C3639853   8.810   2.705   3.022 -0.9441 -1.0159 -0.2250
    3TTP    C3739854   8.933   2.700   3.130  0.7019  0.3013  0.1793
    3TTP    C3839855   9.075   2.727   3.108  1.2831 -0.9349  0.9138
    3TTP    C3939856   9.119   2.850   3.019 -0.1976  0.5382  0.0284
    3TTP    C4039857   9.088   2.999   3.059  1.4578  0.2820 -1.1810
    3TTP    C4139858   9.151   3.100   2.962  1.0879 -0.7172 -0.6567
    3TTP    C4239859   9.107   3.250   3.006  0.0156  0.9133 -0.3738
    4FIC     F139860   7.092   4.178   2.953  0.0520 -0.0739 -0.0232
    4FIC     F239861   7.101   4.425   2.839  0.2184  0.0702  0.2983
    4FIC     O139862   7.620   4.068   2.998 -0.0205 -0.4399 -0.0578
    4FIC     N539863   7.489   4.702   2.708  0.4059  0.0162  0.7360
    4FIC     N639864   7.900   4.566   2.766  0.3155 -0.2989  0.6441
    4FIC    C1939865   7.816   4.265   2.906  0.1125 -0.4324  0.2371
    4FIC    C2039866   7.683   4.283   2.899  0.1245 -0.3459  0.2332
    4FIC    C2139867   7.588   4.177   2.948  0.0528 -0.3562  0.0769
    4FIC    C2239868   7.452   4.228   2.926  0.0871 -0.2478  0.1158
    4FIC    C2339869   7.332   4.165   2.956  0.0445 -0.2172  0.0098
    4FIC    C2439870   7.215   4.234   2.925  0.0904 -0.1096  0.0746
    4FIC    C2539871   7.220   4.361   2.867  0.1759 -0.0358  0.2404
    4FIC    C2639872   7.339   4.424   2.837  0.2190 -0.0656  0.3467
    4FIC    C2739873   7.459   4.357   2.867  0.1737 -0.1742  0.2833
    4FIC    C2839874   7.601   4.395   2.848  0.2002 -0.2314  0.3622
    4FIC    C2939875   7.647   4.513   2.793  0.2793 -0.1872  0.5236
    4FIC    C3039876   7.560   4.616   2.746  0.3486 -0.0755  0.6398
    4FIC    C3139877   7.786   4.541   2.779  0.2989 -0.2488  0.5890
    5FIC     F139878   7.684   2.607   2.174 -0.4171 -0.5724  0.3911
    5FIC     F239879   7.696   2.362   2.292  0.7327 -0.7396 -0.0518
    5FIC     O139880   8.050   2.880   2.466 -1.1201  0.4035  0.3723
    5FIC     N539881   7.975   2.204   2.669  1.8841 -0.2844 -0.7021
    5FIC     N639882   8.258   2.466   2.873  1.1032  0.5119 -0.6276
    5FIC    C1939883   8.192   2.742   2.682 -0.2715  0.5905 -0.0577
    5FIC    C2039884   8.099   2.683   2.604 -0.1397  0.3515 -0.0356
    5FIC    C2139885   8.030   2.760   2.495 -0.5999  0.2694  0.1912
    5FIC    C2239886   7.936   2.667   2.430 -0.3108  0.0006  0.1550
    5FIC    C2339887   7.851   2.693   2.324 -0.5604 -0.1575  0.3156
    5FIC    C2439888   7.771   2.589   2.279 -0.1990 -0.4058  0.2412
    5FIC    C2539889   7.777   2.462   2.340  0.3932 -0.4914  0.0129
    5FIC    C2639890   7.863   2.436   2.446  0.6452 -0.3346 -0.1482
    5FIC    C2739891   7.944   2.540   2.493  0.2861 -0.0829 -0.0761
    5FIC    C2839892   8.044   2.545   2.602  0.4148  0.1294 -0.2022
    5FIC    C2939893   8.080   2.442   2.685  0.9465  0.1215 -0.4302
    5FIC    C3039894   8.022   2.311   2.676  1.4603 -0.1017 -0.5788
    5FIC    C3139895   8.178   2.456   2.788  1.0295  0.3363 -0.5375
    1BTD     S239896   8.838   2.375   8.783  0.4563 -0.0359 -0.1213
    1BTD     N139897   8.884   2.211   8.839  0.1850 -0.4609 -1.1010
    1BTD     N239898   9.006   2.425   8.744  0.6523  0.2782  1.0607
    1BTD     N339899   9.432   2.230   8.767  0.5622  0.1509  1.7004
    1BTD     N439900   9.282   1.966   8.884 -0.0138 -0.7598 -0.9632
    1BTD     C539901   9.093   2.086   8.861  0.0882 -0.6060 -0.9968
    1BTD     C639902   9.015   2.202   8.827  0.2513 -0.3524 -0.5264
    1BTD     C739903   9.084   2.322   8.774  0.5128  0.0613  0.6835
    1BTD     C839904   9.227   2.320   8.758  0.5982  0.2007  1.3626
    1BTD    C1539905   9.299   2.204   8.792  0.4318 -0.0581  0.8657
    1BTD    C1639906   9.233   2.089   8.844  0.1802 -0.4566 -0.3005
    1BTD    C4339907   9.411   1.916   8.849 -0.5698  0.2159  0.7584
    1BTD    C4439908   9.479   1.789   8.895 -0.0575 -1.1287 -0.8365
    1BTD    C4539909   9.530   1.837   9.034 -0.1860 -2.0087  0.2172
    1BTD    C4639910   9.542   1.747   9.157 -0.5857  0.0608 -0.5882
    1BTD    C4739911   9.581   1.757   8.804 -0.6766  0.2653  1.1249
    1BTD    C4839912   9.544   1.689   8.669 -0.8382 -0.7497 -0.3961
    1BTD    C4939913   9.492   1.550   8.701 -0.4500  0.4205  1.1326
    1BTD    C5039914   9.549   1.457   8.598  0.6513 -0.1949  0.1391
    1BTD    C7539915   9.563   2.177   8.817  0.7093 -0.5852  1.0593
    1BTD    C7639916   9.617   2.255   8.938  0.6149 -0.0439  0.6325
    1BTD    C7739917   9.524   2.259   9.065  1.9975 -0.3986 -0.0267
    1BTD    C7839918   9.594   2.299   9.190 -0.1297  0.9100  0.5745
    1BTD    C7939919   9.771   2.229   8.948 -1.7168 -0.9025 -0.7482
    1BTD    C8039920   9.818   2.085   8.979  0.2303 -1.3579 -0.4982
    1BTD    C8139921   9.957   2.064   9.004 -0.9834 -0.0292 -0.7523
    1BTD    C8239922   9.968   1.921   9.015  0.2734  1.4505 -0.0002
    2TTP     S139923   8.906   1.877   8.962  0.1477 -0.0667  0.0066
    2TTP     S539924   9.238   1.613   9.035  0.1898  0.2294  0.9081
    2TTP     C139925   9.086   1.534   9.098  0.1045  0.1423  0.5968
    2TTP     C239926   8.975   1.611   9.079  0.0863  0.0458  0.2995
    2TTP     C339927   9.005   1.735   9.014  0.1397  0.0370  0.3078
    2TTP     C439928   9.057   1.955   8.899  0.2332  0.0204  0.3181
    2TTP    C1739929   9.169   1.879   8.918  0.2510  0.1169  0.6152
    2TTP    C1839930   9.138   1.755   8.982  0.1984  0.1256  0.6070
    2TTP    C3239931   8.821   1.597   9.126 -0.8293 -0.0035 -0.8967
    2TTP    C3339932   8.725   1.482   9.086  0.0533 -0.6172  0.4043
    2TTP    C3439933   8.579   1.501   9.126  0.3344 -0.5064  1.4389
    2TTP    C3539934   8.538   1.402   9.234 -0.2777 -0.2260 -0.1251
    2TTP    C3639935   8.425   1.483   9.314  0.0811 -0.6683  0.9561
    2TTP    C3739936   8.321   1.387   9.380 -0.0446 -0.8387 -0.0956
    2TTP    C3839937   8.203   1.425   9.475 -0.2332  0.4040 -0.6138
    2TTP    C3939938   8.132   1.324   9.554 -0.0289 -0.4790  2.0720
    2TTP    C4039939   8.199   1.288   9.679  0.1563 -0.0719 -0.1051
    2TTP    C4139940   8.112   1.215   9.779 -0.1312  1.2003 -0.4329
    2TTP    C4239941   8.177   1.156   9.907  0.4124 -0.5469  0.1689
    3TTP     S139942   9.278   2.513   8.551 -0.2073  0.0130 -0.0901
    3TTP     S539943   9.639   2.297   8.463  0.0055  0.3944 -0.1576
    3TTP     C139944   9.595   2.398   8.318 -0.1075  0.3774 -0.1352
    3TTP     C239945   9.481   2.471   8.337 -0.1800  0.2586 -0.1132
    3TTP     C339946   9.424   2.449   8.467 -0.1485  0.1768 -0.1130
    3TTP     C439947   9.322   2.412   8.696 -0.0944  0.0300 -0.1125
    3TTP    C1739948   9.436   2.339   8.677 -0.0218  0.1489 -0.1345
    3TTP    C1839949   9.493   2.361   8.548 -0.0527  0.2307 -0.1347
    3TTP    C3239950   9.402   2.547   8.225  0.1408 -1.1168  1.1581
    3TTP    C3339951   9.293   2.463   8.169  1.4222 -0.3122  1.4092
    3TTP    C3439952   9.330   2.438   8.027 -0.3353  0.9695  0.2944
    3TTP    C3539953   9.218   2.368   7.952  1.1934 -0.5971 -0.8183
    3TTP    C3639954   9.226   2.223   7.898  0.5017 -0.4787  1.8973
    3TTP    C3739955   9.235   2.109   7.982  0.9674  0.8059  0.8329
    3TTP    C3839956   9.375   2.085   8.041 -0.7543  0.2323 -1.0847
    3TTP    C3939957   9.411   1.970   8.149  1.2063 -1.6123  0.3666
    3TTP    C4039958   9.334   1.844   8.135  0.4833 -0.2746 -0.7044
    3TTP    C4139959   9.391   1.745   8.230 -0.6204 -0.6951  0.4196
    3TTP    C4239960   9.288   1.665   8.299  0.6174 -0.0207 -0.6101
    4FIC     F139961   9.574   0.870   9.117  0.4292  0.1493  0.4447
    4FIC     F239962   9.418   0.765   9.314  0.0765 -0.0032  0.0870
    4FIC     O139963   9.317   1.336   9.020  0.5271  0.1647  0.2573
    4FIC     N539964   9.011   0.947   9.528 -0.3607 -0.2116 -0.5600
    4FIC     N639965   8.842   1.333   9.413 -0.2129 -0.1688 -0.6347
    4FIC    C1939966   9.077   1.402   9.174  0.2252  0.0244 -0.1509
    4FIC    C2039967   9.148   1.289   9.190  0.2141  0.0265 -0.0896
    4FIC    C2139968   9.270   1.262   9.107  0.3753  0.1009  0.1225
    4FIC    C2239969   9.323   1.131   9.151  0.3171  0.0827  0.1380
    4FIC    C2339970   9.435   1.064   9.103  0.4201  0.1332  0.3061
    4FIC    C2439971   9.465   0.941   9.159  0.3352  0.1027  0.2842
    4FIC    C2539972   9.384   0.888   9.261  0.1537  0.0241  0.1001
    4FIC    C2639973   9.272   0.954   9.309  0.0503 -0.0266 -0.0682
    4FIC    C2739974   9.240   1.078   9.253  0.1338  0.0032 -0.0489
    4FIC    C2839975   9.130   1.173   9.281  0.0632 -0.0344 -0.1962
    4FIC    C2939976   9.030   1.157   9.374 -0.1092 -0.1111 -0.3939
    4FIC    C3039977   9.020   1.042   9.458 -0.2470 -0.1661 -0.4845
    4FIC    C3139978   8.927   1.254   9.395 -0.1655 -0.1425 -0.5250
    5FIC     F139979   9.966   1.807   7.880  0.1681 -0.2580 -0.0418
    5FIC     F239980   9.981   1.981   7.671 -0.0141 -0.2582 -0.0551
    5FIC     O139981   9.723   2.115   8.253  0.1714 -0.3697  0.0532
    5FIC     N539982   9.829   2.451   7.637 -0.2725 -0.3380 -0.0064
    5FIC     N639983   9.636   2.656   7.970 -0.2329 -0.4254  0.0702
    5FIC    C1939984   9.651   2.390   8.186 -0.0008 -0.4096  0.0737
    5FIC    C2039985   9.711   2.306   8.100  0.0055 -0.3815  0.0508
    5FIC    C2139986   9.745   2.166   8.142  0.0966 -0.3624  0.0412
    5FIC    C2239987   9.810   2.102   8.026  0.0787 -0.3334  0.0155
    5FIC    C2339988   9.859   1.972   8.016  0.1421 -0.3085 -0.0012
    5FIC    C2439989   9.916   1.934   7.896  0.1087 -0.2834 -0.0248
    5FIC    C2539990   9.923   2.024   7.788  0.0156 -0.2836 -0.0316
    5FIC    C2639991   9.875   2.154   7.797 -0.0484 -0.3084 -0.0151
    5FIC    C2739992   9.817   2.194   7.918 -0.0162 -0.3339  0.0088
    5FIC    C2839993   9.756   2.323   7.960 -0.0648 -0.3635  0.0302
    5FIC    C2939994   9.745   2.437   7.883 -0.1576 -0.3724  0.0308
    5FIC    C3039995   9.791   2.444   7.748 -0.2203 -0.3535  0.0104
    5FIC    C3139996   9.685   2.557   7.931 -0.1984 -0.4014  0.0525
    1BTD     S239997   4.883   7.124   9.018 -0.5935  0.1781 -0.1150
    1BTD     N139998   4.711   7.174   9.030 -0.5537  0.2624  0.1118
    1BTD     N239999   4.865   6.982   9.127 -0.6127 -0.0587 -0.4239
    1BTD     N340000   4.516   6.784   9.370 -0.5800 -0.3889 -0.6447
    1BTD     N440001   4.327   7.020   9.251 -0.5072  0.0068  0.0153
    1BTD     C540002   4.513   7.091   9.147 -0.5304  0.1242  0.0534
    1BTD     C640003   4.652   7.087   9.110 -0.5567  0.1174 -0.0465
    1BTD     C740004   4.738   6.980   9.165 -0.5896 -0.0625 -0.3464
    1BTD     C840005   4.681   6.881   9.253 -0.5947 -0.2264 -0.5312
    1BTD    C1540006   4.544   6.889   9.286 -0.5684 -0.2129 -0.4242
    1BTD    C1640007   4.461   6.993   9.233 -0.5365 -0.0397 -0.1352
    1BTD    C4340008   4.215   6.962   9.329 -0.6277  1.0919 -0.4670
    1BTD    C4440009   4.087   6.891   9.276  0.1662 -0.3298  2.1206
    1BTD    C4540010   3.963   6.888   9.363  0.5407  0.4472 -0.6554
    1BTD    C4640011   3.900   7.009   9.430  0.5611  0.1579 -0.2083
    1BTD    C4740012   4.134   6.786   9.161 -1.2316  0.3168 -2.0056
    1BTD    C4840013   4.191   6.641   9.205  0.1834  0.6145 -0.5217
    1BTD    C4940014   4.275   6.582   9.093 -0.1041  0.3725 -0.2443
    1BTD    C5040015   4.341   6.449   9.125  1.8150  0.2759  1.0355
    1BTD    C7540016   4.408   6.762   9.470  1.1429  1.5002  0.0700
    1BTD    C7640017   4.412   6.802   9.620 -1.0925  0.1391  0.6839
    1BTD    C7740018   4.293   6.761   9.706  0.2953  0.4662  1.2766
    1BTD    C7840019   4.301   6.612   9.723 -0.3427  0.6529 -0.0568
    1BTD    C7940020   4.484   6.937   9.640 -0.1584  0.7328  0.2106
    1BTD    C8040021   4.392   7.059   9.624  1.2012  0.6380 -0.9158
    1BTD    C8140022   4.456   7.199   9.662 -0.7056 -0.2848 -0.0814
    1BTD    C8240023   4.489   7.207   9.816 -0.0820  2.3110  1.0652
    2TTP     S140024   4.372   7.307   8.990  0.1471  0.4065  0.1036
    2TTP     S540025   4.013   7.230   9.213 -0.0594 -0.0643 -0.3872
    2TTP     C140026   3.980   7.365   9.096  0.1270  0.3685  0.0498
    2TTP     C240027   4.089   7.397   9.020  0.2016  0.5393  0.2275
    2TTP     C340028   4.203   7.316   9.052  0.1146  0.3347  0.0243
    2TTP     C440029   4.405   7.173   9.108 -0.0392 -0.0262 -0.3335
    2TTP    C1740030   4.296   7.141   9.184 -0.1139 -0.1968 -0.5111
    2TTP    C1840031   4.183   7.222   9.152 -0.0267  0.0076 -0.3080
    2TTP    C3240032   4.095   7.513   8.915 -0.2525 -0.2601 -1.0216
    2TTP    C3340033   4.192   7.624   8.946 -0.7055 -0.6914  0.1595
    2TTP    C3440034   4.224   7.731   8.832 -0.2061  0.2674  0.0910
    2TTP    C3540035   4.125   7.818   8.743  0.2615  0.8792 -0.3561
    2TTP    C3640036   4.038   7.917   8.806  0.6696  0.2328 -0.9009
    2TTP    C3740037   3.934   7.976   8.721 -1.5125 -0.5367 -0.7159
    2TTP    C3840038   3.808   7.903   8.755 -0.4210  0.3468 -0.7358
    2TTP    C3940039   3.706   7.975   8.852 -0.3961  0.9800 -0.2769
    2TTP    C4040040   3.604   8.069   8.784  0.2432  0.4269  0.3210
    2TTP    C4140041   3.660   8.191   8.700 -0.2267  1.2196  0.0143
    2TTP    C4240042   3.623   8.305   8.785 -0.8329 -0.3987  0.3267
    3TTP     S140043   4.879   6.653   9.312 -0.2350  0.0371 -0.2324
    3TTP     S540044   4.585   6.474   9.571  0.0405 -0.2735 -0.1311
    3TTP     C140045   4.732   6.368   9.568  0.1431 -0.1313 -0.2012
    3TTP     C240046   4.832   6.416   9.488  0.0641 -0.0269 -0.2365
    3TTP     C340047   4.795   6.540   9.426 -0.0803 -0.0557 -0.2098
    3TTP     C440048   4.732   6.759   9.315 -0.3375 -0.1053 -0.1626
    3TTP    C1740049   4.632   6.711   9.395 -0.2586 -0.2096 -0.1272
    3TTP    C1840050   4.669   6.587   9.457 -0.1138 -0.1808 -0.1540
    3TTP    C3240051   4.976   6.367   9.468  0.2608  0.7478  0.6492
    3TTP    C3340052   5.048   6.323   9.584  0.6762  0.5299 -0.0459
    3TTP    C3440053   5.187   6.306   9.540 -0.6649 -0.1188  0.8182
    3TTP    C3540054   5.273   6.237   9.643  0.3838 -0.5091 -0.4416
    3TTP    C3640055   5.404   6.290   9.693 -0.3135 -0.3416 -0.2867
    3TTP    C3740056   5.456   6.434   9.708 -0.4950  0.5165 -0.4825
    3TTP    C3840057   5.597   6.472   9.660  0.7240 -0.3446  1.0343
    3TTP    C3940058   5.629   6.429   9.518 -0.8663  1.0204  0.4812
    3TTP    C4040059   5.512   6.491   9.424  0.2663  1.0798 -0.2878
    3TTP    C4140060   5.558   6.506   9.286  0.0118  0.2281 -0.7471
    3TTP    C4240061   5.665   6.614   9.264  0.3295 -1.3179  0.7195
    4FIC     F140062   3.377   7.551   9.620 -0.3754 -0.1605 -0.0558
    4FIC     F240063   3.233   7.647   9.410 -0.3968 -0.3222 -0.1159
    4FIC     O140064   3.837   7.408   9.371 -0.1735  0.2024  0.1070
    4FIC     N540065   3.353   7.684   8.931 -0.2839 -0.2961 -0.0858
    4FIC     N640066   3.741   7.553   8.779 -0.1218  0.0201  0.0539
    4FIC    C1940067   3.862   7.449   9.083 -0.1223  0.1769  0.1077
    4FIC    C2040068   3.752   7.481   9.153 -0.1723  0.0918  0.0691
    4FIC    C2140069   3.746   7.457   9.301 -0.1959  0.1117  0.0713
    4FIC    C2240070   3.614   7.503   9.347 -0.2503  0.0025  0.0238
    4FIC    C2340071   3.563   7.501   9.476 -0.2877 -0.0212  0.0086
    4FIC    C2440072   3.434   7.550   9.494 -0.3366 -0.1314 -0.0385
    4FIC    C2540073   3.360   7.600   9.386 -0.3476 -0.2144 -0.0694
    4FIC    C2640074   3.411   7.602   9.257 -0.3105 -0.1916 -0.0546
    4FIC    C2740075   3.540   7.553   9.236 -0.2607 -0.0806 -0.0072
    4FIC    C2840076   3.622   7.542   9.113 -0.2131 -0.0288  0.0196
    4FIC    C2940077   3.585   7.579   8.986 -0.2082 -0.0827  0.0021
    4FIC    C3040078   3.458   7.637   8.957 -0.2498 -0.1999 -0.0463
    4FIC    C3140079   3.671   7.565   8.873 -0.1606 -0.0257  0.0308
    5FIC     F140080   4.231   5.713   9.610 -0.0592  0.5792  1.0514
    5FIC     F240081   4.394   5.613   9.803  0.7993 -0.0368  0.0265
    5FIC     O140082   4.494   6.169   9.481 -0.4779  0.8445  1.1296
    5FIC     N540083   4.816   5.793   9.989  1.7352 -0.7335 -1.3919
    5FIC     N640084   4.989   6.169   9.849  1.2351 -0.4020 -1.1241
    5FIC    C1940085   4.743   6.234   9.620  0.1936  0.3501  0.1781
    5FIC    C2040086   4.671   6.124   9.644  0.2655  0.3076  0.1984
    5FIC    C2140087   4.543   6.097   9.569 -0.0967  0.5732  0.7024
    5FIC    C2240088   4.490   5.969   9.621  0.0917  0.4470  0.5872
    5FIC    C2340089   4.374   5.904   9.581 -0.1183  0.6057  0.9320
    5FIC    C2440090   4.344   5.784   9.644  0.1280  0.4370  0.7323
    5FIC    C2540091   4.429   5.732   9.744  0.5702  0.1195  0.2037
    5FIC    C2640092   4.545   5.797   9.784  0.7818 -0.0401 -0.1423
    5FIC    C2740093   4.577   5.919   9.721  0.5381  0.1267  0.0527
    5FIC    C2840094   4.691   6.012   9.739  0.6623  0.0285 -0.2074
    5FIC    C2940095   4.795   5.996   9.828  1.0678 -0.2654 -0.7250
    5FIC    C3040096   4.806   5.884   9.916  1.4335 -0.5218 -1.0898
    5FIC    C3140097   4.901   6.091   9.839  1.1574 -0.3388 -0.9413
    1BTD     S240098   5.360   8.398   7.324 -0.4842  0.4173  0.1566
    1BTD     N140099   5.441   8.321   7.183  0.6089  1.1518  0.3566
    1BTD     N240100   5.252   8.502   7.225 -1.2215 -0.5724 -0.1144
    1BTD     N340101   5.178   8.576   6.767 -0.7502 -1.2622 -0.3055
    1BTD     N440102   5.410   8.353   6.715  1.5055  0.8626  0.2745
    1BTD     C540103   5.422   8.341   6.939  1.0499  0.9754  0.3067
    1BTD     C640104   5.386   8.374   7.074  0.3799  0.6478  0.2182
    1BTD     C740105   5.281   8.476   7.098 -0.6447 -0.3173 -0.0454
    1BTD     C840106   5.217   8.538   6.985 -0.9483 -0.9072 -0.2072
    1BTD    C1540107   5.255   8.502   6.855 -0.2671 -0.5567 -0.1123
    1BTD    C1640108   5.357   8.404   6.832  0.7201  0.3734  0.1417
    1BTD    C4340109   5.407   8.419   6.572  0.7264  0.4156 -0.4463
    1BTD    C4440110   5.490   8.537   6.512  0.3144  0.4281  2.3873
    1BTD    C4540111   5.637   8.489   6.462 -1.0103 -0.6359  0.4155
    1BTD    C4640112   5.761   8.551   6.540 -0.0565  0.8127  0.2499
    1BTD    C4740113   5.419   8.603   6.382  0.9217  1.3276  0.1183
    1BTD    C4840114   5.366   8.757   6.393 -0.4979  0.6244 -0.1247
    1BTD    C4940115   5.327   8.824   6.252 -0.3217 -0.1254  0.4286
    1BTD    C5040116   5.244   8.745   6.142 -0.3907  0.3005 -0.8981
    1BTD    C7540117   5.104   8.532   6.648 -1.3067  0.4811  0.0056
    1BTD    C7640118   4.971   8.466   6.600  0.7095 -0.6739 -0.9552
    1BTD    C7740119   4.957   8.332   6.689 -0.0485 -0.7845 -0.7660
    1BTD    C7840120   5.024   8.202   6.634 -1.0556 -0.2305 -0.6293
    1BTD    C7940121   4.931   8.457   6.453 -0.9479 -0.7356 -0.3199
    1BTD    C8040122   4.872   8.590   6.398  0.0722 -0.0477 -0.4143
    1BTD    C8140123   4.974   8.622   6.300  0.1692 -1.4747  0.6731
    1BTD    C8240124   4.891   8.720   6.230  0.7653  0.3399  0.1193
    2TTP     S140125   5.569   8.081   6.935  0.2709  0.2857 -0.2151
    2TTP     S540126   5.492   8.050   6.513  0.2793 -0.2334 -0.1799
    2TTP     C140127   5.551   7.889   6.573  0.3160 -0.1489  0.0119
    2TTP     C240128   5.579   7.889   6.707  0.3157  0.0163  0.0124
    2TTP     C340129   5.554   8.016   6.767  0.2861  0.0825 -0.1386
    2TTP     C440130   5.510   8.242   6.875  0.2339  0.2015 -0.4067
    2TTP    C1740131   5.483   8.242   6.742  0.2344  0.0358 -0.4073
    2TTP    C1840132   5.508   8.115   6.682  0.2638 -0.0300 -0.2562
    2TTP    C3240133   5.645   7.768   6.777  0.1086  0.6768 -0.3062
    2TTP    C3340134   5.572   7.693   6.888  0.6220 -0.4766  0.2696
    2TTP    C3440135   5.518   7.744   7.024  0.3932 -0.3608 -0.1131
    2TTP    C3540136   5.449   7.642   7.110  0.6841 -0.1722 -0.0985
    2TTP    C3640137   5.302   7.695   7.145  0.5850 -1.4338 -0.0306
    2TTP    C3740138   5.214   7.751   7.036 -0.0393  0.1863 -0.3213
    2TTP    C3840139   5.123   7.636   6.992 -0.1707  0.7029  0.0121
    2TTP    C3940140   5.037   7.669   6.888 -1.2961 -0.2111  0.4744
    2TTP    C4040141   5.121   7.660   6.754  0.6304  0.4478 -0.7616
    2TTP    C4140142   5.028   7.697   6.646 -0.5448  1.1009 -0.6156
    2TTP    C4240143   4.971   7.837   6.595 -0.0095  0.5293 -0.1492
    3TTP     S140144   5.033   8.789   7.055 -0.2200  0.0244  0.1413
    3TTP     S540145   4.952   8.852   6.637 -0.1632 -0.0525  0.1189
    3TTP     C140146   4.866   8.980   6.733  0.2549  0.2850  0.0483
    3TTP     C240147   4.886   8.969   6.867  0.2621  0.3288  0.0513
    3TTP     C340148   4.970   8.858   6.900 -0.0625  0.0970  0.1090
    3TTP     C440149   5.119   8.661   6.959 -0.6381 -0.3133  0.2117
    3TTP    C1740150   5.099   8.672   6.825 -0.6452 -0.3570  0.2088
    3TTP    C1840151   5.015   8.783   6.792 -0.3207 -0.1252  0.1510
    3TTP    C3240152   4.825   9.064   6.977  0.2508  1.1431 -0.5605
    3TTP    C3340153   4.906   9.154   7.057 -0.2849  0.6308 -0.3902
    3TTP    C3440154   4.804   9.202   7.163 -0.6066  1.3326  1.4267
    3TTP    C3540155   4.720   9.113   7.259 -1.5316  0.0939 -0.2685
    3TTP    C3640156   4.786   9.107   7.400  0.3984 -0.3975 -1.0740
    3TTP    C3740157   4.699   9.109   7.525 -0.9011  0.5459 -0.3841
    3TTP    C3840158   4.591   9.023   7.564  0.2464 -0.7912  0.0433
    3TTP    C3940159   4.603   8.877   7.619  0.4914 -0.7860  2.0316
    3TTP    C4040160   4.463   8.817   7.677 -0.3186  0.5217  0.2397
    3TTP    C4140161   4.506   8.698   7.756  0.0066 -0.7347  0.0972
    3TTP    C4240162   4.439   8.681   7.891 -1.1366 -0.9525 -1.6920
    4FIC     F140163   5.603   7.700   5.777  1.0161 -0.0191  0.0029
    4FIC     F240164   5.672   7.446   5.845  0.1998 -0.2698 -0.0850
    4FIC     O140165   5.534   7.922   6.266  1.1387 -0.1311  0.0715
    4FIC     N540166   5.722   7.239   6.292 -0.8867 -0.7099 -0.1626
    4FIC     N640167   5.654   7.464   6.660 -0.6267 -0.7467 -0.0913
    4FIC    C1940168   5.575   7.758   6.505  0.4020 -0.4102  0.0118
    4FIC    C2040169   5.590   7.712   6.379  0.4029 -0.3723 -0.0020
    4FIC    C2140170   5.567   7.803   6.261  0.7942 -0.2267  0.0308
    4FIC    C2240171   5.591   7.722   6.141  0.6866 -0.2209  0.0048
    4FIC    C2340172   5.582   7.762   6.008  0.9480 -0.1076  0.0206
    4FIC    C2440173   5.610   7.667   5.910  0.7756 -0.1270 -0.0105
    4FIC    C2540174   5.646   7.536   5.946  0.3548 -0.2563 -0.0558
    4FIC    C2640175   5.655   7.495   6.078  0.0925 -0.3698 -0.0718
    4FIC    C2740176   5.627   7.590   6.178  0.2613 -0.3520 -0.0410
    4FIC    C2840177   5.627   7.579   6.326  0.0703 -0.4501 -0.0468
    4FIC    C2940178   5.657   7.467   6.400 -0.3370 -0.5871 -0.0863
    4FIC    C3040179   5.693   7.342   6.340 -0.6379 -0.6541 -0.1281
    4FIC    C3140180   5.655   7.466   6.543 -0.4939 -0.6741 -0.0889
    5FIC     F140181   4.648   9.239   5.986 -0.4163 -0.6034  0.1756
    5FIC     F240182   4.476   9.414   6.104 -0.3282 -0.5238  0.1855
    5FIC     O140183   4.866   9.000   6.419  0.2340  0.0029  0.1869
    5FIC     N540184   4.385   9.495   6.584  0.2621  0.0222  0.2080
    5FIC     N640185   4.590   9.273   6.899  0.7524  0.4797  0.2148
    5FIC    C1940186   4.780   9.082   6.687  0.5493  0.2935  0.2004
    5FIC    C2040187   4.731   9.135   6.573  0.3823  0.1380  0.1971
    5FIC    C2140188   4.781   9.088   6.439  0.2269 -0.0052  0.1903
    5FIC    C2240189   4.708   9.166   6.338  0.0663 -0.1552  0.1882
    5FIC    C2340190   4.720   9.158   6.199 -0.1094 -0.3183  0.1822
    5FIC    C2440191   4.641   9.242   6.123 -0.2396 -0.4397  0.1814
    5FIC    C2540192   4.553   9.332   6.185 -0.1939 -0.3981  0.1865
    5FIC    C2640193   4.540   9.341   6.323 -0.0187 -0.2360  0.1926
    5FIC    C2740194   4.620   9.256   6.401  0.1147 -0.1113  0.1934
    5FIC    C2840195   4.630   9.241   6.548  0.3107  0.0706  0.1991
    5FIC    C2940196   4.560   9.311   6.643  0.4075  0.1593  0.2050
    5FIC    C3040197   4.464   9.412   6.610  0.3272  0.0839  0.2067
    5FIC    C3140198   4.577   9.290   6.783  0.5968  0.3350  0.2104
    1BTD     S240199   2.403   3.147   0.276  0.2483  0.0226  0.5564
    1BTD     N140200   2.485   3.040   0.158  0.5512  0.1255  0.6705
    1BTD     N240201   2.337   3.013   0.375 -0.1283 -0.0663  0.1926
    1BTD     N340202   2.351   2.544   0.364 -0.3488 -0.0616 -0.3429
    1BTD     N440203   2.533   2.577   0.096  0.4884  0.1746  0.2460
    1BTD     C540204   2.508   2.797   0.129  0.5082  0.1483  0.4417
    1BTD     C640205   2.460   2.915   0.196  0.3656  0.0901  0.4433
    1BTD     C740206   2.378   2.900   0.318 -0.0147 -0.0172  0.1758
    1BTD     C840207   2.347   2.768   0.366 -0.2334 -0.0610 -0.0798
    1BTD    C1540208   2.396   2.656   0.297 -0.0821 -0.0011 -0.0713
    1BTD    C1640209   2.475   2.670   0.179  0.2843  0.1022  0.1865
    1BTD    C4340210   2.550   2.433   0.108 -0.5043  1.6142 -0.3999
    1BTD    C4440211   2.664   2.375   0.195 -0.3765  0.6493 -0.8256
    1BTD    C4540212   2.646   2.390   0.344  0.8133  0.0475 -0.4510
    1BTD    C4640213   2.767   2.366   0.427  0.8418 -0.3165 -0.9092
    1BTD    C4740214   2.702   2.229   0.177 -1.6558 -0.4750 -0.7026
    1BTD    C4840215   2.742   2.179   0.042  0.4903 -1.2916  0.6744
    1BTD    C4940216   2.849   2.075   0.038  1.4337  1.5937 -0.6569
    1BTD    C5040217   2.996   2.097   0.078  1.0448  0.0358  0.5665
    1BTD    C7540218   2.294   2.430   0.286  0.4590 -0.0028 -0.5315
    1BTD    C7640219   2.253   2.294   0.327  0.9691  0.2427 -0.4125
    1BTD    C7740220   2.146   2.301   0.427 -0.3623 -0.5614  0.5306
    1BTD    C7840221   2.114   2.182   0.500  0.9200  0.8574  0.3551
    1BTD    C7940222   2.271   2.183   0.223  0.8796 -1.3329 -0.2192
    1BTD    C8040223   2.171   2.169   0.111  0.8777  0.0506  0.1101
    1BTD    C8140224   2.018   2.149   0.165  2.1053  1.2597  0.4574
    1BTD    C8240225   1.924   2.222   0.073  0.6087 -0.0571  0.3875
    2TTP     S140226   2.665   2.861  -0.132 -0.3975  0.1136  0.4546
    2TTP     S540227   2.730   2.442  -0.201 -0.1149  0.2691 -0.2344
    2TTP     C140228   2.805   2.535  -0.338 -0.1003  0.5492 -0.0358
    2TTP     C240229   2.789   2.670  -0.325 -0.1867  0.5177  0.1884
    2TTP     C340230   2.717   2.705  -0.206 -0.2676  0.2711  0.2120
    2TTP     C440231   2.590   2.767   0.005 -0.4121 -0.1665  0.2563
    2TTP    C1740232   2.606   2.632  -0.008 -0.3256 -0.1350  0.0319
    2TTP    C1840233   2.677   2.598  -0.127 -0.2448  0.1116  0.0086
    2TTP    C3240234   2.844   2.779  -0.405  0.8430 -0.1513  0.9718
    2TTP    C3340235   2.727   2.806  -0.498 -1.2806  1.4503 -1.0960
    2TTP    C3440236   2.750   2.918  -0.584 -0.6220 -1.1304 -1.7725
    2TTP    C3540237   2.626   3.003  -0.617 -0.3312 -1.0868  1.9234
    2TTP    C3640238   2.691   3.090  -0.741  1.2038  0.5498 -0.5706
    2TTP    C3740239   2.578   3.161  -0.825 -0.0654  0.5975 -0.6278
    2TTP    C3840240   2.593   3.274  -0.917 -0.2393 -0.8389  0.2210
    2TTP    C3940241   2.694   3.396  -0.872  0.1034 -0.2213 -0.7408
    2TTP    C4040242   2.692   3.524  -0.948  0.5009 -1.7745 -1.0535
    2TTP    C4140243   2.810   3.546  -1.040 -0.2489  0.6602 -0.9899
    2TTP    C4240244   2.756   3.628  -1.141  0.3498 -0.8080  1.2868
    3TTP     S140245   2.277   2.805   0.643  0.3041 -0.1258 -0.2387
    3TTP     S540246   2.358   2.389   0.717 -0.5720 -0.2501  0.0452
    3TTP     C140247   2.350   2.476   0.876 -0.0408 -0.0565 -0.0309
    3TTP     C240248   2.325   2.609   0.863  0.2610 -0.0068 -0.1230
    3TTP     C340249   2.311   2.648   0.726  0.0837 -0.1197 -0.1369
    3TTP     C440250   2.285   2.718   0.483 -0.2270 -0.3194 -0.1626
    3TTP    C1740251   2.310   2.585   0.497 -0.5289 -0.3691 -0.0705
    3TTP    C1840252   2.324   2.546   0.634 -0.3515 -0.2562 -0.0566
    3TTP    C3240253   2.288   2.707   0.957 -0.0586 -0.3731 -1.1296
    3TTP    C3340254   2.151   2.723   1.037 -0.4428 -0.5754  0.8775
    3TTP    C3440255   2.048   2.795   0.948  1.2267 -0.1407  0.1287
    3TTP    C3540256   1.968   2.906   1.017  1.2173 -0.9931  0.1957
    3TTP    C3640257   1.844   2.979   0.948 -1.5292  0.1092  0.1277
    3TTP    C3740258   1.814   2.943   0.800 -0.2301  0.1599  0.3778
    3TTP    C3840259   1.700   3.014   0.751  0.0915 -1.2647  0.1748
    3TTP    C3940260   1.576   3.065   0.833  0.4936 -0.0203 -0.5476
    3TTP    C4040261   1.561   3.183   0.935 -0.6275 -0.5236  0.9666
    3TTP    C4140262   1.429   3.206   0.968  0.4568  0.7423 -0.4693
    3TTP    C4240263   1.421   3.311   1.076  0.5306  0.7591  0.1786
    4FIC     F140264   2.928   1.783  -0.634 -0.3517 -0.0485 -0.0699
    4FIC     F240265   3.072   1.888  -0.840  0.8178 -0.2374  0.6318
    4FIC     O140266   2.792   2.232  -0.364 -1.3019  0.1490 -0.8693
    4FIC     N540267   3.181   2.359  -0.944  1.8218 -0.3681  1.0707
    4FIC     N640268   3.045   2.689  -0.692  0.8435 -0.1757  0.3047
    4FIC    C1940269   2.880   2.492  -0.465 -0.5222  0.0388 -0.4829
    4FIC    C2040270   2.909   2.375  -0.525 -0.3288 -0.0036 -0.3095
    4FIC    C2140271   2.860   2.246  -0.467 -0.7569  0.0581 -0.5271
    4FIC    C2240272   2.909   2.139  -0.556 -0.4018 -0.0107 -0.2544
    4FIC    C2340273   2.888   2.001  -0.543 -0.6034  0.0120 -0.3240
    4FIC    C2440274   2.944   1.920  -0.640 -0.1831 -0.0657 -0.0206
    4FIC    C2540275   3.018   1.974  -0.746  0.4192 -0.1629  0.3403
    4FIC    C2640276   3.039   2.111  -0.760  0.6235 -0.1862  0.4125
    4FIC    C2740277   2.983   2.195  -0.663  0.2045 -0.1085  0.1085
    4FIC    C2840278   2.986   2.343  -0.648  0.2733 -0.1079  0.0889
    4FIC    C2940279   3.049   2.432  -0.731  0.7954 -0.1887  0.3841
    4FIC    C3040280   3.121   2.392  -0.848  1.3579 -0.2872  0.7608
    4FIC    C3140281   3.047   2.573  -0.709  0.8188 -0.1811  0.3386
    5FIC     F140282   2.682   1.793   1.194 -0.3417 -0.1222  0.0951
    5FIC     F240283   2.702   1.923   1.432  0.5449  0.2677 -0.1832
    5FIC     O140284   2.441   2.171   0.891 -0.1811 -0.0982 -0.0032
    5FIC     N540285   2.559   2.379   1.559  1.9339  0.8451 -0.6534
    5FIC     N640286   2.366   2.648   1.274  1.8807  0.7852 -0.6741
    5FIC    C1940287   2.374   2.429   1.011  0.7230  0.2827 -0.3040
    5FIC    C2040288   2.434   2.329   1.078  0.6479  0.2614 -0.2684
    5FIC    C2140289   2.465   2.199   1.009  0.1732  0.0606 -0.1112
    5FIC    C2240290   2.530   2.113   1.110  0.2137  0.0905 -0.1115
    5FIC    C2340291   2.577   1.983   1.093 -0.1351 -0.0525  0.0087
    5FIC    C2440292   2.634   1.921   1.204 -0.0137  0.0114 -0.0187
    5FIC    C2540293   2.644   1.989   1.326  0.4432  0.2123 -0.1622
    5FIC    C2640294   2.598   2.118   1.343  0.7931  0.3558 -0.2826
    5FIC    C2740295   2.539   2.182   1.233  0.6768  0.2940 -0.2570
    5FIC    C2840296   2.481   2.318   1.218  0.9618  0.4069 -0.3592
    5FIC    C2940297   2.472   2.414   1.316  1.4275  0.6081 -0.5092
    5FIC    C3040298   2.520   2.395   1.449  1.7043  0.7377 -0.5880
    5FIC    C3140299   2.414   2.543   1.292  1.6742  0.7043 -0.5991
    1BTD     S240300   6.337   0.760   1.432  0.0688  0.2480  0.0781
    1BTD     N140301   6.457   0.626   1.432  0.0881  0.2653  0.0541
    1BTD     N240302   6.211   0.668   1.521  0.0666  0.1994  0.0249
    1BTD     N340303   6.171   0.238   1.705  0.0968  0.1315 -0.1273
    1BTD     N440304   6.473   0.186   1.595  0.1235  0.2128 -0.0913
    1BTD     C540305   6.462   0.397   1.518  0.1062  0.2369 -0.0222
    1BTD     C640306   6.400   0.525   1.496  0.0918  0.2355  0.0098
    1BTD     C740307   6.262   0.548   1.546  0.0795  0.1986 -0.0065
    1BTD     C840308   6.194   0.443   1.616  0.0826  0.1649 -0.0541
    1BTD    C1540309   6.259   0.319   1.636  0.0971  0.1677 -0.0843
    1BTD    C1640310   6.391   0.297   1.588  0.1087  0.2032 -0.0686
    1BTD    C4340311   6.439   0.034   1.585 -0.5764 -0.5549  0.6731
    1BTD    C4440312   6.465  -0.042   1.443  0.5527 -1.1979 -0.1330
    1BTD    C4540313   6.382   0.031   1.336 -0.1934 -0.3190  0.4796
    1BTD    C4640314   6.401  -0.011   1.194 -0.1383 -0.0080  0.5032
    1BTD    C4740315   6.428  -0.180   1.441  1.3008 -0.2216  0.1733
    1BTD    C4840316   6.536  -0.285   1.478  0.0530 -0.0455 -0.4664
    1BTD    C4940317   6.589  -0.297   1.619 -0.4512  0.7604  0.2988
    1BTD    C5040318   6.474  -0.279   1.730 -1.6133 -0.6450  0.3348
    1BTD    C7540319   6.199   0.141   1.811  0.1893  0.6413  0.8660
    1BTD    C7640320   6.130   0.003   1.810 -1.2698 -0.5522 -1.8619
    1BTD    C7740321   6.199  -0.078   1.931  0.3999 -1.3617  0.7642
    1BTD    C7840322   6.140  -0.200   1.992  0.2840  0.0424  0.1245
    1BTD    C7940323   6.121  -0.054   1.682 -0.5453  0.6932  0.9422
    1BTD    C8040324   6.052  -0.179   1.639 -0.0483  0.4201 -0.6544
    1BTD    C8140325   5.894  -0.158   1.630 -0.9490  0.3554  0.9008
    1BTD    C8240326   5.843  -0.105   1.500 -0.9045 -0.0618 -0.0755
    2TTP     S140327   6.745   0.394   1.406 -0.1718  0.2956 -0.2004
    2TTP     S540328   6.816   0.021   1.606  0.3957  0.2713 -0.4428
    2TTP     C140329   6.974   0.079   1.536  0.3283  0.6082 -0.3152
    2TTP     C240330   6.961   0.198   1.470  0.1490  0.6354 -0.2329
    2TTP     C340331   6.827   0.247   1.472  0.0587  0.3914 -0.2675
    2TTP     C440332   6.588   0.336   1.476 -0.1045 -0.0411 -0.3280
    2TTP    C1740333   6.601   0.217   1.542  0.0750 -0.0683 -0.4103
    2TTP    C1840334   6.735   0.168   1.539  0.1653  0.1756 -0.3756
    2TTP    C3240335   7.058   0.297   1.412  0.5291  0.3702 -0.5731
    2TTP    C3340336   7.079   0.262   1.273 -0.2043  0.1360 -0.4317
    2TTP    C3440337   7.215   0.314   1.214  0.9152  1.0266  0.3118
    2TTP    C3540338   7.229   0.348   1.071  0.0590 -0.1857  0.9264
    2TTP    C3640339   7.190   0.226   0.965  0.0984 -0.8906 -0.3296
    2TTP    C3740340   7.052   0.200   0.903  0.6035  1.5131 -0.5920
    2TTP    C3840341   7.012   0.300   0.799  0.3981  0.2281 -0.1739
    2TTP    C3940342   7.015   0.261   0.655 -0.0283  0.4597  1.3995
    2TTP    C4040343   7.057   0.124   0.596 -0.9379  0.8034  0.0997
    2TTP    C4140344   7.076   0.119   0.439 -0.6440 -0.1284 -1.5662
    2TTP    C4240345   6.964   0.160   0.360 -1.0701 -0.3158 -0.1468
    3TTP     S140346   5.925   0.542   1.712 -0.2139 -0.3814 -0.2208
    3TTP     S540347   5.815   0.140   1.816  0.3425 -0.4439  0.1367
    3TTP     C140348   5.670   0.247   1.838  0.2045 -0.6177  0.0797
    3TTP     C240349   5.695   0.378   1.807  0.0243 -0.6086 -0.0341
    3TTP     C340350   5.830   0.398   1.765 -0.0108 -0.4641 -0.0803
    3TTP     C440351   6.070   0.435   1.690 -0.0758 -0.2076 -0.1639
    3TTP    C1740352   6.045   0.304   1.721  0.1043 -0.2166 -0.0501
    3TTP    C1840353   5.910   0.284   1.763  0.1395 -0.3612 -0.0038
    3TTP    C3240354   5.592   0.493   1.780  0.6189  0.4160 -0.2684
    3TTP    C3340355   5.553   0.513   1.626 -0.7228  1.1167  0.5985
    3TTP    C3440356   5.481   0.642   1.595 -0.5833  1.6881  0.5615
    3TTP    C3540357   5.331   0.659   1.633  1.3144  1.0474 -0.6250
    3TTP    C3640358   5.303   0.667   1.784  0.5151  0.6596 -0.9325
    3TTP    C3740359   5.176   0.696   1.855  0.3762  0.0409 -0.2769
    3TTP    C3840360   5.107   0.825   1.834  0.4401 -0.1851  1.3098
    3TTP    C3940361   4.976   0.841   1.889  0.1390  0.1946  0.0149
    3TTP    C4040362   4.909   0.948   1.816 -0.4933 -1.5933  0.1167
    3TTP    C4140363   4.978   1.090   1.790  0.1332  0.2366 -1.2864
    3TTP    C4240364   4.895   1.206   1.718 -0.8349  0.0319  0.6718
    4FIC     F140365   7.182  -0.660   1.833 -0.5292 -0.2980 -0.5133
    4FIC     F240366   7.427  -0.631   1.718  0.0283  0.1528  0.7577
    4FIC     O140367   6.948  -0.191   1.697 -0.4814 -0.4730 -1.2130
    4FIC     N540368   7.613  -0.254   1.457  0.8638  0.6762  2.0864
    4FIC     N640369   7.380   0.107   1.374  0.7888  0.4482  1.2835
    4FIC    C1940370   7.099   0.004   1.540  0.0682 -0.1047 -0.2472
    4FIC    C2040371   7.148  -0.115   1.578  0.0343 -0.0784 -0.1208
    4FIC    C2140372   7.065  -0.210   1.659 -0.2551 -0.2756 -0.6429
    4FIC    C2240373   7.148  -0.329   1.684 -0.2158 -0.1884 -0.3434
    4FIC    C2340374   7.113  -0.444   1.754 -0.4232 -0.3090 -0.6367
    4FIC    C2440375   7.209  -0.544   1.764 -0.3351 -0.1897 -0.2544
    4FIC    C2540376   7.335  -0.529   1.705 -0.0478  0.0430  0.4003
    4FIC    C2640377   7.371  -0.414   1.634  0.1606  0.1638  0.6961
    4FIC    C2740378   7.275  -0.312   1.623  0.0752  0.0458  0.3169
    4FIC    C2840379   7.280  -0.180   1.556  0.2404  0.1228  0.4797
    4FIC    C2940380   7.387  -0.128   1.487  0.5291  0.3395  1.0736
    4FIC    C3040381   7.511  -0.197   1.471  0.7122  0.5236  1.6284
    4FIC    C3140382   7.383   0.001   1.425  0.6703  0.3979  1.1856
    5FIC     F140383   5.253  -0.450   1.923  0.4083 -0.1249  0.4481
    5FIC     F240384   5.073  -0.317   2.077 -0.2310  0.0002 -0.3881
    5FIC     O140385   5.591  -0.049   1.789  0.1928  0.0427  0.4058
    5FIC     N540386   5.056   0.161   2.204 -1.3038  0.2997 -1.6204
    5FIC     N640387   5.356   0.448   2.068 -1.3435  0.4053 -1.4849
    5FIC    C1940388   5.539   0.221   1.889 -0.4947  0.2216 -0.4081
    5FIC    C2040389   5.461   0.115   1.916 -0.4154  0.1746 -0.3648
    5FIC    C2140390   5.494  -0.021   1.861 -0.0560  0.0830  0.0644
    5FIC    C2240391   5.390  -0.113   1.910 -0.0594  0.0510 -0.0022
    5FIC    C2340392   5.378  -0.249   1.886  0.2145 -0.0305  0.3026
    5FIC    C2440393   5.270  -0.315   1.943  0.1491 -0.0458  0.1636
    5FIC    C2540394   5.178  -0.246   2.023 -0.1804  0.0186 -0.2674
    5FIC    C2640395   5.189  -0.110   2.048 -0.4548  0.1004 -0.5732
    5FIC    C2740396   5.297  -0.041   1.991 -0.3936  0.1171 -0.4385
    5FIC    C2840397   5.338   0.101   1.997 -0.6256  0.1955 -0.6785
    5FIC    C2940398   5.272   0.201   2.066 -0.9694  0.2728 -1.1091
    5FIC    C3040399   5.153   0.179   2.142 -1.1520  0.2873 -1.3887
    5FIC    C3140400   5.319   0.336   2.067 -1.1730  0.3452 -1.3134
    1BTD     S240401   3.876   7.146   2.472 -0.0605  0.3890  0.1020
    1BTD     N140402   3.925   7.030   2.345 -0.0356 -0.0284  0.4877
    1BTD     N240403   4.044   7.184   2.523 -0.0677  0.6135 -0.0370
    1BTD     N340404   4.476   7.050   2.397 -0.0376  0.3177  0.3763
    1BTD     N440405   4.330   6.860   2.177  0.0020 -0.4734  1.0228
    1BTD     C540406   4.138   6.943   2.260 -0.0165 -0.2513  0.7592
    1BTD     C640407   4.058   7.025   2.347 -0.0341  0.0188  0.4928
    1BTD     C740408   4.125   7.111   2.447 -0.0519  0.3779  0.1990
    1BTD     C840409   4.268   7.112   2.455 -0.0513  0.4494  0.1866
    1BTD    C1540410   4.343   7.030   2.368 -0.0337  0.1770  0.4532
    1BTD    C1640411   4.279   6.947   2.271 -0.0166 -0.1692  0.7363
    1BTD    C4340412   4.457   6.879   2.085 -0.7221  1.0846 -0.3790
    1BTD    C4440413   4.554   6.771   2.064 -0.2950  0.4612 -1.0902
    1BTD    C4540414   4.640   6.807   1.940 -0.1463 -0.2940 -0.1338
    1BTD    C4640415   4.720   6.690   1.881 -0.0298 -0.4290  0.5539
    1BTD    C4740416   4.584   6.682   2.187 -0.1276  0.7095  0.2229
    1BTD    C4840417   4.624   6.533   2.183 -0.6954  0.1828  0.7058
    1BTD    C4940418   4.670   6.495   2.330  0.1320  1.2605 -0.2361
    1BTD    C5040419   4.678   6.343   2.367 -0.5629  0.1719  0.0963
    1BTD    C7540420   4.587   6.938   2.423  0.0694  0.3971  0.2677
    1BTD    C7640421   4.730   6.962   2.398 -0.5237 -0.4779 -0.1735
    1BTD    C7740422   4.745   7.027   2.255  0.5608  0.3730 -1.5150
    1BTD    C7840423   4.872   7.036   2.188 -0.3173 -0.5333 -0.1215
    1BTD    C7940424   4.825   6.843   2.436 -0.6472  0.0643  0.6471
    1BTD    C8040425   4.810   6.807   2.580 -0.8639  0.1297  1.7546
    1BTD    C8140426   4.923   6.716   2.616  0.2916 -1.1171  0.9834
    1BTD    C8240427   4.994   6.605   2.533 -0.6482 -0.2533  0.6070
    2TTP     S140428   3.966   6.791   2.059 -0.2177  0.1182  0.0860
    2TTP     S540429   4.315   6.603   1.892 -0.4928 -0.3569  0.0421
    2TTP     C140430   4.169   6.545   1.801 -0.6160 -0.4065  0.2691
    2TTP     C240431   4.052   6.600   1.847 -0.5385 -0.2627  0.2961
    2TTP     C340432   4.074   6.689   1.956 -0.3788 -0.1082  0.1383
    2TTP     C440433   4.112   6.849   2.151 -0.0947  0.1678 -0.1411
    2TTP    C1740434   4.229   6.794   2.104 -0.1723  0.0239 -0.1679
    2TTP    C1840435   4.207   6.705   1.995 -0.3319 -0.1305 -0.0103
    2TTP    C3240436   3.911   6.555   1.822  0.4815  0.7785 -1.3504
    2TTP    C3340437   3.840   6.672   1.761  0.3758  0.1727 -0.3792
    2TTP    C3440438   3.693   6.615   1.742 -0.0133 -0.0185  0.5638
    2TTP    C3540439   3.607   6.690   1.639  1.0233 -1.1472 -0.5491
    2TTP    C3640440   3.494   6.777   1.692  0.8985 -1.4118 -0.5648
    2TTP    C3740441   3.371   6.796   1.610  0.7220 -0.0700 -2.0060
    2TTP    C3840442   3.331   6.671   1.525 -0.6702  1.3309  0.0705
    2TTP    C3940443   3.203   6.706   1.421 -0.2503  0.5069 -1.2233
    2TTP    C4040444   3.144   6.611   1.324 -0.1918 -0.4546  0.8267
    2TTP    C4140445   2.993   6.609   1.334  0.6468 -0.5805 -0.3012
    2TTP    C4240446   2.894   6.572   1.222  0.1951 -0.9757  0.2748
    3TTP     S140447   4.369   7.258   2.707  0.1264 -0.7020  0.1741
    3TTP     S540448   4.767   7.228   2.548  0.2036  0.7272  0.0703
    3TTP     C140449   4.774   7.325   2.702  0.0207 -0.0093  0.5485
    3TTP     C240450   4.651   7.340   2.761 -0.0138 -0.4941  0.6087
    3TTP     C340451   4.548   7.276   2.685  0.1028 -0.3014  0.2794
    3TTP     C440452   4.363   7.162   2.553  0.3092  0.0346 -0.3040
    3TTP    C1740453   4.485   7.147   2.495  0.3439  0.5193 -0.3642
    3TTP    C1840454   4.589   7.211   2.570  0.2270  0.3265 -0.0349
    3TTP    C3240455   4.601   7.413   2.899 -0.4461 -0.5728 -0.4122
    3TTP    C3340456   4.546   7.559   2.878 -0.2585  0.2848 -0.1435
    3TTP    C3440457   4.504   7.623   3.003  0.8399  0.5356 -0.5750
    3TTP    C3540458   4.461   7.772   2.993  0.6288  0.1575  0.8914
    3TTP    C3640459   4.455   7.817   3.127 -0.4632 -0.6964  0.6557
    3TTP    C3740460   4.569   7.897   3.190 -1.9115 -0.3042  1.1320
    3TTP    C3840461   4.541   7.943   3.334  0.4157 -0.9980  0.8073
    3TTP    C3940462   4.644   8.048   3.398  0.2523 -0.1705  1.8329
    3TTP    C4040463   4.719   8.144   3.300 -0.0781 -0.5355  1.9271
    3TTP    C4140464   4.840   8.248   3.328 -0.9390  1.3893  0.7875
    3TTP    C4240465   4.847   8.250   3.473  0.6956 -0.9609  0.7836
    4FIC     F140466   4.761   6.082   1.480  0.1643  0.1197  0.4702
    4FIC     F240467   4.570   5.916   1.382  0.3232  0.3486 -0.2339
    4FIC     O140468   4.455   6.463   1.713 -0.2172 -0.3190  0.6909
    4FIC     N540469   4.076   5.948   1.406  0.2801  0.3651 -1.0891
    4FIC     N640470   3.876   6.280   1.608 -0.0499 -0.0236 -0.7747
    4FIC    C1940471   4.164   6.440   1.702 -0.2006 -0.2560  0.0965
    4FIC    C2040472   4.248   6.351   1.647 -0.1111 -0.1544  0.0685
    4FIC    C2140473   4.397   6.369   1.657 -0.1262 -0.1954  0.3862
    4FIC    C2240474   4.458   6.255   1.587 -0.0124 -0.0601  0.2637
    4FIC    C2340475   4.594   6.229   1.570  0.0162 -0.0435  0.4633
    4FIC    C2440476   4.629   6.114   1.501  0.1298  0.0953  0.2888
    4FIC    C2540477   4.530   6.029   1.450  0.2115  0.2131 -0.0739
    4FIC    C2640478   4.394   6.054   1.467  0.1836  0.1972 -0.2747
    4FIC    C2740479   4.357   6.170   1.537  0.0690  0.0577 -0.1028
    4FIC    C2840480   4.224   6.225   1.571  0.0118  0.0043 -0.2372
    4FIC    C2940481   4.102   6.170   1.539  0.0628  0.0865 -0.5794
    4FIC    C3040482   4.088   6.048   1.466  0.1820  0.2394 -0.8585
    4FIC    C3140483   3.978   6.231   1.577  0.0005  0.0254 -0.6849
    5FIC     F140484   5.540   7.543   2.486 -0.1724 -0.1481 -0.0681
    5FIC     F240485   5.566   7.663   2.729 -0.1713  0.3057 -0.2899
    5FIC     O140486   5.034   7.353   2.521 -0.2092  0.0062  0.2490
    5FIC     N540487   5.244   7.700   3.103 -0.1957  1.0679 -0.3830
    5FIC     N640488   4.844   7.527   3.081 -0.2246  1.0970 -0.0905
    5FIC    C1940489   4.880   7.400   2.765 -0.2209  0.4944  0.1495
    5FIC    C2040490   5.006   7.443   2.747 -0.2118  0.4380  0.0784
    5FIC    C2140491   5.079   7.415   2.619 -0.2061  0.1827  0.1365
    5FIC    C2240492   5.212   7.476   2.632 -0.1966  0.1848  0.0336
    5FIC    C2340493   5.316   7.476   2.539 -0.1888 -0.0098  0.0414
    5FIC    C2440494   5.434   7.540   2.574 -0.1804  0.0362 -0.0689
    5FIC    C2540495   5.447   7.601   2.699 -0.1798  0.2703 -0.1832
    5FIC    C2640496   5.345   7.602   2.793 -0.1875  0.4652 -0.1916
    5FIC    C2740497   5.224   7.538   2.759 -0.1961  0.4221 -0.0810
    5FIC    C2840498   5.098   7.520   2.835 -0.2054  0.5870 -0.0579
    5FIC    C2940499   5.072   7.566   2.961 -0.2077  0.8310 -0.1461
    5FIC    C3040500   5.167   7.640   3.039 -0.2011  0.9603 -0.2760
    5FIC    C3140501   4.946   7.545   3.027 -0.2170  0.9758 -0.1150
    1BTD     S240502   8.792   5.093   1.974 -0.6139  0.3891  0.0604
    1BTD     N140503   8.878   5.111   1.817 -0.5770  0.1961  0.0565
    1BTD     N240504   8.662   5.210   1.933 -0.5529  0.4098 -0.0771
    1BTD     N340505   8.552   5.483   1.567 -0.3622  0.1038 -0.3642
    1BTD     N440506   8.818   5.362   1.424 -0.3920 -0.1597 -0.1994
    1BTD     C540507   8.844   5.243   1.614 -0.4799  0.0135 -0.0790
    1BTD     C640508   8.809   5.200   1.746 -0.5240  0.1590 -0.0419
    1BTD     C740509   8.688   5.255   1.811 -0.5105  0.2788 -0.1167
    1BTD     C840510   8.608   5.351   1.740 -0.4537  0.2470 -0.2250
    1BTD    C1540511   8.645   5.391   1.611 -0.4119  0.1030 -0.2579
    1BTD    C1640512   8.762   5.338   1.548 -0.4249 -0.0126 -0.1858
    1BTD    C4340513   8.744   5.429   1.323 -0.1276 -0.8883 -0.2811
    1BTD    C4440514   8.666   5.366   1.209 -1.4208 -0.9440  1.2394
    1BTD    C4540515   8.756   5.392   1.089 -0.1165  0.2612 -0.8829
    1BTD    C4640516   8.724   5.274   0.990 -1.1448 -1.1771  0.0018
    1BTD    C4740517   8.513   5.401   1.206  1.0616  0.4738  1.1032
    1BTD    C4840518   8.464   5.522   1.121  1.4081 -0.2690 -0.1267
    1BTD    C4940519   8.323   5.557   1.105  0.2549  0.0138  0.0840
    1BTD    C5040520   8.285   5.666   1.199 -0.7552 -0.5653 -0.0191
    1BTD    C7540521   8.547   5.617   1.492 -0.2510 -0.2138 -0.5797
    1BTD    C7640522   8.583   5.752   1.566 -1.2239 -0.3311  0.6904
    1BTD    C7740523   8.744   5.752   1.608  0.7698  1.5472  0.8835
    1BTD    C7840524   8.771   5.657   1.719 -0.8986  0.0704 -0.1344
    1BTD    C7940525   8.566   5.868   1.454  0.4412  0.3495 -0.1839
    1BTD    C8040526   8.612   5.872   1.306 -0.5119 -1.2573 -0.9016
    1BTD    C8140527   8.759   5.869   1.277 -1.0014 -0.2717  0.9299
    1BTD    C8240528   8.805   5.927   1.149  0.1949 -0.1264 -0.4278
    2TTP     S140529   9.091   5.105   1.528 -0.0324  0.0602 -0.2187
    2TTP     S540530   9.072   5.307   1.149 -0.2537 -0.4058 -0.4584
    2TTP     C140531   9.219   5.200   1.150 -0.0525 -0.1310 -0.2738
    2TTP     C240532   9.234   5.131   1.267  0.0281  0.0290 -0.1889
    2TTP     C340533   9.129   5.161   1.360 -0.0668 -0.0596 -0.2666
    2TTP     C440534   8.944   5.212   1.527 -0.2339 -0.2146 -0.4033
    2TTP    C1740535   8.930   5.281   1.410 -0.3138 -0.3748 -0.4882
    2TTP    C1840536   9.034   5.252   1.317 -0.2193 -0.2861 -0.4105
    2TTP    C3240537   9.341   5.030   1.301  0.1005 -0.6840 -0.4669
    2TTP    C3340538   9.398   4.972   1.429  0.3580  0.4506 -0.6890
    2TTP    C3440539   9.450   5.054   1.540  0.4104  1.1573 -0.2803
    2TTP    C3540540   9.535   4.969   1.637 -0.7062 -0.3620 -0.2256
    2TTP    C3640541   9.564   5.010   1.777  1.8074  0.5616 -0.3226
    2TTP    C3740542   9.537   4.889   1.861 -0.3706 -0.4999 -1.5603
    2TTP    C3840543   9.385   4.870   1.896 -1.5306 -0.9820  0.4118
    2TTP    C3940544   9.320   4.746   1.952  0.2698  0.5766 -0.0028
    2TTP    C4040545   9.273   4.745   2.107 -1.0428  0.7344  0.1675
    2TTP    C4140546   9.277   4.594   2.151  1.0523  0.4385  0.1805
    2TTP    C4240547   9.324   4.577   2.291  0.1157 -0.4649 -0.3589
    3TTP     S140548   8.349   5.397   1.896  0.0351  0.4886  0.2802
    3TTP     S540549   8.190   5.602   1.553 -0.0756 -0.1858 -0.0754
    3TTP     C140550   8.059   5.590   1.678  0.0759  0.4025  0.1489
    3TTP     C240551   8.101   5.525   1.792  0.1190  0.6456  0.2719
    3TTP     C340552   8.237   5.484   1.783  0.0341  0.3757  0.1935
    3TTP     C440553   8.480   5.410   1.770 -0.1166 -0.0998  0.0558
    3TTP    C1740554   8.439   5.474   1.657 -0.1593 -0.3429 -0.0672
    3TTP    C1840555   8.302   5.515   1.665 -0.0744 -0.0731  0.0113
    3TTP    C3240556   8.020   5.458   1.905 -0.4184 -0.5924  0.2016
    3TTP    C3340557   8.061   5.459   2.066 -0.7548 -1.0683  0.5762
    3TTP    C3440558   8.094   5.584   2.156 -0.4393 -1.5929  0.4562
    3TTP    C3540559   8.108   5.576   2.306  0.4688  0.1893  0.6384
    3TTP    C3640560   8.263   5.551   2.326 -1.1451  0.0502 -0.6965
    3TTP    C3740561   8.341   5.416   2.316 -0.2198  0.0479 -1.3465
    3TTP    C3840562   8.496   5.449   2.341 -0.8852  0.0969  2.2088
    3TTP    C3940563   8.604   5.342   2.389 -0.2190  1.3670  0.5358
    3TTP    C4040564   8.554   5.230   2.483  0.0732 -1.8812  1.4568
    3TTP    C4140565   8.651   5.122   2.510 -0.6366 -1.9287  1.3376
    3TTP    C4240566   8.604   4.992   2.532  1.2866  0.1639 -0.4281
    4FIC     F140567   9.048   5.166   0.340 -0.4683 -0.4456 -0.2303
    4FIC     F240568   9.286   5.041   0.302  0.1497  0.7257 -0.3102
    4FIC     O140569   9.057   5.241   0.876 -0.6759 -0.4348 -0.2280
    4FIC     N540570   9.636   4.914   0.628  0.8910  2.4176 -0.4233
    4FIC     N640571   9.595   4.997   1.055  0.6042  2.1898 -0.4054
    4FIC    C1940572   9.288   5.148   1.030 -0.1588  0.6882 -0.3034
    4FIC    C2040573   9.277   5.134   0.897 -0.1309  0.6397 -0.3009
    4FIC    C2140574   9.155   5.184   0.825 -0.4075  0.0467 -0.2610
    4FIC    C2240575   9.174   5.153   0.682 -0.2964  0.1526 -0.2690
    4FIC    C2340576   9.088   5.181   0.576 -0.4687 -0.2636 -0.2414
    4FIC    C2440577   9.128   5.142   0.449 -0.3125 -0.0581 -0.2561
    4FIC    C2540578   9.251   5.077   0.430  0.0062  0.5456 -0.2972
    4FIC    C2640579   9.338   5.049   0.535  0.1795  0.9633 -0.3250
    4FIC    C2740580   9.299   5.088   0.664  0.0253  0.7637 -0.3107
    4FIC    C2840581   9.367   5.074   0.795  0.1400  1.0870 -0.3319
    4FIC    C2940582   9.489   5.015   0.818  0.4392  1.6863 -0.3725
    4FIC    C3040583   9.569   4.960   0.713  0.6869  2.0862 -0.4003
    4FIC    C3140584   9.547   5.006   0.948  0.5283  1.9599 -0.3903
    5FIC     F140585   7.683   6.053   1.103 -0.0647 -0.3588 -0.3913
    5FIC     F240586   7.454   6.036   1.250  0.2956  1.0042  0.3684
    5FIC     O140587   8.025   5.770   1.413 -0.3543 -1.1516 -0.7910
    5FIC     N540588   7.369   5.809   1.681  0.6075  2.3986  1.1758
    5FIC     N640589   7.682   5.591   1.894  0.3084  1.5045  0.7103
    5FIC    C1940590   7.927   5.652   1.663 -0.1129 -0.1309 -0.2072
    5FIC    C2040591   7.850   5.724   1.579 -0.0540  0.0153 -0.1363
    5FIC    C2140592   7.908   5.781   1.453 -0.1866 -0.5375 -0.4515
    5FIC    C2240593   7.798   5.853   1.386 -0.0780 -0.2053 -0.2773
    5FIC    C2340594   7.803   5.923   1.265 -0.1409 -0.5103 -0.4567
    5FIC    C2440595   7.685   5.983   1.222 -0.0120 -0.0909 -0.2324
    5FIC    C2540596   7.568   5.974   1.297  0.1735  0.6112  0.1590
    5FIC    C2640597   7.562   5.905   1.418  0.2373  0.9190  0.3398
    5FIC    C2740598   7.680   5.843   1.463  0.1088  0.5026  0.1174
    5FIC    C2840599   7.707   5.764   1.585  0.1308  0.6660  0.2196
    5FIC    C2940600   7.618   5.732   1.685  0.2923  1.2994  0.5761
    5FIC    C3040601   7.481   5.775   1.682  0.4649  1.9016  0.9046
    5FIC    C3140602   7.653   5.655   1.799  0.3003  1.4085  0.6479
    1BTD     S240603  10.752   8.095   7.973 -0.1819  0.4953  0.2823
    1BTD     N140604  10.774   8.267   7.924 -0.0927  0.4249  0.0732
    1BTD     N240605  10.877   8.032   7.860 -0.2193  0.2918  0.3536
    1BTD     N340606  11.170   8.213   7.541 -0.1352 -0.2496  0.1210
    1BTD     N440607  11.042   8.502   7.620  0.0215 -0.0854 -0.2241
    1BTD     C540608  10.915   8.386   7.764 -0.0350  0.1564 -0.0778
    1BTD     C640609  10.868   8.268   7.831 -0.0954  0.2620  0.0674
    1BTD     C740610  10.926   8.137   7.795 -0.1662  0.1874  0.2245
    1BTD     C840611  11.028   8.130   7.694 -0.1736  0.0112  0.2279
    1BTD    C1540612  11.072   8.248   7.632 -0.1130 -0.0872  0.0825
    1BTD    C1640613  11.016   8.375   7.666 -0.0447 -0.0154 -0.0686
    1BTD    C4340614  11.162   8.570   7.568 -0.1754 -0.0661 -1.2555
    1BTD    C4440615  11.189   8.659   7.450 -0.5377  0.9839  0.7437
    1BTD    C4540616  11.115   8.608   7.333  0.1513 -0.3895 -0.0608
    1BTD    C4640617  11.111   8.692   7.201  2.0877  0.1635 -1.3476
    1BTD    C4740618  11.333   8.714   7.424  0.4080 -0.3753 -0.2768
    1BTD    C4840619  11.449   8.617   7.393  0.4541 -0.7570 -1.7456
    1BTD    C4940620  11.491   8.524   7.514 -0.8748 -0.0245  0.9476
    1BTD    C5040621  11.627   8.455   7.493  0.0576  0.7910  0.5707
    1BTD    C7540622  11.210   8.298   7.434  0.2651  0.0186  0.4906
    1BTD    C7640623  11.189   8.247   7.279 -0.8040 -0.9602  0.0848
    1BTD    C7740624  11.042   8.237   7.270 -0.0864  0.9761 -0.2322
    1BTD    C7840625  10.965   8.194   7.139  0.0109  0.4287 -0.3742
    1BTD    C7940626  11.247   8.340   7.179 -0.7552 -0.5309 -1.0721
    1BTD    C8040627  11.394   8.307   7.109  1.2210  0.6350 -0.0647
    1BTD    C8140628  11.417   8.373   6.969  0.7457  0.5010 -1.6592
    1BTD    C8240629  11.559   8.350   6.911  1.4985  0.8784 -1.0290
    2TTP     S140630  10.741   8.624   7.854  0.0150  0.4798  0.0390
    2TTP     S540631  10.954   8.867   7.570  0.2081  0.3951  0.1111
    2TTP     C140632  10.820   8.967   7.643  0.0308  0.3553 -0.1577
    2TTP     C240633  10.747   8.898   7.735 -0.0393  0.3791 -0.1956
    2TTP     C340634  10.793   8.763   7.751  0.0446  0.4294 -0.0142
    2TTP     C440635  10.875   8.524   7.781  0.1926  0.5195  0.3077
    2TTP    C1740636  10.948   8.594   7.689  0.2627  0.4959  0.3457
    2TTP    C1840637  10.902   8.728   7.673  0.1788  0.4451  0.1640
    2TTP    C3240638  10.622   8.960   7.810  1.3370  0.6140  0.1954
    2TTP    C3340639  10.500   8.872   7.866 -0.2171 -0.5040 -0.6548
    2TTP    C3440640  10.421   8.968   7.955 -0.1105  0.4908  0.8839
    2TTP    C3540641  10.447   9.013   8.110 -0.5828  0.2920  0.2115
    2TTP    C3640642  10.430   8.892   8.212 -0.3137 -0.2376  0.3993
    2TTP    C3740643  10.423   8.951   8.365 -0.0330  0.2716  1.7014
    2TTP    C3840644  10.422   8.846   8.482  0.8203  0.3403  1.0599
    2TTP    C3940645  10.374   8.907   8.617 -0.4182  0.9719  0.6812
    2TTP    C4040646  10.222   8.944   8.644 -0.7638  0.3073 -0.2781
    2TTP    C4140647  10.146   8.887   8.762 -0.2155  1.0946 -0.4015
    2TTP    C4240648  10.224   8.798   8.853 -0.0510 -0.5673 -0.1018
    3TTP     S140649  11.108   7.841   7.634 -0.1255 -0.0923 -0.0610
    3TTP     S540650  11.386   7.989   7.341 -0.2034 -0.1185 -0.1482
    3TTP     C140651  11.386   7.807   7.334 -0.4091 -0.1112 -0.3217
    3TTP     C240652  11.300   7.751   7.424 -0.3972 -0.1028 -0.3049
    3TTP     C340653  11.231   7.849   7.502 -0.2252 -0.1017 -0.1544
    3TTP     C440654  11.109   8.023   7.642  0.0802 -0.0994  0.1124
    3TTP    C1740655  11.195   8.080   7.552  0.0683 -0.1079  0.0958
    3TTP    C1840656  11.263   7.981   7.474 -0.1037 -0.1092 -0.0547
    3TTP    C3240657  11.264   7.605   7.411 -0.2129 -0.2256 -1.6216
    3TTP    C3340658  11.172   7.535   7.529 -0.8344 -1.1677 -0.1404
    3TTP    C3440659  11.105   7.402   7.498 -0.7565  0.6233  0.0275
    3TTP    C3540660  11.030   7.371   7.372  0.6140 -0.1997  0.1618
    3TTP    C3640661  10.927   7.471   7.307 -0.5005  0.8059  1.4262
    3TTP    C3740662  10.959   7.609   7.275  1.4881  0.1121  0.2592
    3TTP    C3840663  10.818   7.689   7.234 -0.1898  1.9004  0.3624
    3TTP    C3940664  10.749   7.643   7.108  0.4598  1.3755  0.6641
    3TTP    C4040665  10.686   7.760   7.043  1.3822  0.5522 -1.3863
    3TTP    C4140666  10.682   7.761   6.897  0.3162 -0.4428 -1.5954
    3TTP    C4240667  10.800   7.839   6.850  0.4017  0.2662  0.2352
    4FIC     F140668  11.286   9.580   7.391  0.3541  0.3386 -0.0784
    4FIC     F240669  11.079   9.668   7.238  0.4663  0.2956 -0.2581
    4FIC     O140670  11.056   9.159   7.642  0.0019  0.7498  0.2935
    4FIC     N540671  10.617   9.495   7.197  0.3779  0.5271 -0.2507
    4FIC     N640672  10.479   9.148   7.424  0.0801  0.8574  0.0761
    4FIC    C1940673  10.777   9.094   7.585 -0.0151  0.8548  0.2542
    4FIC    C2040674  10.843   9.196   7.528  0.0689  0.7532  0.1677
    4FIC    C2140675  10.986   9.223   7.562  0.0718  0.7045  0.1948
    4FIC    C2240676  11.027   9.341   7.483  0.1736  0.5939  0.0818
    4FIC    C2340677  11.151   9.403   7.481  0.2120  0.5178  0.0622
    4FIC    C2440678  11.166   9.513   7.398  0.3107  0.4179 -0.0529
    4FIC    C2540679  11.059   9.559   7.319  0.3690  0.3962 -0.1453
    4FIC    C2640680  10.935   9.497   7.320  0.3309  0.4718 -0.1267
    4FIC    C2740681  10.918   9.385   7.404  0.2313  0.5732 -0.0105
    4FIC    C2840682  10.800   9.298   7.429  0.1690  0.6700  0.0387
    4FIC    C2940683  10.676   9.310   7.370  0.1986  0.6807 -0.0234
    4FIC    C3040684  10.644   9.412   7.275  0.2973  0.5963 -0.1483
    4FIC    C3140685  10.569   9.221   7.400  0.1330  0.7777  0.0317
    5FIC     F140686  11.875   7.877   6.669  0.2178 -0.0950 -0.1532
    5FIC     F240687  11.886   7.605   6.657  0.4483 -0.1005  0.1706
    5FIC     O140688  11.565   7.948   7.107  0.0521  0.1636 -0.3122
    5FIC     N540689  11.680   7.265   6.953  0.6617  0.0757  0.5227
    5FIC     N640690  11.436   7.376   7.297  0.4858  0.2786  0.3331
    5FIC    C1940691  11.465   7.714   7.251  0.2136  0.2500 -0.0594
    5FIC    C2040692  11.542   7.707   7.141  0.2462  0.1853 -0.0321
    5FIC    C2140693  11.590   7.832   7.073  0.1581  0.1440 -0.1683
    5FIC    C2240694  11.671   7.788   6.958  0.2225  0.0763 -0.0969
    5FIC    C2340695  11.737   7.868   6.865  0.1779  0.0207 -0.1761
    5FIC    C2440696  11.808   7.804   6.764  0.2559 -0.0380 -0.0829
    5FIC    C2540697  11.814   7.664   6.759  0.3747 -0.0407  0.0840
    5FIC    C2640698  11.749   7.583   6.852  0.4198  0.0144  0.1636
    5FIC    C2740699  11.676   7.646   6.954  0.3421  0.0744  0.0712
    5FIC    C2840700  11.597   7.591   7.066  0.3614  0.1411  0.1178
    5FIC    C2940701  11.578   7.458   7.095  0.4661  0.1589  0.2706
    5FIC    C3040702  11.634   7.352   7.017  0.5733  0.1131  0.4089
    5FIC    C3140703  11.500   7.414   7.206  0.4763  0.2247  0.3041
    1BTD     S240704   1.188   0.409  10.676 -0.0951  0.1231  0.1368
    1BTD     N140705   1.146   0.289  10.803 -0.4147 -0.1539 -0.2248
    1BTD     N240706   1.047   0.516  10.711  0.1734  0.3816  0.4399
    1BTD     N340707   0.686   0.516  11.011  0.1433  0.4080  0.4041
    1BTD     N440708   0.808   0.237  11.125 -0.5812 -0.2517 -0.4153
    1BTD     C540709   0.968   0.265  10.970 -0.4930 -0.1970 -0.3145
    1BTD     C640710   1.036   0.332  10.862 -0.3103 -0.0451 -0.1073
    1BTD     C740711   0.980   0.459  10.810  0.0189  0.2546  0.2649
    1BTD     C840712   0.860   0.513  10.869  0.1490  0.3874  0.4113
    1BTD    C1540713   0.798   0.444  10.974 -0.0387  0.2304  0.1987
    1BTD    C1640714   0.851   0.321  11.024 -0.3558 -0.0584 -0.1598
    1BTD    C4340715   0.732   0.295  11.236  0.3134 -0.0574  0.1849
    1BTD    C4440716   0.802   0.385  11.338  0.2906 -0.3635 -1.4773
    1BTD    C4540717   0.719   0.454  11.451 -0.3438 -0.4705  1.4571
    1BTD    C4640718   0.612   0.544  11.408  0.2757  0.5733 -0.9802
    1BTD    C4740719   0.925   0.309  11.393  1.9529  0.2469  0.8374
    1BTD    C4840720   0.899   0.204  11.506  1.7280  0.0011 -0.6762
    1BTD    C4940721   0.999   0.187  11.626  0.3702 -0.2110  0.7076
    1BTD    C5040722   1.059   0.297  11.716  0.7436 -0.0626 -0.2800
    1BTD    C7540723   0.553   0.470  11.064  0.5791  0.0183  1.3708
    1BTD    C7640724   0.422   0.463  10.976  0.2915 -0.6442 -0.4229
    1BTD    C7740725   0.297   0.474  11.067 -0.0710 -0.0961  0.3276
    1BTD    C7840726   0.279   0.590  11.156 -0.0709 -1.0700  0.0710
    1BTD    C7940727   0.441   0.351  10.865 -0.1480  2.1114 -0.8316
    1BTD    C8040728   0.413   0.202  10.896  1.9281  1.4770 -0.8231
    1BTD    C8140729   0.441   0.138  11.040 -0.4685 -0.5286  1.6016
    1BTD    C8240730   0.378   0.006  11.046 -0.2804  0.6714  0.3806
    2TTP     S140731   1.074  -0.008  10.978  0.2484 -0.1194 -0.7126
    2TTP     S540732   0.743  -0.115  11.232  0.4832 -0.0832 -0.3903
    2TTP     C140733   0.818  -0.268  11.167  0.4865 -0.0960 -0.3558
    2TTP     C240734   0.925  -0.244  11.085  0.4143 -0.1080 -0.4537
    2TTP     C340735   0.951  -0.104  11.070  0.3536 -0.1073 -0.5589
    2TTP     C440736   0.999   0.144  11.043  0.2450 -0.1066 -0.7472
    2TTP    C1740737   0.892   0.120  11.125  0.3173 -0.0947 -0.6492
    2TTP    C1840738   0.866  -0.020  11.140  0.3780 -0.0951 -0.5438
    2TTP    C3240739   0.985  -0.341  10.994 -1.6970 -0.9611 -0.9615
    2TTP    C3340740   0.925  -0.398  10.872  1.0069 -0.1758  0.1399
    2TTP    C3440741   1.009  -0.476  10.763  0.4576 -0.3853 -0.3986
    2TTP    C3540742   1.055  -0.619  10.805 -0.4871  0.4305 -0.2755
    2TTP    C3640743   0.934  -0.703  10.816 -0.0212 -0.1406  0.8855
    2TTP    C3740744   0.956  -0.843  10.817 -1.3833  0.7640 -0.2163
    2TTP    C3840745   0.982  -0.910  10.960  0.0216 -0.2155 -0.1887
    2TTP    C3940746   0.994  -1.058  10.965  0.2705  0.5959 -0.1191
    2TTP    C4040747   1.102  -1.118  10.861 -1.1201  0.0848 -0.9258
    2TTP    C4140748   1.134  -1.278  10.845 -0.7197 -0.6019 -0.6453
    2TTP    C4240749   1.216  -1.342  10.964  0.8240  0.1302  1.2653
    3TTP     S140750   0.785   0.786  10.750 -0.1687  0.1934 -0.4720
    3TTP     S540751   0.468   0.820  11.039 -0.3181  0.2156 -0.6378
    3TTP     C140752   0.470   0.971  10.937 -0.3099  0.1782 -0.6935
    3TTP     C240753   0.568   0.969  10.842 -0.2633  0.1692 -0.6454
    3TTP     C340754   0.645   0.849  10.846 -0.2324  0.1914 -0.5631
    3TTP     C440755   0.783   0.635  10.852 -0.1769  0.2308 -0.4160
    3TTP    C1740756   0.685   0.637  10.947 -0.2235  0.2399 -0.4642
    3TTP    C1840757   0.608   0.757  10.943 -0.2544  0.2176 -0.5469
    3TTP    C3240758   0.570   1.076  10.743 -0.2114 -0.6337  1.8866
    3TTP    C3340759   0.644   1.058  10.609  0.3683 -0.0808 -0.3555
    3TTP    C3440760   0.536   0.991  10.518 -1.2507 -0.8256 -0.0419
    3TTP    C3540761   0.583   0.992  10.373 -1.0078 -0.1490  1.2328
    3TTP    C3640762   0.494   0.924  10.281  0.3343 -0.4800  0.0232
    3TTP    C3740763   0.349   0.932  10.292  1.5928  0.5307 -0.8064
    3TTP    C3840764   0.267   1.045  10.251 -0.4039 -1.0058 -0.0580
    3TTP    C3940765   0.152   1.067  10.349  0.1139  1.0229  0.3412
    3TTP    C4040766   0.042   1.166  10.290 -0.1332  1.0113 -0.6970
    3TTP    C4140767   0.056   1.311  10.337 -0.8349 -0.4535 -0.0571
    3TTP    C4240768   0.037   1.423  10.246  0.1667 -0.1225  0.7457
    4FIC     F140769   0.158  -0.615  11.518 -0.3319 -0.3214 -0.3496
    4FIC     F240770   0.290  -0.853  11.514  0.1720 -0.0677  0.5952
    4FIC     O140771   0.525  -0.291  11.286 -0.7318 -0.3185 -0.9827
    4FIC     N540772   0.741  -0.964  11.343  0.6115  0.2987  1.5023
    4FIC     N640773   1.001  -0.663  11.162  0.1975  0.2501  0.8172
    4FIC    C1940774   0.781  -0.403  11.199 -0.3924 -0.0755 -0.3049
    4FIC    C2040775   0.684  -0.475  11.258 -0.3115 -0.0858 -0.1826
    4FIC    C2140776   0.555  -0.410  11.300 -0.4976 -0.2143 -0.5514
    4FIC    C2240777   0.472  -0.517  11.359 -0.3471 -0.1915 -0.2994
    4FIC    C2340778   0.344  -0.505  11.412 -0.4361 -0.2816 -0.4923
    4FIC    C2440779   0.285  -0.620  11.464 -0.2571 -0.2369 -0.1828
    4FIC    C2540780   0.353  -0.742  11.461  0.0024 -0.1066  0.3038
    4FIC    C2640781   0.481  -0.755  11.409  0.0926 -0.0162  0.4986
    4FIC    C2740782   0.542  -0.640  11.356 -0.0857 -0.0591  0.1909
    4FIC    C2840783   0.675  -0.619  11.294 -0.0536  0.0112  0.2821
    4FIC    C2940784   0.771  -0.715  11.274  0.1722  0.1407  0.7146
    4FIC    C3040785   0.754  -0.852  11.312  0.4130  0.2275  1.1462
    4FIC    C3140786   0.897  -0.686  11.212  0.1848  0.2003  0.7685
    5FIC     F140787  -0.073   1.066  11.539  0.4752 -0.6618 -0.4127
    5FIC     F240788  -0.249   1.163  11.356  0.6697  0.2742 -0.1190
    5FIC     O140789   0.368   0.997  11.233  0.2846 -0.7743 -0.6618
    5FIC     N540790  -0.188   1.252  10.873  0.8135  1.5397  0.1264
    5FIC     N640791   0.192   1.179  10.670  0.6253  1.2632 -0.1276
    5FIC    C1940792   0.356   1.065  10.948  0.4027  0.0800 -0.4695
    5FIC    C2040793   0.252   1.078  11.032  0.4431  0.0717 -0.4182
    5FIC    C2140794   0.266   1.042  11.177  0.3774 -0.3814 -0.5243
    5FIC    C2240795   0.135   1.068  11.240  0.4450 -0.2654 -0.4320
    5FIC    C2340796   0.099   1.050  11.373  0.4187 -0.5710 -0.4809
    5FIC    C2440797  -0.031   1.082  11.409  0.4960 -0.3796 -0.3727
    5FIC    C2540798  -0.121   1.132  11.314  0.5961  0.1027 -0.2212
    5FIC    C2640799  -0.086   1.151  11.181  0.6227  0.4096 -0.1721
    5FIC    C2740800   0.045   1.119  11.143  0.5455  0.2224 -0.2799
    5FIC    C2840801   0.113   1.127  11.012  0.5485  0.4488 -0.2651
    5FIC    C2940802   0.058   1.170  10.893  0.6327  0.9181 -0.1347
    5FIC    C3040803  -0.077   1.215  10.882  0.7319  1.2583  0.0083
    5FIC    C3140804   0.132   1.175  10.771  0.6281  1.1052 -0.1314
    1BTD     S240805   9.633   7.275   2.893  0.0152  0.0575  0.2495
    1BTD     N140806   9.550   7.415   2.817  0.1173  0.0323  0.0895
    1BTD     N240807   9.485   7.212   2.973 -0.0949  0.0815  0.0663
    1BTD     N340808   9.033   7.336   3.000 -0.1352  0.0846 -0.5955
    1BTD     N440809   9.113   7.587   2.808  0.1261  0.0238 -0.5670
    1BTD     C540810   9.321   7.502   2.815  0.1187  0.0286 -0.2535
    1BTD     C640811   9.423   7.408   2.854  0.0668  0.0426 -0.0832
    1BTD     C740812   9.386   7.294   2.941 -0.0522  0.0700 -0.0961
    1BTD     C840813   9.250   7.280   2.985 -0.1130  0.0823 -0.2789
    1BTD    C1540814   9.154   7.374   2.944 -0.0583  0.0681 -0.4418
    1BTD    C1640815   9.189   7.484   2.860  0.0562  0.0415 -0.4294
    1BTD    C4340816   8.971   7.619   2.827  0.5505 -0.0779  0.3105
    1BTD    C4440817   8.906   7.756   2.836 -0.9433  0.1155  0.7054
    1BTD    C4540818   8.980   7.834   2.940  0.8988 -0.9449 -0.6191
    1BTD    C4640819   9.005   7.802   3.089 -0.5759 -0.7178  0.4594
    1BTD    C4740820   8.745   7.763   2.822 -1.1685 -0.7706  0.5868
    1BTD    C4840821   8.651   7.708   2.716 -0.3432  0.0625 -0.8522
    1BTD    C4940822   8.641   7.788   2.577  0.0636 -0.9606  0.3228
    1BTD    C5040823   8.531   7.898   2.573  0.6319  0.2894 -0.4153
    1BTD    C7540824   8.895   7.341   2.939 -1.2628  0.4055 -0.8080
    1BTD    C7640825   8.764   7.349   3.026 -0.3965 -0.0816  0.9247
    1BTD    C7740826   8.767   7.456   3.123  1.0549 -1.1564  1.0178
    1BTD    C7840827   8.625   7.481   3.172 -0.6970  1.1440  0.3990
    1BTD    C7940828   8.628   7.304   2.938 -2.0478 -1.7157 -1.7403
    1BTD    C8040829   8.601   7.199   2.838 -0.4083  0.3070  0.4952
    1BTD    C8140830   8.619   7.082   2.923 -0.3781  0.2744  0.0093
    1BTD    C8240831   8.730   6.995   2.868  0.3867  1.1519  0.6161
    2TTP     S140832   9.402   7.644   2.569 -0.4083 -0.2725  0.0403
    2TTP     S540833   8.993   7.762   2.508 -0.4237 -0.1976  0.2823
    2TTP     C140834   9.086   7.793   2.355 -0.5359 -0.3346  0.1851
    2TTP     C240835   9.218   7.759   2.365 -0.5381 -0.3656  0.1045
    2TTP     C340836   9.250   7.706   2.493 -0.4508 -0.2826  0.1168
    2TTP     C440837   9.309   7.612   2.722 -0.2959 -0.1357  0.1376
    2TTP    C1740838   9.177   7.647   2.712 -0.2940 -0.1044  0.2181
    2TTP    C1840839   9.145   7.699   2.583 -0.3812 -0.1875  0.2058
    2TTP    C3240840   9.333   7.769   2.255  0.1645 -0.0618  0.0457
    2TTP    C3340841   9.436   7.871   2.301  0.2973  0.7176  1.6804
    2TTP    C3440842   9.545   7.885   2.187  0.7209 -0.6971 -0.9568
    2TTP    C3540843   9.620   7.764   2.119 -0.3293 -1.2277 -0.3066
    2TTP    C3640844   9.701   7.689   2.234 -0.4197 -0.8256  1.0671
    2TTP    C3740845   9.779   7.561   2.210 -0.9261 -2.0136  1.0177
    2TTP    C3840846   9.713   7.434   2.138 -0.2216 -0.4682 -0.6019
    2TTP    C3940847   9.850   7.380   2.115  0.0277  0.5195  0.7658
    2TTP    C4040848   9.839   7.225   2.077 -0.5541 -0.7840 -1.1044
    2TTP    C4140849   9.965   7.137   2.083 -1.0864  0.9005  0.6119
    2TTP    C4240850  10.077   7.202   2.025 -0.9074  0.5118 -0.0562
    3TTP     S140851   9.228   7.045   3.167 -0.0373 -0.1826 -0.3950
    3TTP     S540852   8.806   7.115   3.216  0.2050  0.7379  0.4441
    3TTP     C140853   8.851   6.965   3.308 -0.0158  0.3889 -0.0066
    3TTP     C240854   8.984   6.934   3.299 -0.1035  0.0842 -0.2924
    3TTP     C340855   9.055   7.028   3.218  0.0002  0.1152 -0.1656
    3TTP     C440856   9.183   7.195   3.075  0.1836  0.1663  0.0558
    3TTP    C1740857   9.050   7.225   3.084  0.2715  0.4712  0.3415
    3TTP    C1840858   8.979   7.131   3.165  0.1674  0.4401  0.2147
    3TTP    C3240859   9.058   6.809   3.357  1.2878 -0.8903  0.4641
    3TTP    C3340860   9.112   6.838   3.491  0.3388  0.5488  0.7821
    3TTP    C3440861   9.156   6.732   3.576  0.7135 -0.8235  1.2514
    3TTP    C3540862   9.228   6.601   3.539 -0.0895 -0.3915 -1.2946
    3TTP    C3640863   9.142   6.485   3.600 -0.4264  0.6844  0.2921
    3TTP    C3740864   9.129   6.339   3.560 -1.2415  0.4442  0.8325
    3TTP    C3840865   9.235   6.224   3.618  0.5586  0.2299  0.3542
    3TTP    C3940866   9.386   6.250   3.583  0.9695 -0.5656 -0.1156
    3TTP    C4040867   9.500   6.132   3.594  1.5103  0.0807  0.1487
    3TTP    C4140868   9.529   6.075   3.742 -0.0613  0.0970  0.7625
    3TTP    C4240869   9.668   6.115   3.776 -1.3230  0.2931  0.2499
    4FIC     F140870   8.476   8.343   2.273  0.0937  0.0708  0.3286
    4FIC     F240871   8.486   8.307   2.003  0.1986  0.3519  0.2939
    4FIC     O140872   8.877   8.017   2.435 -0.0994 -0.2513  0.1624
    4FIC     N540873   8.787   8.022   1.731  0.2115  0.5267  0.1256
    4FIC     N640874   9.098   7.775   1.913  0.0393  0.2184  0.0028
    4FIC    C1940875   9.029   7.867   2.235 -0.0682 -0.0971  0.0703
    4FIC    C2040876   8.928   7.950   2.205 -0.0236 -0.0269  0.1134
    4FIC    C2140877   8.854   8.024   2.313 -0.0434 -0.1140  0.1592
    4FIC    C2240878   8.751   8.105   2.246  0.0165 -0.0041  0.1992
    4FIC    C2340879   8.658   8.191   2.305  0.0226 -0.0319  0.2484
    4FIC    C2440880   8.571   8.257   2.221  0.0843  0.0901  0.2795
    4FIC    C2540881   8.576   8.238   2.082  0.1386  0.2349  0.2615
    4FIC    C2640882   8.668   8.153   2.022  0.1328  0.2632  0.2124
    4FIC    C2740883   8.758   8.085   2.106  0.0703  0.1411  0.1804
    4FIC    C2840884   8.867   7.989   2.075  0.0482  0.1329  0.1271
    4FIC    C2940885   8.904   7.945   1.950  0.0863  0.2509  0.0962
    4FIC    C3040886   8.839   7.988   1.830  0.1552  0.4021  0.1124
    4FIC    C3140887   9.010   7.852   1.930  0.0603  0.2322  0.0450
    5FIC     F140888   8.079   7.045   3.569  0.2367  0.1785  0.2952
    5FIC     F240889   8.068   6.775   3.598  0.0484  0.1436 -0.0869
    5FIC     O140890   8.590   7.108   3.402  0.1843  0.0263  0.0766
    5FIC     N540891   8.415   6.431   3.522 -0.2599 -0.0148 -0.7920
    5FIC     N640892   8.817   6.535   3.386 -0.2627 -0.1265 -0.8857
    5FIC    C1940893   8.761   6.872   3.371 -0.0142 -0.0608 -0.3660
    5FIC    C2040894   8.633   6.867   3.412  0.0064 -0.0212 -0.2961
    5FIC    C2140895   8.551   6.993   3.425  0.1101  0.0223 -0.0661
    5FIC    C2240896   8.418   6.951   3.471  0.1063  0.0585 -0.0448
    5FIC    C2340897   8.308   7.033   3.498  0.1845  0.1045  0.1388
    5FIC    C2440898   8.191   6.971   3.541  0.1628  0.1326  0.1199
    5FIC    C2540899   8.186   6.831   3.556  0.0657  0.1144 -0.0770
    5FIC    C2640900   8.295   6.750   3.529 -0.0124  0.0685 -0.2608
    5FIC    C2740901   8.414   6.811   3.486  0.0079  0.0398 -0.2450
    5FIC    C2840902   8.546   6.753   3.450 -0.0575 -0.0100 -0.4072
    5FIC    C2940903   8.580   6.620   3.452 -0.1578 -0.0398 -0.6196
    5FIC    C3040904   8.489   6.517   3.490 -0.2134 -0.0260 -0.7136
    5FIC    C3140905   8.710   6.574   3.415 -0.2146 -0.0873 -0.7648
    1BTD     S240906   0.304   0.403   4.725 -0.6910 -0.2670 -0.4169
    1BTD     N140907   0.300   0.232   4.669 -0.9401 -0.2425 -0.4742
    1BTD     N240908   0.193   0.376   4.864 -0.2517 -0.2792 -0.0627
    1BTD     N340909  -0.041   0.012   5.046  0.1938 -0.2601  0.5555
    1BTD     N440910   0.090  -0.165   4.806 -0.6544 -0.2148  0.0485
    1BTD     C540911   0.189   0.027   4.744 -0.7807 -0.2286 -0.1953
    1BTD     C640912   0.220   0.167   4.753 -0.6956 -0.2447 -0.2387
    1BTD     C740913   0.160   0.247   4.861 -0.3103 -0.2652 -0.0081
    1BTD     C840914   0.072   0.184   4.956 -0.0293 -0.2687  0.2540
    1BTD    C1540915   0.045   0.046   4.943 -0.1254 -0.2525  0.2871
    1BTD    C1640916   0.102  -0.031   4.838 -0.4967 -0.2329  0.0649
    1BTD    C4340917   0.078  -0.279   4.898 -1.2226 -0.0336 -0.2456
    1BTD    C4440918   0.074  -0.444   4.889 -1.8445  0.5293 -0.7974
    1BTD    C4540919  -0.051  -0.513   4.838 -1.0990  0.7781 -0.4780
    1BTD    C4640920  -0.061  -0.669   4.816 -0.3678 -0.5128 -0.4324
    1BTD    C4740921   0.208  -0.501   4.828 -0.0437 -1.3175  0.0709
    1BTD    C4840922   0.337  -0.460   4.915  0.0453 -0.1909  0.4096
    1BTD    C4940923   0.444  -0.554   4.908  0.1241 -0.9981 -0.1638
    1BTD    C5040924   0.567  -0.496   4.965  1.1911 -1.0254 -0.8974
    1BTD    C7540925  -0.146  -0.094   5.015  0.7638 -0.0737 -0.3693
    1BTD    C7640926  -0.264  -0.146   5.113 -0.4687 -0.2171 -0.8457
    1BTD    C7740927  -0.368  -0.244   5.055 -0.2999 -0.2287  0.9143
    1BTD    C7840928  -0.343  -0.392   5.050  0.7599 -1.0167  1.0523
    1BTD    C7940929  -0.233  -0.195   5.263 -0.8225 -0.9763  0.0562
    1BTD    C8040930  -0.119  -0.301   5.278  0.2441  0.0727  0.0306
    1BTD    C8140931  -0.082  -0.380   5.405 -1.1478 -0.9971 -0.0543
    1BTD    C8240932  -0.034  -0.282   5.516  0.5264 -0.9115 -0.9228
    2TTP     S140933   0.256  -0.056   4.469  0.0723  0.2064  0.2573
    2TTP     S540934   0.051  -0.428   4.537  1.3017 -0.5774 -0.2626
    2TTP     C140935   0.094  -0.417   4.360  0.8133  0.0505 -0.3473
    2TTP     C240936   0.159  -0.301   4.329  0.4048  0.3293 -0.1917
    2TTP     C340937   0.179  -0.217   4.443  0.4629  0.0577  0.0000
    2TTP     C440938   0.213  -0.067   4.645  0.5608 -0.4213  0.3419
    2TTP    C1740939   0.148  -0.183   4.677  0.9692 -0.7000  0.1864
    2TTP    C1840940   0.128  -0.267   4.563  0.9111 -0.4282 -0.0054
    2TTP    C3240941   0.226  -0.293   4.196 -0.2183  1.3638  2.2335
    2TTP    C3340942   0.303  -0.180   4.141 -0.3636 -0.2220 -0.4024
    2TTP    C3440943   0.374  -0.216   4.014 -1.1567 -1.1238  1.2676
    2TTP    C3540944   0.388  -0.097   3.924 -0.7513 -0.2237  0.2747
    2TTP    C3640945   0.506  -0.011   3.971 -0.3470  0.5280 -0.8611
    2TTP    C3740946   0.489   0.134   3.939 -0.2569  0.9860 -1.3088
    2TTP    C3840947   0.620   0.203   3.956 -0.4344 -2.2488  0.0640
    2TTP    C3940948   0.696   0.255   3.832  1.1243 -0.2397 -1.0309
    2TTP    C4040949   0.610   0.364   3.749 -0.4008  1.0035 -0.0644
    2TTP    C4140950   0.528   0.288   3.641  0.5296 -0.8688 -0.4281
    2TTP    C4240951   0.382   0.322   3.685  0.1710  0.4717  0.5488
    3TTP     S140952  -0.005   0.394   5.145  0.2359  0.5924 -0.0244
    3TTP     S540953  -0.240   0.108   5.363  0.1557  0.0531 -0.8096
    3TTP     C140954  -0.263   0.272   5.439 -0.0936 -0.0824 -0.5886
    3TTP     C240955  -0.191   0.370   5.376 -0.0839  0.0762 -0.3330
    3TTP     C340956  -0.116   0.319   5.266  0.1211  0.3104 -0.3026
    3TTP     C440957   0.018   0.230   5.069  0.4856  0.7279 -0.2455
    3TTP    C1740958  -0.053   0.132   5.132  0.4757  0.5693 -0.5008
    3TTP    C1840959  -0.129   0.183   5.243  0.2704  0.3351 -0.5313
    3TTP    C3240960  -0.190   0.519   5.419 -0.5197 -0.9902  0.3854
    3TTP    C3340961  -0.182   0.638   5.331  1.9728 -1.7084  0.6637
    3TTP    C3440962  -0.292   0.650   5.228  0.0477  1.3616  0.3918
    3TTP    C3540963  -0.443   0.649   5.279  0.1141  0.1026 -1.7562
    3TTP    C3640964  -0.523   0.786   5.287 -1.8489  0.3359 -1.0181
    3TTP    C3740965  -0.677   0.769   5.320 -0.5205 -0.1182 -0.4331
    3TTP    C3840966  -0.758   0.903   5.349 -1.2234  0.8517 -0.4819
    3TTP    C3940967  -0.713   0.971   5.482 -0.4808  0.0160 -0.2027
    3TTP    C4040968  -0.773   0.934   5.615 -0.5682  0.1570 -0.4559
    3TTP    C4140969  -0.719   1.031   5.716  0.3183 -0.9308 -1.0409
    3TTP    C4240970  -0.800   1.039   5.850  1.4984 -1.1133 -0.7537
    4FIC     F140971  -0.205  -1.187   4.420  0.0904  0.1891  0.1442
    4FIC     F240972  -0.191  -1.207   4.149 -0.0970  0.3264  0.1247
    4FIC     O140973  -0.014  -0.686   4.495  0.4313  0.0379  0.2903
    4FIC     N540974  -0.036  -0.879   3.813 -0.1230  0.4153  0.2007
    4FIC     N640975   0.111  -0.484   3.926  0.1810  0.2694  0.3187
    4FIC    C1940976   0.067  -0.527   4.263  0.3735  0.1152  0.3234
    4FIC    C2040977   0.019  -0.653   4.255  0.2950  0.1476  0.2873
    4FIC    C2140978  -0.021  -0.728   4.379  0.3314  0.1044  0.2725
    4FIC    C2240979  -0.069  -0.860   4.334  0.2255  0.1562  0.2328
    4FIC    C2340980  -0.116  -0.964   4.413  0.2158  0.1416  0.2073
    4FIC    C2440981  -0.157  -1.080   4.348  0.1062  0.1997  0.1710
    4FIC    C2540982  -0.150  -1.090   4.208  0.0097  0.2702  0.1611
    4FIC    C2640983  -0.103  -0.986   4.129  0.0188  0.2856  0.1863
    4FIC    C2740984  -0.061  -0.868   4.193  0.1292  0.2272  0.2230
    4FIC    C2840985  -0.007  -0.741   4.138  0.1681  0.2246  0.2563
    4FIC    C2940986   0.015  -0.712   4.006  0.0994  0.2830  0.2578
    4FIC    C3040987  -0.013  -0.804   3.900 -0.0229  0.3555  0.2264
    4FIC    C3140988   0.068  -0.586   3.963  0.1448  0.2749  0.2913
    5FIC     F140989  -0.960  -0.088   5.701 -0.0293 -0.0682  0.2382
    5FIC     F240990  -0.974   0.095   5.902 -0.4761  0.4573 -0.2600
    5FIC     O140991  -0.511   0.074   5.446  0.1690 -0.3254  0.4234
    5FIC     N540992  -0.673   0.472   6.011 -0.9766  1.0295 -0.8442
    5FIC     N640993  -0.319   0.562   5.771 -0.7317  0.7226 -0.5994
    5FIC    C1940994  -0.364   0.306   5.548 -0.1875  0.0853  0.0130
    5FIC    C2040995  -0.476   0.258   5.605 -0.2198  0.1295 -0.0141
    5FIC    C2140996  -0.546   0.139   5.546 -0.0284 -0.0918  0.2058
    5FIC    C2240997  -0.664   0.113   5.631 -0.1211  0.0237  0.1116
    5FIC    C2340998  -0.759   0.013   5.617 -0.0074 -0.1047  0.2463
    5FIC    C2440999  -0.862   0.009   5.709 -0.1311  0.0463  0.1165
    5FIC    C2541000  -0.869   0.103   5.813 -0.3611  0.3169 -0.1403
    5FIC    C2641001  -0.775   0.204   5.828 -0.4759  0.4462 -0.2760
    5FIC    C2741002  -0.669   0.209   5.735 -0.3533  0.2968 -0.1476
    5FIC    C2841003  -0.554   0.302   5.723 -0.4230  0.3726 -0.2351
    5FIC    C2941004  -0.526   0.408   5.806 -0.6354  0.6206 -0.4749
    5FIC    C3041005  -0.607   0.443   5.918 -0.8223  0.8445 -0.6772
    5FIC    C3141006  -0.412   0.492   5.786 -0.6874  0.6753 -0.5420
    1BTD     S241007   3.637   1.787   5.885 -0.1121 -0.1509  0.5466
    1BTD     N141008   3.751   1.874   5.993 -0.0835  0.0394  0.3656
    1BTD     N241009   3.505   1.907   5.903 -0.2016 -0.2539  0.5774
    1BTD     N341010   3.440   2.309   6.137 -0.3322 -0.1202  0.3128
    1BTD     N441011   3.744   2.268   6.248 -0.1869  0.2413  0.0516
    1BTD     C541012   3.744   2.080   6.125 -0.1392  0.1405  0.2047
    1BTD     C641013   3.688   1.983   6.036 -0.1392  0.0175  0.3388
    1BTD     C741014   3.550   2.001   5.985 -0.2053 -0.1467  0.4573
    1BTD     C841015   3.475   2.116   6.027 -0.2680 -0.1797  0.4361
    1BTD    C1541016   3.534   2.210   6.114 -0.2655 -0.0556  0.3031
    1BTD    C1641017   3.667   2.192   6.163 -0.2018  0.1026  0.1889
    1BTD    C4341018   3.746   2.414   6.287  0.5013 -0.3920 -0.0543
    1BTD    C4441019   3.795   2.472   6.427 -0.9048 -0.4191 -0.3368
    1BTD    C4541020   3.838   2.633   6.432  0.2992 -0.1051  0.4720
    1BTD    C4641021   3.952   2.696   6.342 -0.1489 -0.4390 -0.1974
    1BTD    C4741022   3.698   2.436   6.528 -0.0672  0.9898 -0.2474
    1BTD    C4841023   3.738   2.443   6.684 -0.1208 -1.9252  1.6278
    1BTD    C4941024   3.797   2.328   6.766 -0.9853  1.6139  0.0816
    1BTD    C5041025   3.837   2.371   6.906  1.3671 -0.2985 -0.3480
    1BTD    C7541026   3.443   2.407   6.258 -1.3756  1.7304 -0.6015
    1BTD    C7641027   3.369   2.535   6.217 -0.5362  1.0918  1.0092
    1BTD    C7741028   3.433   2.608   6.102 -0.4826 -1.5704  0.3981
    1BTD    C7841029   3.355   2.728   6.040  0.0194  0.0540  0.7796
    1BTD    C7941030   3.321   2.615   6.343 -0.7316 -0.1001 -1.0221
    1BTD    C8041031   3.418   2.726   6.390  0.8533 -0.0926 -0.8817
    1BTD    C8141032   3.365   2.794   6.523  0.9543  0.0452  0.3647
    1BTD    C8241033   3.455   2.911   6.560  0.7212 -1.7682 -0.0158
    2TTP     S141034   4.027   1.997   6.183  0.2381 -0.1760 -0.0372
    2TTP     S541035   4.092   2.366   6.393 -0.6723  0.0527 -0.1501
    2TTP     C141036   4.247   2.271   6.395 -0.5359  0.2774  0.1868
    2TTP     C241037   4.236   2.151   6.330 -0.2466  0.2199  0.2414
    2TTP     C341038   4.105   2.130   6.277 -0.1227 -0.0036  0.0192
    2TTP     C441039   3.873   2.092   6.181  0.1013 -0.4006 -0.3742
    2TTP    C1741040   3.884   2.212   6.245 -0.1880 -0.3433 -0.4288
    2TTP    C1841041   4.015   2.233   6.299 -0.3120 -0.1198 -0.2066
    2TTP    C3241042   4.340   2.037   6.333 -0.1751  0.4849 -0.6228
    2TTP    C3341043   4.338   1.922   6.436  0.8862  0.0386  0.3164
    2TTP    C3441044   4.453   1.808   6.455 -0.8801 -1.0877  0.6393
    2TTP    C3541045   4.575   1.905   6.485 -0.6839  0.5604 -1.3976
    2TTP    C3641046   4.706   1.820   6.486 -0.0922 -1.0321 -0.1202
    2TTP    C3741047   4.807   1.845   6.598 -0.0454  0.4075  0.1724
    2TTP    C3841048   4.880   1.982   6.586  0.1943  0.6674 -0.2656
    2TTP    C3941049   4.994   2.010   6.699  0.7429 -1.9634  0.8137
    2TTP    C4041050   4.949   2.053   6.831  1.0763  0.5831  0.1448
    2TTP    C4141051   4.841   2.173   6.860  0.7284 -0.2173  1.1466
    2TTP    C4241052   4.872   2.307   6.788 -0.3873 -0.6201  0.1284
    3TTP     S141053   3.168   2.063   5.980 -0.2323  0.2106  0.2645
    3TTP     S541054   3.091   2.428   6.193  0.4618 -0.0833  1.0278
    3TTP     C141055   2.932   2.347   6.158  0.2929  0.3967  0.6687
    3TTP     C241056   2.946   2.229   6.090  0.0685  0.5157  0.4117
    3TTP     C341057   3.083   2.199   6.063  0.0220  0.2322  0.4892
    3TTP     C441058   3.327   2.144   6.015 -0.0633 -0.2693  0.6238
    3TTP    C1741059   3.312   2.261   6.083  0.1609 -0.3884  0.8806
    3TTP    C1841060   3.175   2.292   6.110  0.2075 -0.1049  0.8031
    3TTP    C3241061   2.838   2.142   6.032 -0.7433  1.1690  1.2232
    3TTP    C3341062   2.783   2.033   6.109  0.3065 -0.0658  0.4195
    3TTP    C3441063   2.668   1.966   6.039  0.0424  0.6870 -1.7626
    3TTP    C3541064   2.528   1.966   6.115 -0.6886  0.2354 -0.5459
    3TTP    C3641065   2.524   1.905   6.254  0.3549  0.1995 -0.1845
    3TTP    C3741066   2.383   1.909   6.320  0.8035  0.7151 -0.8099
    3TTP    C3841067   2.270   1.856   6.250 -0.1515  1.0116  0.6110
    3TTP    C3941068   2.154   1.900   6.313  0.8665  1.3575  1.5130
    3TTP    C4041069   2.045   1.910   6.199 -0.5057 -0.2882  0.2808
    3TTP    C4141070   1.920   2.004   6.247 -1.3765  0.2626 -0.1650
    3TTP    C4241071   1.811   2.021   6.138 -0.8942  0.0899  0.4090
    4FIC     F141072   4.375   2.814   6.987 -0.5517  0.1691 -0.2989
    4FIC     F241073   4.638   2.825   6.917 -0.3488 -0.3933  0.3492
    4FIC     O141074   4.194   2.434   6.647 -0.4182  0.2127 -0.4188
    4FIC     N541075   4.886   2.570   6.573  0.0384 -1.1704  1.1953
    4FIC     N641076   4.692   2.271   6.321  0.1019 -1.0231  0.9707
    4FIC    C1941077   4.381   2.310   6.458 -0.1767 -0.3089  0.1576
    4FIC    C2041078   4.416   2.405   6.547 -0.2182 -0.2980  0.1626
    4FIC    C2141079   4.314   2.464   6.640 -0.3434 -0.0217 -0.1439
    4FIC    C2241080   4.386   2.564   6.722 -0.3594 -0.0851 -0.0529
    4FIC    C2341081   4.333   2.644   6.823 -0.4606  0.1037 -0.2551
    4FIC    C2441082   4.421   2.731   6.887 -0.4547 -0.0060 -0.1132
    4FIC    C2541083   4.556   2.737   6.850 -0.3499 -0.2957  0.2209
    4FIC    C2641084   4.609   2.657   6.750 -0.2483 -0.4853  0.4240
    4FIC    C2741085   4.522   2.568   6.684 -0.2530 -0.3783  0.2847
    4FIC    C2841086   4.546   2.471   6.575 -0.1620 -0.5205  0.4303
    4FIC    C2941087   4.666   2.446   6.512 -0.0477 -0.8044  0.7520
    4FIC    C3041088   4.787   2.515   6.546 -0.0006 -1.0047  0.9947
    4FIC    C3141089   4.679   2.350   6.407  0.0341 -0.9230  0.8705
    5FIC     F141090   2.692   3.111   6.000  0.0984  0.2096  0.4697
    5FIC     F241091   2.457   3.055   6.124 -0.1977  0.1091 -0.1307
    5FIC     O141092   2.945   2.634   6.037 -0.0110  0.1643  0.6350
    5FIC     N541093   2.298   2.633   6.329 -0.7014 -0.0678 -0.8759
    5FIC     N641094   2.543   2.271   6.332 -0.7271 -0.0830 -0.6258
    5FIC    C1941095   2.810   2.410   6.168 -0.3327  0.0521  0.1204
    5FIC    C2041096   2.756   2.533   6.154 -0.2936  0.0675  0.1020
    5FIC    C2141097   2.831   2.643   6.085 -0.1256  0.1259  0.3768
    5FIC    C2241098   2.744   2.761   6.087 -0.1246  0.1284  0.2782
    5FIC    C2341099   2.771   2.888   6.035  0.0043  0.1740  0.4536
    5FIC    C2441100   2.672   2.984   6.049 -0.0238  0.1662  0.3098
    5FIC    C2541101   2.551   2.955   6.113 -0.1764  0.1144  0.0005
    5FIC    C2641102   2.524   2.829   6.165 -0.3056  0.0688 -0.1756
    5FIC    C2741103   2.622   2.730   6.152 -0.2795  0.0758 -0.0343
    5FIC    C2841104   2.624   2.588   6.196 -0.3894  0.0363 -0.1549
    5FIC    C2941105   2.524   2.521   6.262 -0.5493 -0.0188 -0.4486
    5FIC    C3041106   2.400   2.583   6.298 -0.6324 -0.0455 -0.6826
    5FIC    C3141107   2.535   2.384   6.300 -0.6463 -0.0538 -0.5443
    1BTD     S241108   5.613   4.632   3.813 -0.2743  0.6659 -0.5682
    1BTD     N141109   5.438   4.648   3.775 -0.1147  1.4485 -1.0206
    1BTD     N241110   5.651   4.536   3.665 -0.5068 -0.4957  0.0982
    1BTD     N341111   5.412   4.371   3.297 -0.6924 -1.4502  0.6397
    1BTD     N441112   5.150   4.508   3.432 -0.2091  0.9454 -0.7389
    1BTD     C541113   5.291   4.573   3.595 -0.1699  1.1570 -0.8569
    1BTD     C641114   5.418   4.585   3.661 -0.2366  0.8354 -0.6697
    1BTD     C741115   5.537   4.522   3.599 -0.4562 -0.2530 -0.0434
    1BTD     C841116   5.523   4.452   3.475 -0.5978 -0.9650  0.3643
    1BTD    C1541117   5.397   4.443   3.413 -0.5256 -0.6157  0.1613
    1BTD    C1641118   5.282   4.504   3.473 -0.3142  0.4329 -0.4422
    1BTD    C4341119   5.073   4.387   3.371 -1.5023 -0.9467  0.4071
    1BTD    C4441120   5.027   4.273   3.465 -1.1914 -2.2223  0.8737
    1BTD    C4541121   4.871   4.281   3.437  0.1486  0.3732  0.5458
    1BTD    C4641122   4.774   4.239   3.542  0.6963 -1.0698 -0.3326
    1BTD    C4741123   5.092   4.136   3.483 -1.1509 -0.3933 -0.5297
    1BTD    C4841124   5.242   4.132   3.519 -0.8783  0.1053  0.2452
    1BTD    C4941125   5.281   3.985   3.499 -0.9047 -1.3723 -0.0651
    1BTD    C5041126   5.399   3.936   3.574  1.0612 -0.3779  0.1315
    1BTD    C7541127   5.332   4.399   3.167  0.0204 -0.1938  0.4830
    1BTD    C7641128   5.358   4.325   3.042 -0.0742  1.1971 -0.1707
    1BTD    C7741129   5.242   4.258   2.971 -0.5277 -0.0680  0.0272
    1BTD    C7841130   5.177   4.135   3.033  0.6794  0.2523  0.4368
    1BTD    C7941131   5.439   4.398   2.942 -0.0596 -1.0512 -0.2322
    1BTD    C8041132   5.394   4.531   2.873 -0.5596 -0.4329  0.6015
    1BTD    C8141133   5.414   4.532   2.726  0.1813 -0.4138  0.8152
    1BTD    C8241134   5.370   4.416   2.619 -0.2647 -1.5376 -0.2151
    2TTP     S141135   5.095   4.764   3.729  0.3168 -0.0833 -0.3626
    2TTP     S541136   4.797   4.626   3.451  0.1277 -0.1884 -0.1087
    2TTP     C141137   4.720   4.748   3.563  0.1972 -0.1645 -0.0867
    2TTP     C241138   4.808   4.797   3.655  0.2596 -0.1308 -0.1638
    2TTP     C341139   4.938   4.741   3.641  0.2549 -0.1223 -0.2431
    2TTP     C441140   5.171   4.642   3.617  0.2472 -0.1070 -0.3847
    2TTP    C1741141   5.084   4.592   3.525  0.1847 -0.1407 -0.3075
    2TTP    C1841142   4.953   4.649   3.539  0.1897 -0.1491 -0.2283
    2TTP    C3241143   4.768   4.909   3.766  1.1539  0.7167  0.7845
    2TTP    C3341144   4.865   5.016   3.804 -0.3592  0.2856  0.4393
    2TTP    C3441145   4.814   5.114   3.896 -0.4451 -0.7817  0.8446
    2TTP    C3541146   4.914   5.166   3.995 -2.7275 -0.3830  0.8223
    2TTP    C3641147   4.855   5.227   4.117  0.9817  1.3045 -1.2053
    2TTP    C3741148   4.865   5.121   4.227 -0.3332  0.3014 -0.4329
    2TTP    C3841149   4.766   4.996   4.229 -0.5444 -0.7101  0.9744
    2TTP    C3941150   4.779   4.910   4.354 -0.6182  0.2258  0.2249
    2TTP    C4041151   4.889   4.915   4.473  0.1642 -0.6422  0.0800
    2TTP    C4141152   4.855   4.990   4.611  0.3391 -0.3359 -0.8109
    2TTP    C4241153   4.764   5.115   4.562 -0.2927  0.1591  0.0441
    3TTP     S141154   5.770   4.285   3.428  0.0219 -0.0457 -0.0618
    3TTP     S541155   5.557   4.072   3.122 -0.0863  0.0471 -0.0510
    3TTP     C141156   5.713   3.985   3.154 -0.1242 -0.0236 -0.0558
    3TTP     C241157   5.788   4.046   3.251 -0.0931 -0.0563 -0.0594
    3TTP     C341158   5.725   4.163   3.303 -0.0381 -0.0269 -0.0585
    3TTP     C441159   5.614   4.371   3.396  0.0600  0.0249 -0.0570
    3TTP    C1741160   5.538   4.311   3.299  0.0285  0.0576 -0.0533
    3TTP    C1841161   5.602   4.193   3.247 -0.0265  0.0283 -0.0543
    3TTP    C3241162   5.913   3.994   3.311 -0.8375  0.4268  0.7110
    3TTP    C3341163   5.901   3.902   3.427 -0.1554  0.1590 -1.0020
    3TTP    C3441164   6.026   3.823   3.464  0.2832  0.9319 -1.0065
    3TTP    C3541165   6.156   3.898   3.461 -1.1531  0.4650 -0.2665
    3TTP    C3641166   6.273   3.813   3.537  1.2236 -1.4535  0.6701
    3TTP    C3741167   6.351   3.694   3.474  0.5479 -0.4638  0.1229
    3TTP    C3841168   6.443   3.702   3.351  0.3150 -0.5785 -0.7624
    3TTP    C3941169   6.502   3.580   3.304 -1.2449 -0.2098 -1.6166
    3TTP    C4041170   6.392   3.495   3.256  1.1010  0.1242 -0.3398
    3TTP    C4141171   6.381   3.513   3.104 -1.0305 -0.3961  1.5469
    3TTP    C4241172   6.325   3.401   3.014  0.0559  0.0925 -0.8851
    4FIC     F141173   4.182   4.860   2.951  0.3159 -0.4476 -0.0550
    4FIC     F241174   3.995   4.925   3.138  0.5493  0.7837 -0.2300
    4FIC     O141175   4.613   4.763   3.265  0.0113 -0.9809  0.2012
    4FIC     N541176   4.033   4.949   3.631  0.6673  2.1739 -0.2992
    4FIC     N641177   4.407   4.860   3.839  0.3823  1.5092 -0.0637
    4FIC    C1941178   4.587   4.791   3.555  0.1260  0.0062  0.1250
    4FIC    C2041179   4.486   4.813   3.469  0.1934  0.0921  0.0674
    4FIC    C2141180   4.507   4.797   3.321  0.1278 -0.4382  0.1121
    4FIC    C2241181   4.378   4.828   3.257  0.2284 -0.1856  0.0293
    4FIC    C2341182   4.348   4.826   3.121  0.2137 -0.5019  0.0342
    4FIC    C2441183   4.219   4.859   3.084  0.3234 -0.1639 -0.0543
    4FIC    C2541184   4.123   4.893   3.180  0.4433  0.4703 -0.1444
    4FIC    C2641185   4.152   4.894   3.316  0.4586  0.7889 -0.1498
    4FIC    C2741186   4.282   4.861   3.356  0.3487  0.4545 -0.0610
    4FIC    C2841187   4.345   4.853   3.490  0.3321  0.6506 -0.0412
    4FIC    C2941188   4.283   4.878   3.610  0.4271  1.2373 -0.1103
    4FIC    C3041189   4.146   4.917   3.621  0.5589  1.7502 -0.2140
    4FIC    C3141190   4.352   4.868   3.735  0.4019  1.3834 -0.0843
    5FIC     F141191   5.216   3.386   2.885  0.3291 -0.3685 -0.0665
    5FIC     F241192   5.426   3.277   2.750  0.4351 -0.2967  0.0399
    5FIC     O141193   5.460   3.800   3.135 -0.0192 -0.0471 -0.2570
    5FIC     N541194   5.901   3.415   2.734  0.3394  0.0356  0.0570
    5FIC     N641195   6.049   3.760   2.956  0.0460  0.2722 -0.1134
    5FIC    C1941196   5.747   3.843   3.094 -0.0414  0.1355 -0.2230
    5FIC    C2041197   5.677   3.743   3.037  0.0420  0.0520 -0.1792
    5FIC    C2141198   5.530   3.728   3.063  0.0478 -0.0391 -0.2004
    5FIC    C2241199   5.486   3.610   2.985  0.1481 -0.1159 -0.1411
    5FIC    C2341200   5.358   3.556   2.977  0.1881 -0.2128 -0.1364
    5FIC    C2441201   5.341   3.444   2.898  0.2847 -0.2719 -0.0749
    5FIC    C2541202   5.449   3.388   2.828  0.3395 -0.2347 -0.0201
    5FIC    C2641203   5.577   3.441   2.835  0.2999 -0.1382 -0.0245
    5FIC    C2741204   5.597   3.555   2.916  0.2019 -0.0771 -0.0864
    5FIC    C2841205   5.718   3.634   2.945  0.1389  0.0275 -0.1077
    5FIC    C2941206   5.845   3.611   2.896  0.1656  0.0897 -0.0684
    5FIC    C3041207   5.875   3.503   2.807  0.2611  0.0597  0.0003
    5FIC    C3141208   5.956   3.693   2.929  0.0995  0.1898 -0.0935
    1BTD     S241209   2.608   9.981   8.300 -0.0755  0.1196  0.3155
    1BTD     N141210   2.753  10.075   8.250 -0.0104 -0.2174 -0.1495
    1BTD     N241211   2.690   9.898   8.437  0.0108  0.3514  0.4053
    1BTD     N341212   3.120   9.899   8.627  0.3047  0.2151 -0.2520
    1BTD     N441213   3.197  10.117   8.397  0.2785 -0.4852 -0.9358
    1BTD     C541214   2.984  10.094   8.330  0.1407 -0.3486 -0.5519
    1BTD     C641215   2.851  10.042   8.334  0.0684 -0.1435 -0.2110
    1BTD     C741216   2.815   9.943   8.438  0.0802  0.1745  0.0994
    1BTD     C841217   2.915   9.901   8.533  0.1639  0.2718  0.0536
    1BTD    C1541218   3.045   9.956   8.525  0.2330  0.0631 -0.2849
    1BTD    C1641219   3.079  10.051   8.424  0.2214 -0.2438 -0.5840
    1BTD    C4341220   3.336  10.137   8.464  0.4159  0.7638  0.7400
    1BTD    C4441221   3.401  10.273   8.483  0.6129  0.2552 -0.4826
    1BTD    C4541222   3.346  10.338   8.611  0.4616 -0.0758 -1.0637
    1BTD    C4641223   3.212  10.405   8.578  0.7616  0.6807  0.6526
    1BTD    C4741224   3.553  10.243   8.479 -0.4955 -0.5228 -0.9241
    1BTD    C4841225   3.636  10.365   8.532 -1.9926  1.4584  0.1677
    1BTD    C4941226   3.773  10.389   8.454 -0.6261  0.4886  0.3399
    1BTD    C5041227   3.830  10.489   8.529 -0.0832 -0.9293  0.4280
    1BTD    C7541228   3.268   9.885   8.621 -0.6586  0.7428 -0.1225
    1BTD    C7641229   3.359   9.808   8.724 -0.4262 -0.2504 -1.0733
    1BTD    C7741230   3.387   9.650   8.680  0.1441 -1.0153 -0.4765
    1BTD    C7841231   3.466   9.632   8.549  0.7641  0.4487  0.3632
    1BTD    C7941232   3.501   9.888   8.741  0.3920  0.0668 -0.9014
    1BTD    C8041233   3.508  10.034   8.808  0.9542  2.0653  0.1711
    1BTD    C8141234   3.439  10.048   8.938 -0.3886 -1.6588 -0.1931
    1BTD    C8241235   3.492   9.987   9.063  0.7196 -0.2498 -0.2378
    2TTP     S141236   3.024  10.236   8.056 -0.2454  0.4328 -0.1127
    2TTP     S541237   3.424  10.322   8.187 -0.1451 -0.8652  0.4604
    2TTP     C141238   3.405  10.383   8.017  0.1006 -0.2438  0.6499
    2TTP     C241239   3.280  10.360   7.966  0.0840  0.1936  0.4841
    2TTP     C341240   3.195  10.294   8.060 -0.1232  0.0539  0.2015
    2TTP     C441241   3.043  10.175   8.227 -0.4911 -0.1886 -0.3018
    2TTP    C1741242   3.168  10.198   8.277 -0.4746 -0.6264 -0.1363
    2TTP    C1841243   3.253  10.265   8.183 -0.2673 -0.4864  0.1464
    2TTP    C3241244   3.234  10.379   7.815 -0.1717 -0.1142 -0.9654
    2TTP    C3341245   3.099  10.445   7.781 -0.7982 -0.2353 -0.2301
    2TTP    C3441246   3.072  10.478   7.639  0.3803 -1.8081  0.4118
    2TTP    C3541247   2.995  10.367   7.564  0.9220  0.0937 -0.5888
    2TTP    C3641248   2.947  10.419   7.431 -1.0307  0.0739 -0.3316
    2TTP    C3741249   2.810  10.436   7.409 -0.8215 -1.7349  0.5832
    2TTP    C3841250   2.750  10.574   7.368 -0.1473 -0.3946  0.7688
    2TTP    C3941251   2.659  10.562   7.247 -0.0032 -1.1331 -1.2697
    2TTP    C4041252   2.596  10.701   7.207 -0.0991  1.1796 -0.4885
    2TTP    C4141253   2.485  10.685   7.105  0.3360  0.8344  1.3205
    2TTP    C4241254   2.446  10.806   7.029  0.8354 -1.1870  0.3311
    3TTP     S141255   2.786   9.722   8.750 -0.1698  0.2227  0.5214
    3TTP     S541256   3.160   9.733   8.961  0.2275 -0.5019 -0.1328
    3TTP     C141257   3.040   9.640   9.061  0.2611 -0.3930  0.0111
    3TTP     C241258   2.917   9.631   9.001  0.1404 -0.1628  0.2215
    3TTP     C341259   2.914   9.698   8.875  0.0170 -0.0639  0.2770
    3TTP     C441260   2.906   9.816   8.650 -0.2034  0.1142  0.3777
    3TTP    C1741261   3.028   9.825   8.710 -0.0827 -0.1164  0.1675
    3TTP    C1841262   3.032   9.758   8.836  0.0407 -0.2151  0.1121
    3TTP    C3241263   2.808   9.537   9.038 -0.5615 -0.1781  0.8935
    3TTP    C3341264   2.747   9.541   9.171 -0.2103 -0.0519 -1.8026
    3TTP    C3441265   2.636   9.641   9.205 -0.6862 -0.5145 -0.5251
    3TTP    C3541266   2.642   9.690   9.348 -0.7010 -1.5196 -1.2217
    3TTP    C3641267   2.610   9.835   9.366  0.0524  0.2093 -0.8276
    3TTP    C3741268   2.731   9.912   9.396 -1.4657 -1.1750  0.1429
    3TTP    C3841269   2.714  10.061   9.432 -0.1329 -0.8635  0.4119
    3TTP    C3941270   2.852  10.121   9.456  1.3177  0.1353 -0.2980
    3TTP    C4041271   2.868  10.237   9.365  0.0379  0.2549 -1.0295
    3TTP    C4141272   2.953  10.345   9.437  1.1940 -0.2848 -1.1397
    3TTP    C4241273   3.025  10.451   9.347 -0.0012  0.0095 -0.2018
    4FIC     F141274   4.196  10.594   8.102 -0.1482 -0.4578  0.2055
    4FIC     F241275   4.168  10.753   7.883 -0.4201  0.5767  0.9786
    4FIC     O141276   3.701  10.377   8.135  0.1622 -1.3230 -0.7286
    4FIC     N541277   3.775  10.828   7.592 -0.5897  1.4470  1.4241
    4FIC     N641278   3.394  10.626   7.662 -0.2924  0.5622  0.5382
    4FIC    C1941279   3.499  10.452   7.938  0.0127 -0.6421 -0.3219
    4FIC    C2041280   3.624  10.500   7.938 -0.0548 -0.4649 -0.1172
    4FIC    C2141281   3.723  10.457   8.043  0.0296 -0.8392 -0.3479
    4FIC    C2241282   3.849  10.528   8.014 -0.0763 -0.5186 -0.0339
    4FIC    C2341283   3.969  10.520   8.084 -0.0494 -0.6917 -0.0989
    4FIC    C2441284   4.074  10.597   8.038 -0.1672 -0.3146  0.2475
    4FIC    C2541285   4.060  10.679   7.925 -0.3070  0.2182  0.6453
    4FIC    C2641286   3.940  10.687   7.855 -0.3348  0.3936  0.7128
    4FIC    C2741287   3.832  10.610   7.900 -0.2169  0.0174  0.3657
    4FIC    C2841288   3.693  10.597   7.849 -0.2092  0.0713  0.3303
    4FIC    C2941289   3.640  10.661   7.740 -0.3235  0.5312  0.6512
    4FIC    C3041290   3.714  10.752   7.659 -0.4694  1.0331  1.0750
    4FIC    C3141291   3.505  10.641   7.697 -0.3057  0.5457  0.5872
    5FIC     F141292   3.440  10.005   9.670 -0.7730 -0.1414  0.2072
    5FIC     F241293   3.467   9.760   9.786  0.5518 -0.3188 -0.4385
    5FIC     O141294   3.138   9.879   9.238 -1.3303 -0.3748  0.6623
    5FIC     N541295   3.292   9.319   9.646  2.0593 -0.7405 -1.0428
    5FIC     N641296   3.051   9.271   9.285  1.3568 -0.8869 -0.5572
    5FIC    C1941297   3.057   9.601   9.196 -0.2625 -0.6275  0.2069
    5FIC    C2041298   3.132   9.642   9.300 -0.1740 -0.5615  0.1173
    5FIC    C2141299   3.170   9.787   9.315 -0.7475 -0.4323  0.3657
    5FIC    C2241300   3.251   9.797   9.438 -0.4801 -0.3881  0.1876
    5FIC    C2341301   3.308   9.911   9.493 -0.8240 -0.2735  0.3150
    5FIC    C2441302   3.380   9.896   9.610 -0.4641 -0.2527  0.0980
    5FIC    C2541303   3.394   9.770   9.670  0.2185 -0.3441 -0.2342
    5FIC    C2641304   3.337   9.655   9.616  0.5648 -0.4587 -0.3626
    5FIC    C2741305   3.264   9.669   9.497  0.2089 -0.4816 -0.1471
    5FIC    C2841306   3.192   9.569   9.415  0.4241 -0.5918 -0.2034
    5FIC    C2941307   3.182   9.434   9.440  1.0567 -0.7010 -0.4973
    5FIC    C3041308   3.242   9.371   9.553  1.6058 -0.7224 -0.7963
    5FIC    C3141309   3.110   9.345   9.355  1.2182 -0.8028 -0.5283
    1BTD     S241310   6.389   2.903   8.274 -0.0802  0.0064 -0.3188
    1BTD     N141311   6.504   2.773   8.323  0.0479  0.4002  0.4642
    1BTD     N241312   6.512   2.998   8.183 -0.1472 -0.3572 -0.7932
    1BTD     N341313   6.969   2.956   8.085 -0.0529 -0.3869 -0.3457
    1BTD     N441314   6.959   2.679   8.257  0.1875  0.5465  1.2043
    1BTD     C541315   6.741   2.728   8.287  0.1180  0.4653  0.8321
    1BTD     C641316   6.621   2.806   8.271  0.0347  0.2483  0.3388
    1BTD     C741317   6.626   2.931   8.193 -0.0745 -0.1757 -0.3655
    1BTD     C841318   6.750   2.972   8.134 -0.0950 -0.3615 -0.5405
    1BTD    C1541319   6.865   2.893   8.151 -0.0111 -0.1374 -0.0408
    1BTD    C1641320   6.861   2.772   8.227  0.0942  0.2711  0.6373
    1BTD    C4341321   7.101   2.690   8.223  1.0744  1.2224 -1.3469
    1BTD    C4441322   7.197   2.605   8.290  0.0753  0.7294 -0.7579
    1BTD    C4541323   7.338   2.598   8.229  0.4501  1.3497  0.5220
    1BTD    C4641324   7.443   2.498   8.278  0.3646  0.8755 -0.3094
    1BTD    C4741325   7.211   2.635   8.441 -1.0303 -0.3984  0.7969
    1BTD    C4841326   7.262   2.522   8.539  0.7934  0.7416  0.6356
    1BTD    C4941327   7.353   2.587   8.641  0.5508  0.5691 -0.1405
    1BTD    C5041328   7.441   2.487   8.709  0.4778 -0.2778 -0.9329
    1BTD    C7541329   7.040   2.882   7.980 -0.7309  0.1522  1.0988
    1BTD    C7641330   7.186   2.899   7.926  1.4799 -1.3590  0.4436
    1BTD    C7741331   7.214   2.815   7.803 -0.8105  0.7092 -1.8827
    1BTD    C7841332   7.245   2.668   7.848  0.7478 -0.0479  0.3446
    1BTD    C7941333   7.296   2.929   8.048  0.3406 -0.4647  0.9073
    1BTD    C8041334   7.429   2.996   8.038 -0.0983 -0.5637  0.3980
    1BTD    C8141335   7.452   3.060   7.897 -0.6582  0.4468 -0.8057
    1BTD    C8241336   7.600   3.106   7.897 -0.6870 -0.5120  0.7759
    2TTP     S141337   6.660   2.440   8.346 -0.0439  0.0728 -0.1690
    2TTP     S541338   7.063   2.322   8.249  0.0143  0.0895  0.0515
    2TTP     C141339   6.962   2.172   8.272 -0.0305  0.0867 -0.1650
    2TTP     C241340   6.832   2.199   8.303 -0.0510  0.0813 -0.2453
    2TTP     C341341   6.807   2.340   8.310 -0.0323  0.0793 -0.1397
    2TTP     C441342   6.761   2.590   8.324  0.0010  0.0756  0.0472
    2TTP    C1741343   6.891   2.562   8.293  0.0216  0.0809  0.1278
    2TTP    C1841344   6.916   2.422   8.285  0.0027  0.0830  0.0219
    2TTP    C3241345   6.713   2.104   8.330  0.9383 -0.1802 -1.1519
    2TTP    C3341346   6.620   2.055   8.231  1.8382  0.8813  0.9761
    2TTP    C3441347   6.511   2.141   8.174 -0.8551 -0.7710  0.3490
    2TTP    C3541348   6.432   2.076   8.062 -0.0368  0.8680  0.0129
    2TTP    C3641349   6.328   2.159   7.971 -1.8060  0.0809 -0.2882
    2TTP    C3741350   6.200   2.092   7.949 -0.0235 -0.7518 -0.0821
    2TTP    C3841351   6.116   2.207   7.880  0.2759  0.8532  0.7154
    2TTP    C3941352   6.030   2.307   7.961 -1.1872 -0.2875  0.0240
    2TTP    C4041353   5.960   2.249   8.083 -0.6938  1.0378 -0.4255
    2TTP    C4141354   5.860   2.340   8.163  0.0347  1.1919  0.6233
    2TTP    C4241355   5.724   2.265   8.167 -0.1272 -0.8560 -0.0870
    3TTP     S141356   6.739   3.277   8.052 -0.1775  0.0882 -0.2069
    3TTP     S541357   7.163   3.261   7.982 -0.1358 -0.2304  0.1159
    3TTP     C141358   7.107   3.432   7.960  0.0835 -0.1078  0.4942
    3TTP     C241359   6.973   3.447   7.980  0.0836 -0.0021  0.4168
    3TTP     C341360   6.909   3.324   8.014 -0.0896 -0.0143  0.0560
    3TTP     C441361   6.795   3.105   8.074 -0.3967 -0.0345 -0.5851
    3TTP    C1741362   6.929   3.090   8.054 -0.3969 -0.1400 -0.5075
    3TTP    C1841363   6.993   3.213   8.020 -0.2236 -0.1279 -0.1469
    3TTP    C3241364   6.888   3.579   7.949 -0.7820 -1.0951 -0.0643
    3TTP    C3341365   6.796   3.647   8.056 -0.2171 -1.1196  0.6904
    3TTP    C3441366   6.790   3.803   8.004  0.1814  0.3298  0.8810
    3TTP    C3541367   6.723   3.893   8.096  0.3716  1.0738 -0.4966
    3TTP    C3641368   6.577   3.844   8.148 -0.6262  0.9768 -0.0190
    3TTP    C3741369   6.499   3.931   8.254  0.7323 -0.2973 -0.7011
    3TTP    C3841370   6.390   3.846   8.332  1.7551 -0.5109  1.5071
    3TTP    C3941371   6.250   3.883   8.270  0.1419 -0.4445  0.4279
    3TTP    C4041372   6.131   3.850   8.345  0.2121 -0.3981  0.5036
    3TTP    C4141373   6.064   3.712   8.317 -1.4663  0.9011 -1.1217
    3TTP    C4241374   5.994   3.710   8.185  0.9768  0.8249 -0.1847
    4FIC     F141375   7.687   1.799   8.246  0.1208  0.0892 -0.2253
    4FIC     F241376   7.568   1.569   8.330  0.3699  0.2834  0.6781
    4FIC     O141377   7.260   2.129   8.212 -0.1209 -0.2703 -0.7122
    4FIC     N541378   7.093   1.474   8.427  0.5558  0.3064  1.6289
    4FIC     N641379   6.782   1.778   8.384  0.3169 -0.0136  1.0662
    4FIC    C1941380   6.994   2.027   8.281  0.0315 -0.2124 -0.0226
    4FIC    C2041381   7.106   1.953   8.286  0.0824 -0.1296  0.0646
    4FIC    C2141382   7.239   2.012   8.249 -0.0021 -0.1663 -0.3080
    4FIC    C2241383   7.339   1.905   8.265  0.0837 -0.0550 -0.0978
    4FIC    C2341384   7.476   1.913   8.243  0.0495 -0.0436 -0.3080
    4FIC    C2441385   7.551   1.798   8.266  0.1478  0.0714 -0.0391
    4FIC    C2541386   7.490   1.680   8.309  0.2760  0.1713  0.4262
    4FIC    C2641387   7.353   1.671   8.332  0.3109  0.1605  0.6385
    4FIC    C2741388   7.275   1.787   8.309  0.2127  0.0449  0.3712
    4FIC    C2841389   7.130   1.811   8.324  0.2170  0.0030  0.4897
    4FIC    C2941390   7.035   1.720   8.364  0.3251  0.0738  0.9124
    4FIC    C3041391   7.067   1.585   8.399  0.4514  0.2015  1.3046
    4FIC    C3141392   6.897   1.752   8.375  0.3200  0.0253  0.9949
    5FIC     F141393   7.917   3.562   7.976  0.2780 -0.1321 -0.3103
    5FIC     F241394   7.879   3.768   7.801  0.2149  0.6847  0.6474
    5FIC     O141395   7.406   3.405   8.063  0.3052 -0.4982 -0.7980
    5FIC     N541396   7.460   3.951   7.613  0.1439  1.5981  1.6767
    5FIC     N641397   7.068   3.787   7.717  0.1777  1.1474  1.1026
    5FIC    C1941398   7.188   3.546   7.928  0.2545  0.1522 -0.0562
    5FIC    C2041399   7.318   3.577   7.913  0.2501  0.2124  0.0291
    5FIC    C2141400   7.425   3.500   7.986  0.2775 -0.1374 -0.3710
    5FIC    C2241401   7.554   3.560   7.947  0.2645  0.0333 -0.1556
    5FIC    C2341402   7.681   3.523   7.989  0.2809 -0.1737 -0.3854
    5FIC    C2441403   7.788   3.594   7.938  0.2636  0.0533 -0.1062
    5FIC    C2541404   7.768   3.700   7.849  0.2309  0.4741  0.3873
    5FIC    C2641405   7.642   3.738   7.806  0.2147  0.6827  0.6188
    5FIC    C2741406   7.532   3.667   7.856  0.2317  0.4580  0.3420
    5FIC    C2841407   7.386   3.681   7.832  0.2217  0.5847  0.4750
    5FIC    C2941408   7.326   3.774   7.749  0.1917  0.9730  0.9258
    5FIC    C3041409   7.400   3.871   7.675  0.1655  1.3153  1.3372
    5FIC    C3141410   7.185   3.781   7.732  0.1841  1.0667  1.0204
    1BTD     S241411   9.885   5.710   8.563 -0.0360 -0.6203 -0.2220
    1BTD     N141412   9.732   5.802   8.543 -0.0076 -0.5513 -0.1206
    1BTD     N241413   9.834   5.629   8.715  0.1061 -0.4432 -0.0799
    1BTD     N341414   9.453   5.631   8.990  0.4463  0.0416  0.3922
    1BTD     N441415   9.327   5.844   8.777  0.3059 -0.0916  0.3424
    1BTD     C541416   9.522   5.821   8.668  0.1576 -0.3097  0.1216
    1BTD     C641417   9.655   5.769   8.645  0.1006 -0.4076  0.0072
    1BTD     C741418   9.712   5.673   8.742  0.1645 -0.3470  0.0300
    1BTD     C841419   9.634   5.633   8.856  0.2820 -0.1917  0.1659
    1BTD    C1541420   9.504   5.686   8.874  0.3350 -0.1002  0.2752
    1BTD    C1641421   9.449   5.779   8.781  0.2731 -0.1584  0.2527
    1BTD    C4341422   9.211   5.761   8.804  0.3016  0.9197  0.9696
    1BTD    C4441423   9.094   5.720   8.702  0.5595 -0.7030 -0.1228
    1BTD    C4541424   9.136   5.678   8.560 -1.1522  1.3341 -0.8998
    1BTD    C4641425   9.042   5.609   8.464  0.0548  0.1639 -0.6503
    1BTD    C4741426   8.976   5.657   8.774 -0.5607 -0.3731 -0.0184
    1BTD    C4841427   9.015   5.583   8.899  0.0522  0.4036 -0.7316
    1BTD    C4941428   8.958   5.433   8.918  1.1913 -0.0356  0.3572
    1BTD    C5041429   8.809   5.405   8.873 -0.9121  0.8489  0.6848
    1BTD    C7541430   9.351   5.703   9.072 -1.1450 -1.2756 -0.3164
    1BTD    C7641431   9.397   5.772   9.207 -0.4559 -1.2849  1.0785
    1BTD    C7741432   9.509   5.888   9.193  2.0241 -1.8111 -0.0241
    1BTD    C7841433   9.584   5.943   9.312  1.1993  0.4211  0.2783
    1BTD    C7941434   9.280   5.834   9.291 -0.3359  0.3991 -0.4193
    1BTD    C8041435   9.213   5.968   9.258 -0.6932 -0.3827  1.1062
    1BTD    C8141436   9.117   6.062   9.353  0.2223  0.0811  0.7764
    1BTD    C8241437   9.113   6.197   9.276  1.0637  0.3846 -0.5777
    2TTP     S141438   9.453   6.033   8.465 -0.0272  0.1652 -0.1595
    2TTP     S541439   9.093   6.122   8.683 -0.0212 -0.5474  0.1493
    2TTP     C141440   9.102   6.232   8.538 -0.3317 -0.4850  0.1756
    2TTP     C241441   9.214   6.211   8.463 -0.3514 -0.2613  0.0818
    2TTP     C341442   9.296   6.107   8.516 -0.1228 -0.1311 -0.0141
    2TTP     C441443   9.443   5.922   8.610  0.2832  0.1028 -0.1857
    2TTP    C1741444   9.332   5.944   8.686  0.3028 -0.1210 -0.0919
    2TTP    C1841445   9.249   6.048   8.632  0.0739 -0.2512  0.0041
    2TTP    C3241446   9.276   6.284   8.353  1.5213  0.2429  0.3703
    2TTP    C3341447   9.331   6.414   8.401 -0.1731 -0.5990  0.2215
    2TTP    C3441448   9.391   6.495   8.284 -1.4128  0.1749  0.6947
    2TTP    C3541449   9.470   6.625   8.326  0.1128  0.2847 -0.8349
    2TTP    C3641450   9.449   6.744   8.231  0.3610  0.4434 -0.2987
    2TTP    C3741451   9.315   6.821   8.241 -0.4387 -0.0648  0.9098
    2TTP    C3841452   9.238   6.791   8.108  0.1811 -1.1681 -0.8433
    2TTP    C3941453   9.135   6.678   8.103 -0.5042 -0.8816  0.2050
    2TTP    C4041454   9.165   6.562   8.002  1.7061 -0.1617  0.2346
    2TTP    C4141455   9.029   6.515   7.935 -0.4359  0.4491  0.2338
    2TTP    C4241456   8.936   6.440   8.022  0.9068  0.7481 -0.0085
    3TTP     S141457   9.795   5.439   9.029  0.2437 -0.3158 -0.4887
    3TTP     S541458   9.440   5.379   9.265  0.1957 -0.0587 -0.4961
    3TTP     C141459   9.571   5.269   9.328  0.1032 -0.1814 -0.5182
    3TTP     C241460   9.688   5.281   9.259  0.1123 -0.2682 -0.5171
    3TTP     C341461   9.679   5.378   9.154  0.1931 -0.2407 -0.4990
    3TTP     C441462   9.665   5.549   8.966  0.3362 -0.1930 -0.4668
    3TTP    C1741463   9.547   5.537   9.035  0.3267 -0.1062 -0.4676
    3TTP    C1841464   9.556   5.441   9.140  0.2463 -0.1338 -0.4857
    3TTP    C3241465   9.807   5.185   9.286 -1.0928 -1.2498  0.8791
    3TTP    C3341466   9.924   5.259   9.316 -1.5060 -0.5513 -0.5122
    3TTP    C3441467  10.066   5.221   9.272 -0.8061 -0.0901  0.0135
    3TTP    C3541468  10.183   5.320   9.285 -1.4293 -0.8144  1.7779
    3TTP    C3641469  10.318   5.243   9.310  1.4435 -1.1471  0.4866
    3TTP    C3741470  10.346   5.167   9.439  0.0314 -0.4479  0.3344
    3TTP    C3841471  10.385   5.273   9.545  1.2881  1.5628 -0.1122
    3TTP    C3941472  10.417   5.219   9.692 -1.2771 -1.4253  0.5069
    3TTP    C4041473  10.355   5.097   9.755 -0.8191 -0.9405  0.4685
    3TTP    C4141474  10.375   4.957   9.700  1.3440 -0.6157 -0.0251
    3TTP    C4241475  10.305   4.882   9.815 -1.5341  0.3126 -0.9828
    4FIC     F141476   8.289   6.191   8.499  0.1931 -0.4221 -0.0460
    4FIC     F241477   8.280   6.462   8.516 -0.2289 -0.3990 -0.5872
    4FIC     O141478   8.824   6.107   8.490  0.3283  0.3711  0.4046
    4FIC     N541479   8.647   6.793   8.535 -0.7396  0.1992 -1.0443
    4FIC     N641480   9.067   6.672   8.525 -0.5488  0.8143 -0.5829
    4FIC    C1941481   9.005   6.336   8.504 -0.0272  0.6747  0.0477
    4FIC    C2041482   8.871   6.347   8.505 -0.0446  0.4743 -0.0443
    4FIC    C2141483   8.784   6.224   8.498  0.1454  0.3273  0.1516
    4FIC    C2241484   8.645   6.271   8.502  0.0710  0.1237 -0.0157
    4FIC    C2341485   8.529   6.194   8.498  0.1905 -0.0609  0.0753
    4FIC    C2441486   8.407   6.261   8.503  0.0850 -0.2345 -0.1214
    4FIC    C2541487   8.403   6.401   8.512 -0.1323 -0.2219 -0.4004
    4FIC    C2641488   8.518   6.478   8.516 -0.2520 -0.0384 -0.4923
    4FIC    C2741489   8.642   6.412   8.511 -0.1483  0.1389 -0.2961
    4FIC    C2841490   8.781   6.465   8.513 -0.2282  0.3549 -0.3250
    4FIC    C2941491   8.818   6.597   8.521 -0.4332  0.4294 -0.5658
    4FIC    C3041492   8.724   6.704   8.529 -0.6011  0.3027 -0.8280
    4FIC    C3141493   8.955   6.638   8.523 -0.4957  0.6409 -0.5739
    5FIC     F141494   9.067   5.189   9.976  0.7007 -0.0283  0.6771
    5FIC     F241495   9.152   4.932  10.001 -0.3138 -0.4921 -0.4454
    5FIC     O141496   9.373   5.359   9.563  0.7870  0.3138  0.8812
    5FIC     N541497   9.493   4.683   9.742 -1.7099 -0.9153 -1.9138
    5FIC     N641498   9.716   4.868   9.415 -1.4381 -0.5546 -1.5275
    5FIC    C1941499   9.564   5.174   9.440 -0.1513 -0.0080 -0.1185
    5FIC    C2041500   9.483   5.141   9.543 -0.1333 -0.0758 -0.1259
    5FIC    C2141501   9.388   5.242   9.601  0.3638  0.1001  0.4058
    5FIC    C2241502   9.316   5.174   9.711  0.2468 -0.0318  0.2487
    5FIC    C2341503   9.218   5.227   9.794  0.5860  0.0560  0.5996
    5FIC    C2441504   9.165   5.143   9.890  0.3867 -0.1029  0.3546
    5FIC    C2541505   9.209   5.010   9.903 -0.1360 -0.3419 -0.2239
    5FIC    C2641506   9.307   4.957   9.820 -0.4766 -0.4306 -0.5765
    5FIC    C2741507   9.362   5.040   9.722 -0.2813 -0.2725 -0.3364
    5FIC    C2841508   9.466   5.015   9.620 -0.5362 -0.3090 -0.5891
    5FIC    C2941509   9.534   4.897   9.599 -1.0474 -0.5188 -1.1468
    5FIC    C3041510   9.511   4.780   9.678 -1.4098 -0.7360 -1.5662
    5FIC    C3141511   9.634   4.881   9.498 -1.2593 -0.5372 -1.3533
    1BTD     S241512  10.740   0.336   5.011 -0.4122 -0.3467 -0.1399
    1BTD     N141513  10.791   0.226   4.879 -0.8609  0.0552 -0.6597
    1BTD     N241514  10.832   0.478   4.949  0.0768 -0.3938  0.4648
    1BTD     N341515  11.114   0.566   4.585  0.2625  0.2359  0.7583
    1BTD     N441516  11.064   0.256   4.498 -0.8931  0.7892 -0.6272
    1BTD     C541517  10.934   0.246   4.681 -0.8636  0.4318 -0.6261
    1BTD     C641518  10.871   0.296   4.800 -0.6347  0.1297 -0.3707
    1BTD     C741519  10.894   0.437   4.839 -0.1099 -0.1217  0.2588
    1BTD     C841520  10.979   0.520   4.758  0.1595 -0.0584  0.6013
    1BTD    C1541521  11.039   0.466   4.643 -0.0795  0.2408  0.3326
    1BTD    C1641522  11.017   0.330   4.604 -0.5853  0.4830 -0.2737
    1BTD    C4341523  11.189   0.281   4.431 -0.1985  0.3541 -0.2140
    1BTD    C4441524  11.235   0.223   4.307  1.2324  0.3540  0.2274
    1BTD    C4541525  11.150   0.288   4.193 -0.4023 -0.9965 -1.1348
    1BTD    C4641526  11.190   0.215   4.068 -0.3693  0.2530 -0.0076
    1BTD    C4741527  11.386   0.229   4.313  0.0884  0.1918 -0.3629
    1BTD    C4841528  11.479   0.348   4.347  0.0934 -0.6886 -0.3647
    1BTD    C4941529  11.503   0.458   4.244  0.3641 -0.2783  0.3984
    1BTD    C5041530  11.398   0.539   4.184  0.0115  0.6800  0.0454
    1BTD    C7541531  11.096   0.586   4.435 -0.1863  0.8885  0.2973
    1BTD    C7641532  10.964   0.572   4.362  1.8704 -0.1520  1.3807
    1BTD    C7741533  10.985   0.592   4.206 -0.4004  0.9980  1.5928
    1BTD    C7841534  11.050   0.708   4.123  0.2736 -0.9428  1.1655
    1BTD    C7941535  10.839   0.654   4.398  0.5340 -0.0609  0.1962
    1BTD    C8041536  10.864   0.800   4.424  0.1593 -0.1135 -1.3391
    1BTD    C8141537  10.740   0.869   4.499  1.9982 -0.0290  0.7355
    1BTD    C8241538  10.743   0.948   4.615 -1.3686 -0.0141 -0.5516
    2TTP     S141539  10.803  -0.022   4.616 -0.1415 -0.2096 -0.1328
    2TTP     S541540  11.035  -0.028   4.254 -0.3126 -0.3281 -0.2410
    2TTP     C141541  10.916  -0.166   4.248 -0.4929 -0.1724 -0.2563
    2TTP     C241542  10.838  -0.172   4.360 -0.4506 -0.1268 -0.2238
    2TTP     C341543  10.869  -0.068   4.453 -0.2744 -0.2129 -0.1855
    2TTP     C441544  10.922   0.116   4.621  0.0389 -0.3650 -0.1175
    2TTP    C1741545  11.001   0.122   4.509 -0.0034 -0.4109 -0.1501
    2TTP    C1841546  10.970   0.018   4.416 -0.1798 -0.3247 -0.1881
    2TTP    C3241547  10.724  -0.273   4.394  1.2157  0.3711  0.4949
    2TTP    C3341548  10.599  -0.234   4.477 -1.5897 -0.6448  0.3251
    2TTP    C3441549  10.504  -0.339   4.508  0.9096  0.8226  0.0989
    2TTP    C3541550  10.429  -0.383   4.379 -0.0567 -0.3898 -1.4514
    2TTP    C3641551  10.273  -0.338   4.362 -0.6096  1.1505 -1.1110
    2TTP    C3741552  10.255  -0.304   4.219 -0.1432  0.9278 -0.2995
    2TTP    C3841553  10.106  -0.299   4.153 -1.6083 -1.3518  0.8635
    2TTP    C3941554  10.077  -0.147   4.150 -1.2852  0.5432  1.8359
    2TTP    C4041555   9.963  -0.095   4.248 -0.8229 -1.0758 -0.1413
    2TTP    C4141556   9.987  -0.127   4.382 -0.7928  0.3560 -0.8999
    2TTP    C4241557  10.070  -0.030   4.481 -0.5884  0.2321 -0.1534
    3TTP     S141558  11.043   0.768   4.908  0.5354 -0.2585  0.0057
    3TTP     S541559  11.305   0.901   4.594 -0.0165 -0.0795 -0.3818
    3TTP     C141560  11.303   1.027   4.726  0.5807 -0.3707 -0.0887
    3TTP     C241561  11.222   0.993   4.830  0.7861 -0.4431  0.0480
    3TTP     C341562  11.159   0.867   4.810  0.4797 -0.2713 -0.0736
    3TTP     C441563  11.044   0.643   4.777 -0.0620  0.0327 -0.2873
    3TTP    C1741564  11.125   0.676   4.672 -0.2675  0.1051 -0.4242
    3TTP    C1841565  11.189   0.803   4.692  0.0389 -0.0667 -0.3027
    3TTP    C3241566  11.203   1.066   4.962 -0.4896  0.6022  0.3516
    3TTP    C3341567  11.070   1.093   5.015 -0.4212 -0.3222  0.6523
    3TTP    C3441568  11.073   1.063   5.162 -0.3495 -0.0783 -0.3422
    3TTP    C3541569  10.930   1.070   5.212  0.2203 -1.2729  1.0043
    3TTP    C3641570  10.869   1.080   5.351 -0.7937 -1.7388  0.2205
    3TTP    C3741571  10.878   1.209   5.424  0.0338 -0.5830  1.0723
    3TTP    C3841572  10.850   1.336   5.348 -1.0141  0.0955  0.1272
    3TTP    C3941573  10.876   1.461   5.425 -0.5580 -0.0783  0.1292
    3TTP    C4041574  10.754   1.559   5.424  0.6425 -0.5808  0.5216
    3TTP    C4141575  10.770   1.716   5.446  0.5127 -0.4998  0.3644
    3TTP    C4241576  10.884   1.781   5.369  0.7665  0.5698 -0.7903
    4FIC     F141577  10.860  -0.028   3.442  0.2282  0.2432 -0.0744
    4FIC     F241578  10.791  -0.289   3.407  0.1168  0.3045 -0.3193
    4FIC     O141579  10.916  -0.008   3.980 -0.0265 -0.2201 -0.0299
    4FIC     N541580  10.732  -0.650   3.740 -0.2246  0.0629 -0.6396
    4FIC     N641581  10.790  -0.582   4.167 -0.4013 -0.3114 -0.5555
    4FIC    C1941582  10.870  -0.250   4.137 -0.2232 -0.3260 -0.2482
    4FIC    C2041583  10.859  -0.245   4.003 -0.1547 -0.2117 -0.2496
    4FIC    C2141584  10.884  -0.117   3.929 -0.0553 -0.1640 -0.1337
    4FIC    C2241585  10.863  -0.146   3.786  0.0007 -0.0379 -0.1680
    4FIC    C2341586  10.875  -0.058   3.679  0.0966  0.0432 -0.0914
    4FIC    C2441587  10.850  -0.109   3.552  0.1337  0.1581 -0.1449
    4FIC    C2541588  10.815  -0.243   3.535  0.0763  0.1895 -0.2710
    4FIC    C2641589  10.803  -0.332   3.641 -0.0198  0.1090 -0.3480
    4FIC    C2741590  10.827  -0.282   3.770 -0.0587 -0.0076 -0.2955
    4FIC    C2841591  10.823  -0.348   3.903 -0.1562 -0.1132 -0.3508
    4FIC    C2941592  10.793  -0.480   3.928 -0.2334 -0.1185 -0.4724
    4FIC    C3041593  10.759  -0.573   3.824 -0.2282 -0.0188 -0.5639
    4FIC    C3141594  10.791  -0.535   4.059 -0.3250 -0.2244 -0.5175
    5FIC     F141595  11.728   1.447   4.161  0.8184 -0.4084  0.0744
    5FIC     F241596  11.734   1.661   4.329  0.2093 -0.0816 -0.3099
    5FIC     O141597  11.466   1.084   4.465  0.6533 -0.1640  0.2253
    5FIC     N541598  11.556   1.709   4.789 -0.7841  0.5623 -0.7548
    5FIC     N641599  11.350   1.382   4.992 -0.7904  0.6874 -0.5594
    5FIC    C1941600  11.379   1.159   4.734  0.0127  0.2349 -0.0881
    5FIC    C2041601  11.444   1.242   4.651  0.0780  0.1608 -0.1112
    5FIC    C2141602  11.486   1.196   4.514  0.4135 -0.0458  0.0569
    5FIC    C2241603  11.555   1.310   4.450  0.3999 -0.0789 -0.0178
    5FIC    C2341604  11.611   1.316   4.323  0.6518 -0.2487  0.0844
    5FIC    C2441605  11.670   1.435   4.285  0.5806 -0.2454 -0.0177
    5FIC    C2541606  11.673   1.545   4.372  0.2666 -0.0769 -0.2157
    5FIC    C2641607  11.618   1.540   4.499  0.0142  0.0930 -0.3184
    5FIC    C2741608  11.557   1.420   4.540  0.0815  0.0924 -0.2178
    5FIC    C2841609  11.489   1.382   4.666 -0.1288  0.2464 -0.2829
    5FIC    C2941610  11.471   1.463   4.777 -0.4531  0.4328 -0.4673
    5FIC    C3041611  11.518   1.598   4.783 -0.6340  0.5033 -0.6248
    5FIC    C3141612  11.405   1.418   4.895 -0.6368  0.5718 -0.5168
    1BTD     S241613   9.984   2.187   7.416  0.2539  0.1352 -0.0359
    1BTD     N141614  10.035   2.017   7.444 -0.3386 -0.0334  0.0360
    1BTD     N241615   9.981   2.173   7.237  0.6471  0.2041 -0.0497
    1BTD     N341616  10.066   1.836   6.922  0.3784  0.0403  0.0520
    1BTD     N441617  10.132   1.644   7.176 -0.8361 -0.2525  0.1575
    1BTD     C541618  10.085   1.825   7.301 -0.5839 -0.1442  0.0981
    1BTD     C641619  10.046   1.961   7.324 -0.2191 -0.0299  0.0453
    1BTD     C741620  10.016   2.049   7.209  0.3328  0.1031 -0.0026
    1BTD     C841621  10.026   1.995   7.075  0.4921  0.1150  0.0046
    1BTD    C1541622  10.065   1.861   7.058  0.1218  0.0003  0.0571
    1BTD    C1641623  10.093   1.776   7.169 -0.4102 -0.1279  0.1032
    1BTD    C4341624  10.206   1.556   7.094 -0.6206 -1.0784 -0.0170
    1BTD    C4441625  10.368   1.558   7.101  1.1960 -0.7669  0.0509
    1BTD    C4541626  10.435   1.492   7.213 -1.1704 -0.4890  0.6920
    1BTD    C4641627  10.474   1.346   7.193  1.1610  0.8817 -0.2823
    1BTD    C4741628  10.435   1.707   7.078 -1.8999 -0.1596 -1.2071
    1BTD    C4841629  10.601   1.702   7.066  2.1615  0.3057 -0.4438
    1BTD    C4941630  10.680   1.604   6.971  0.3395 -1.3924  0.4459
    1BTD    C5041631  10.769   1.686   6.874 -0.6267  0.3100  1.4225
    1BTD    C7541632  10.126   1.734   6.828 -0.4033  0.1605 -1.0370
    1BTD    C7641633  10.269   1.744   6.790 -0.2366  1.5878  0.1179
    1BTD    C7741634  10.325   1.888   6.774  0.1732  0.2333  0.4917
    1BTD    C7841635  10.457   1.927   6.726 -1.0322  0.1928 -0.3125
    1BTD    C7941636  10.307   1.661   6.675  0.5995 -0.9399  0.5086
    1BTD    C8041637  10.269   1.519   6.652 -1.0778  0.4429 -0.0350
    1BTD    C8141638  10.307   1.449   6.523  0.3931 -1.2407  0.0318
    1BTD    C8241639  10.447   1.470   6.483  0.4050  0.5558  0.1533
    2TTP     S141640  10.081   1.666   7.563  0.2656  0.3081  0.4525
    2TTP     S541641  10.109   1.297   7.344 -0.0875  0.1373  0.6939
    2TTP     C141642  10.081   1.258   7.520 -0.6183  0.2849  0.6450
    2TTP     C241643  10.070   1.370   7.598 -0.5407  0.3463  0.5676
    2TTP     C341644  10.084   1.490   7.522 -0.0589  0.2791  0.5441
    2TTP     C441645  10.109   1.705   7.388  0.7966  0.1606  0.5014
    2TTP    C1741646  10.119   1.593   7.310  0.7187  0.0992  0.5788
    2TTP    C1841647  10.105   1.473   7.386  0.2370  0.1664  0.6022
    2TTP    C3241648  10.050   1.377   7.764  0.0476 -0.0817  0.1540
    2TTP    C3341649  10.132   1.469   7.843  0.3999  0.2908  0.7178
    2TTP    C3441650  10.065   1.515   7.977 -0.6311  0.3363 -0.1245
    2TTP    C3541651  10.132   1.628   8.044  0.1351  0.8246  0.0085
    2TTP    C3641652  10.288   1.629   8.042  0.3181  0.8198 -0.1943
    2TTP    C3741653  10.359   1.604   8.176 -0.2269  1.3204 -0.7607
    2TTP    C3841654  10.507   1.537   8.166  0.2204 -0.4232  0.9486
    2TTP    C3941655  10.526   1.428   8.075  0.8196  0.3986  0.0155
    2TTP    C4041656  10.670   1.369   8.066 -0.2022 -1.1781  1.0432
    2TTP    C4141657  10.733   1.430   7.943 -0.2040 -0.0322 -0.1811
    2TTP    C4241658  10.877   1.386   7.931  1.0812  1.8370  0.1518
    3TTP     S141659   9.980   2.215   6.901 -0.1778  0.2609  0.1880
    3TTP     S541660  10.042   1.963   6.559  0.3324  0.5438  0.0703
    3TTP     C141661  10.024   2.134   6.502  0.0483  0.5429  0.1552
    3TTP     C241662  10.004   2.222   6.604 -0.1261  0.4553  0.1967
    3TTP     C341663  10.002   2.157   6.731 -0.0417  0.3860  0.1627
    3TTP     C441664   9.998   2.043   6.958  0.1063  0.2618  0.1030
    3TTP    C1741665  10.019   1.955   6.856  0.2804  0.3493  0.0616
    3TTP    C1841666  10.020   2.020   6.729  0.1960  0.4186  0.0955
    3TTP    C3241667   9.998   2.379   6.606  0.4100  0.1371 -0.8177
    3TTP    C3341668  10.068   2.468   6.720  0.0230 -0.8127  0.4783
    3TTP    C3441669  10.052   2.618   6.662 -0.7932  0.7307 -0.0813
    3TTP    C3541670  10.126   2.717   6.742 -0.8395  0.8576 -0.9229
    3TTP    C3641671  10.096   2.860   6.724 -0.7152  0.5680  0.2468
    3TTP    C3741672   9.967   2.925   6.758 -0.8361  0.5459 -0.5862
    3TTP    C3841673   9.920   3.022   6.674  0.4331  0.5777  0.5144
    3TTP    C3941674   9.779   3.073   6.710 -0.2045  0.0933  0.1444
    3TTP    C4041675   9.742   3.201   6.632 -0.3420  0.4631  0.0666
    3TTP    C4141676   9.659   3.291   6.724 -0.4852  0.0490  0.8578
    3TTP    C4241677   9.516   3.310   6.695  0.0391 -0.6151 -0.3865
    4FIC     F141678  10.339   0.507   7.335  0.7987  0.2041  0.4059
    4FIC     F241679  10.203   0.408   7.549  0.0362  0.0265 -0.1515
    4FIC     O141680  10.226   1.035   7.377  0.4766  0.1422  0.3240
    4FIC     N541681   9.927   0.642   7.887 -1.2887 -0.2729 -1.0114
    4FIC     N641682   9.866   1.074   7.877 -1.3864 -0.2856 -0.9629
    4FIC    C1941683  10.056   1.128   7.597 -0.3657 -0.0495 -0.2377
    4FIC    C2041684  10.090   0.999   7.578 -0.2551 -0.0270 -0.1954
    4FIC    C2141685  10.178   0.959   7.462  0.1845  0.0732  0.0999
    4FIC    C2241686  10.194   0.812   7.471  0.1972  0.0728  0.0695
    4FIC    C2341687  10.267   0.730   7.386  0.5381  0.1493  0.2846
    4FIC    C2441688  10.269   0.594   7.415  0.4750  0.1317  0.2041
    4FIC    C2541689  10.199   0.544   7.525  0.0819  0.0401 -0.0831
    4FIC    C2641690  10.125   0.625   7.611 -0.2594 -0.0366 -0.2990
    4FIC    C2741691  10.123   0.763   7.583 -0.2012 -0.0201 -0.2216
    4FIC    C2841692  10.056   0.875   7.653 -0.4950 -0.0850 -0.3955
    4FIC    C2941693   9.978   0.867   7.766 -0.9103 -0.1807 -0.6870
    4FIC    C3041694   9.950   0.743   7.832 -1.1165 -0.2311 -0.8641
    4FIC    C3141695   9.917   0.981   7.826 -1.1697 -0.2378 -0.8371
    5FIC     F141696  10.094   1.768   5.767 -0.3960  0.1406 -0.1854
    5FIC     F241697  10.039   2.008   5.650  0.0019  0.2314 -0.1886
    5FIC     O141698  10.081   1.905   6.290 -0.4792  0.1017 -0.1770
    5FIC     N541699   9.951   2.450   5.854  0.5150  0.3341 -0.1875
    5FIC     N641700   9.952   2.508   6.287  0.3700  0.2853 -0.1804
    5FIC    C1941701  10.024   2.183   6.365 -0.1282  0.1745 -0.1773
    5FIC    C2041702  10.029   2.139   6.237 -0.1228  0.1808 -0.1793
    5FIC    C2141703  10.059   1.995   6.207 -0.3095  0.1416 -0.1789
    5FIC    C2241704  10.057   1.981   6.060 -0.2511  0.1602 -0.1813
    5FIC    C2341705  10.080   1.866   5.985 -0.3734  0.1368 -0.1822
    5FIC    C2441706  10.073   1.878   5.847 -0.2840  0.1616 -0.1845
    5FIC    C2541707  10.044   2.002   5.787 -0.0789  0.2083 -0.1863
    5FIC    C2641708  10.022   2.117   5.861  0.0439  0.2319 -0.1856
    5FIC    C2741709  10.029   2.107   6.001 -0.0439  0.2073 -0.1831
    5FIC    C2841710  10.010   2.208   6.108  0.0432  0.2219 -0.1817
    5FIC    C2941711   9.981   2.342   6.089  0.2398  0.2651 -0.1830
    5FIC    C3041712   9.965   2.401   5.960  0.3905  0.3029 -0.1854
    5FIC    C3141713   9.965   2.433   6.198  0.3104  0.2760 -0.1814
    1BTD     S241714   4.931   5.579   5.300 -0.0985 -0.1378  0.4409
    1BTD     N141715   4.828   5.469   5.202 -0.3719 -0.2918  0.8937
    1BTD     N241716   4.833   5.726   5.267  0.3425  0.0055 -0.2724
    1BTD     N341717   4.445   5.825   5.021  0.7470  0.0190 -0.9083
    1BTD     N441718   4.440   5.509   4.941 -0.1333 -0.3474  0.5288
    1BTD     C541719   4.626   5.494   5.067 -0.2369 -0.3164  0.6858
    1BTD     C641720   4.731   5.543   5.152 -0.1330 -0.2317  0.5099
    1BTD     C741721   4.733   5.687   5.188  0.2669 -0.0652 -0.1429
    1BTD     C841722   4.630   5.774   5.137  0.5430  0.0080 -0.5870
    1BTD    C1541723   4.530   5.721   5.054  0.4283 -0.0794 -0.3936
    1BTD    C1641724   4.527   5.583   5.020  0.0430 -0.2398  0.2354
    1BTD    C4341725   4.303   5.549   4.905  0.3119  0.8177  0.7732
    1BTD    C4441726   4.184   5.492   5.001 -0.1094  0.3243  0.1672
    1BTD    C4541727   4.045   5.532   4.953  0.5292 -0.9331 -1.8739
    1BTD    C4641728   4.014   5.686   4.931  1.1862  1.0803 -0.5446
    1BTD    C4741729   4.191   5.523   5.150 -0.1312  0.3366  0.3889
    1BTD    C4841730   4.106   5.484   5.264  1.1075  0.8161  0.4684
    1BTD    C4941731   4.140   5.484   5.421  0.3872  1.2484  1.4765
    1BTD    C5041732   4.286   5.466   5.452 -0.7200 -0.8090 -1.5227
    1BTD    C7541733   4.379   5.854   4.885  0.8188  0.2427  0.4882
    1BTD    C7641734   4.455   5.882   4.751  1.5880 -1.0569  0.0379
    1BTD    C7741735   4.335   5.917   4.643 -0.8077 -0.3904 -0.4384
    1BTD    C7841736   4.359   5.989   4.509 -0.6232  0.7769 -1.0172
    1BTD    C7941737   4.557   5.773   4.693 -0.5247 -0.2022 -1.1704
    1BTD    C8041738   4.698   5.814   4.652 -0.9628  0.8879 -0.8484
    1BTD    C8141739   4.769   5.690   4.598 -0.5308  1.3142 -0.0528
    1BTD    C8241740   4.816   5.586   4.702  0.2431 -0.7959  0.5322
    2TTP     S141741   4.670   5.203   4.999  0.0765  0.1449  0.3853
    2TTP     S541742   4.281   5.195   4.814  0.0098 -0.0662  0.5331
    2TTP     C141743   4.350   5.027   4.811 -0.0109 -0.0794  0.7410
    2TTP     C241744   4.474   5.019   4.868  0.0086 -0.0149  0.7074
    2TTP     C341745   4.519   5.146   4.916  0.0403  0.0471  0.5165
    2TTP     C441746   4.601   5.371   5.003  0.0972  0.1581  0.1774
    2TTP    C1741747   4.477   5.379   4.946  0.0776  0.0935  0.2109
    2TTP    C1841748   4.432   5.252   4.897  0.0459  0.0316  0.4017
    2TTP    C3241749   4.555   4.887   4.879  0.0151 -0.5605  0.9197
    2TTP    C3341750   4.655   4.831   4.991 -0.4106  0.3280 -0.4407
    2TTP    C3441751   4.787   4.910   4.984 -0.0778 -0.4015  0.1349
    2TTP    C3541752   4.904   4.827   4.935 -0.6487  0.0758 -0.5647
    2TTP    C3641753   4.952   4.702   5.021  0.7978 -0.6402 -0.6393
    2TTP    C3741754   4.850   4.574   5.043  0.1706 -0.0636  0.2491
    2TTP    C3841755   4.847   4.484   5.158  1.9555  0.2951 -2.6955
    2TTP    C3941756   4.964   4.385   5.189 -0.1320 -1.5265  0.4498
    2TTP    C4041757   5.003   4.310   5.065  1.4420 -0.8602 -0.0983
    2TTP    C4141758   5.065   4.188   5.117 -0.8827 -1.0371  0.5968
    2TTP    C4241759   4.998   4.057   5.090  0.6708  0.9546 -0.5243
    3TTP     S141760   4.676   6.059   5.246 -0.6937 -0.2264 -0.0027
    3TTP     S541761   4.316   6.174   5.040 -0.8626 -0.7665 -0.0117
    3TTP     C141762   4.384   6.320   5.124 -1.1779 -0.7012  0.1322
    3TTP     C241763   4.499   6.293   5.193 -1.1443 -0.5306  0.1435
    3TTP     C341764   4.538   6.156   5.181 -0.8684 -0.4452  0.0390
    3TTP     C441765   4.608   5.913   5.162 -0.3786 -0.2918 -0.1465
    3TTP    C1741766   4.493   5.939   5.094 -0.4123 -0.4625 -0.1577
    3TTP    C1841767   4.454   6.076   5.105 -0.6882 -0.5478 -0.0532
    3TTP    C3241768   4.574   6.390   5.290 -0.2393  0.3791  0.1924
    3TTP    C3341769   4.675   6.482   5.233 -0.6651 -1.0928 -0.4025
    3TTP    C3441770   4.771   6.565   5.331  0.2732  0.0765  1.5464
    3TTP    C3541771   4.711   6.591   5.476  0.9849  0.0009 -0.4102
    3TTP    C3641772   4.794   6.702   5.536  1.1192 -0.8377  0.3002
    3TTP    C3741773   4.938   6.670   5.595  0.9633  1.2251 -0.5077
    3TTP    C3841774   4.994   6.775   5.681  0.0255 -0.5029  0.4629
    3TTP    C3941775   5.091   6.872   5.612  0.7477  0.2796 -0.4538
    3TTP    C4041776   5.151   6.965   5.715  1.4226  0.8693  0.9326
    3TTP    C4141777   5.104   7.105   5.749  0.7793  0.7084  0.1907
    3TTP    C4241778   5.137   7.193   5.631  0.3848 -1.1764 -0.4801
    4FIC     F141779   3.642   4.840   4.418  0.3408  0.4494 -0.1777
    4FIC     F241780   3.709   4.576   4.432  0.0954  0.3904 -0.1025
    4FIC     O141781   4.069   5.067   4.663  0.3467  0.0881  0.1490
    4FIC     N541782   4.109   4.359   4.626 -0.2533  0.0482  0.2388
    4FIC     N641783   4.429   4.590   4.814 -0.1994 -0.2222  0.4791
    4FIC    C1941784   4.284   4.896   4.763  0.1142 -0.0964  0.3373
    4FIC    C2041785   4.174   4.849   4.701  0.1223 -0.0033  0.2520
    4FIC    C2141786   4.068   4.943   4.652  0.2452  0.0881  0.1583
    4FIC    C2241787   3.963   4.860   4.590  0.2210  0.1763  0.0803
    4FIC    C2341788   3.844   4.902   4.531  0.3064  0.2776 -0.0190
    4FIC    C2441789   3.761   4.805   4.478  0.2616  0.3478 -0.0788
    4FIC    C2541790   3.796   4.669   4.486  0.1349  0.3175 -0.0399
    4FIC    C2641791   3.914   4.626   4.544  0.0492  0.2166  0.0592
    4FIC    C2741792   4.000   4.723   4.598  0.0929  0.1442  0.1209
    4FIC    C2841793   4.131   4.711   4.666  0.0274  0.0327  0.2279
    4FIC    C2941794   4.199   4.595   4.693 -0.0976 -0.0262  0.2923
    4FIC    C3041795   4.149   4.466   4.656 -0.1827  0.0150  0.2626
    4FIC    C3141796   4.325   4.593   4.759 -0.1528 -0.1336  0.3947
    5FIC     F141797   3.667   6.615   4.867  0.0490  0.1918 -0.3806
    5FIC     F241798   3.776   6.864   4.874 -0.2628  0.3109  0.4374
    5FIC     O141799   4.083   6.317   5.046  0.0199  0.2767 -0.1708
    5FIC     N541800   4.228   7.010   5.012 -0.7318  0.5424  1.7629
    5FIC     N641801   4.531   6.727   5.150 -0.6915  0.5847  1.7619
    5FIC    C1941802   4.334   6.449   5.116 -0.2882  0.4206  0.6851
    5FIC    C2041803   4.225   6.515   5.071 -0.2687  0.3945  0.6005
    5FIC    C2141804   4.100   6.439   5.037 -0.1065  0.3200  0.1521
    5FIC    C2241805   4.002   6.540   4.991 -0.1279  0.3090  0.1732
    5FIC    C2341806   3.871   6.518   4.949 -0.0113  0.2480 -0.1622
    5FIC    C2441807   3.797   6.629   4.910 -0.0601  0.2502 -0.0640
    5FIC    C2541808   3.854   6.757   4.914 -0.2207  0.3116  0.3578
    5FIC    C2641809   3.984   6.780   4.956 -0.3378  0.3725  0.6940
    5FIC    C2741810   4.060   6.669   4.996 -0.2906  0.3715  0.6009
    5FIC    C2841811   4.200   6.658   5.045 -0.3836  0.4263  0.8800
    5FIC    C2941812   4.288   6.762   5.062 -0.5451  0.4940  1.3146
    5FIC    C3041813   4.255   6.898   5.035 -0.6472  0.5203  1.5596
    5FIC    C3141814   4.421   6.742   5.111 -0.6248  0.5435  1.5582
    1BTD     S241815   5.303   3.685   0.541  0.1010  0.3892  0.2351
    1BTD     N141816   5.328   3.592   0.693 -0.3271  0.0382  0.0945
    1BTD     N241817   5.146   3.757   0.594  0.1475  0.5797  0.1169
    1BTD     N341818   4.874   3.734   0.976 -0.5301  0.3341 -0.3779
    1BTD     N441819   5.097   3.531   1.097 -1.1147 -0.3331 -0.4055
    1BTD     C541820   5.205   3.562   0.903 -0.7313 -0.1476 -0.1662
    1BTD     C641821   5.224   3.618   0.771 -0.4088  0.0789 -0.0270
    1BTD     C741822   5.122   3.710   0.716 -0.1433  0.3821 -0.0145
    1BTD     C841823   5.007   3.743   0.795 -0.2133  0.4434 -0.1418
    1BTD    C1541824   4.992   3.686   0.923 -0.5327  0.2146 -0.2758
    1BTD    C1641825   5.090   3.597   0.976 -0.7886 -0.0774 -0.2878
    1BTD    C4341826   5.024   3.553   1.227  0.3259 -1.2957 -0.9565
    1BTD    C4441827   5.093   3.645   1.343 -0.0259  1.6028 -0.3808
    1BTD    C4541828   5.027   3.664   1.475 -1.5181 -1.0210 -0.4360
    1BTD    C4641829   4.965   3.549   1.537 -0.3333 -0.3642  0.9575
    1BTD    C4741830   5.238   3.703   1.326  0.2970 -0.3317 -0.4294
    1BTD    C4841831   5.335   3.629   1.435  0.8913 -0.5240  0.3154
    1BTD    C4941832   5.450   3.558   1.362  0.8373 -0.4751 -1.1474
    1BTD    C5041833   5.544   3.504   1.456  0.2712 -0.3368  1.1019
    1BTD    C7541834   4.781   3.663   1.076 -2.2535 -1.1496  0.5295
    1BTD    C7641835   4.692   3.751   1.172  0.0366 -0.2084 -0.8240
    1BTD    C7741836   4.585   3.694   1.257  0.0576 -0.8973 -1.5769
    1BTD    C7841837   4.436   3.696   1.225 -0.6231  0.0249  0.7517
    1BTD    C7941838   4.778   3.859   1.256  0.0332 -0.2994  1.2670
    1BTD    C8041839   4.714   3.987   1.313  0.7636 -1.1655 -0.0580
    1BTD    C8141840   4.692   3.977   1.462  1.2962  0.3674 -0.6384
    1BTD    C8241841   4.576   4.056   1.515  0.7706  0.4456  0.7614
    2TTP     S141842   5.421   3.360   0.957 -0.5444 -0.0624 -0.0455
    2TTP     S541843   5.241   3.288   1.341 -0.3864 -0.4846 -0.0495
    2TTP     C141844   5.382   3.175   1.321 -0.4716 -0.5512 -0.2844
    2TTP     C241845   5.446   3.190   1.202 -0.5254 -0.4247 -0.2970
    2TTP     C341846   5.386   3.292   1.121 -0.5013 -0.2707 -0.1216
    2TTP     C441847   5.280   3.473   0.977 -0.4591  0.0042  0.1893
    2TTP    C1741848   5.216   3.457   1.097 -0.4053 -0.1222  0.2019
    2TTP    C1841849   5.276   3.355   1.177 -0.4294 -0.2762  0.0266
    2TTP    C3241850   5.559   3.100   1.133 -1.0305 -0.6874 -0.0522
    2TTP    C3341851   5.711   3.121   1.175 -0.0040 -0.5909 -1.4166
    2TTP    C3441852   5.787   3.247   1.121 -0.0734  0.2097  0.0397
    2TTP    C3541853   5.939   3.255   1.098 -1.6413 -0.1665 -0.8353
    2TTP    C3641854   6.025   3.337   1.200  0.1170  0.1678  1.5928
    2TTP    C3741855   6.107   3.414   1.105  0.4101  0.3998  0.3686
    2TTP    C3841856   6.164   3.550   1.138  0.4850  0.2613  0.3772
    2TTP    C3941857   6.160   3.674   1.029  1.7917  0.2452 -0.3757
    2TTP    C4041858   6.267   3.693   0.931  0.2977 -0.3359  1.1710
    2TTP    C4141859   6.415   3.674   0.957 -1.9274 -0.3092  1.2210
    2TTP    C4241860   6.520   3.589   0.888 -0.3863  1.2224  0.5162
    3TTP     S141861   4.830   3.949   0.656 -0.3173 -0.0235 -0.3047
    3TTP     S541862   4.575   3.976   1.001  0.4846  0.1726  0.2802
    3TTP     C141863   4.512   4.090   0.874  0.4636  0.4561  0.5414
    3TTP     C241864   4.587   4.089   0.760  0.2147  0.4123  0.3762
    3TTP     C341865   4.697   3.997   0.769  0.0316  0.1532  0.0373
    3TTP     C441866   4.893   3.836   0.784 -0.2961 -0.3070 -0.5659
    3TTP    C1741867   4.817   3.837   0.898 -0.0475 -0.2633 -0.4007
    3TTP    C1841868   4.708   3.928   0.889  0.1358 -0.0041 -0.0618
    3TTP    C3241869   4.560   4.165   0.617  0.6941 -0.0526 -0.2609
    3TTP    C3341870   4.618   4.305   0.597  0.3581 -2.0680 -0.5977
    3TTP    C3441871   4.596   4.392   0.476  1.3860 -0.0439  0.1503
    3TTP    C3541872   4.470   4.384   0.379  0.5563 -0.9428 -0.3250
    3TTP    C3641873   4.439   4.512   0.309 -1.2030  0.3651 -0.2652
    3TTP    C3741874   4.291   4.538   0.289 -1.6946 -0.2129  0.9213
    3TTP    C3841875   4.226   4.467   0.163 -0.5346 -0.4126  0.7426
    3TTP    C3941876   4.084   4.504   0.113 -0.4278 -0.3279  0.2948
    3TTP    C4041877   4.043   4.467  -0.030 -0.6668  0.1178 -0.8747
    3TTP    C4141878   4.112   4.565  -0.127 -0.2008 -0.0469  0.3474
    3TTP    C4241879   4.073   4.543  -0.273 -1.2213 -1.0396 -0.5889
    4FIC     F141880   5.355   3.095   2.138  0.5214  0.8301 -0.1758
    4FIC     F241881   5.478   2.853   2.112 -0.1695  0.4553 -0.0046
    4FIC     O141882   5.336   3.256   1.622  0.7616  0.4058 -0.3186
    4FIC     N541883   5.641   2.621   1.706 -0.9917 -0.3858  0.1397
    4FIC     N641884   5.601   2.796   1.308 -0.6648 -0.6419 -0.0065
    4FIC    C1941885   5.446   3.083   1.413  0.1867 -0.1028 -0.2059
    4FIC    C2041886   5.447   3.052   1.544  0.1534  0.0185 -0.1766
    4FIC    C2141887   5.388   3.146   1.646  0.4611  0.2800 -0.2386
    4FIC    C2241888   5.404   3.082   1.777  0.3347  0.3553 -0.1857
    4FIC    C2341889   5.365   3.131   1.901  0.5254  0.5820 -0.2143
    4FIC    C2441890   5.391   3.052   2.012  0.3488  0.6105 -0.1519
    4FIC    C2541891   5.455   2.927   1.999 -0.0071  0.4170 -0.0638
    4FIC    C2641892   5.494   2.878   1.875 -0.1988  0.1904 -0.0347
    4FIC    C2741893   5.468   2.956   1.762 -0.0248  0.1581 -0.0969
    4FIC    C2841894   5.497   2.933   1.618 -0.1503 -0.0566 -0.0879
    4FIC    C2941895   5.558   2.822   1.563 -0.4843 -0.2818 -0.0117
    4FIC    C3041896   5.603   2.712   1.642 -0.7621 -0.3382  0.0713
    4FIC    C3141897   5.581   2.809   1.423 -0.5816 -0.4786 -0.0093
    5FIC     F141898   4.013   4.401   1.453 -0.0153 -0.3412  0.2355
    5FIC     F241899   3.840   4.467   1.254  0.3386  0.7029  0.2615
    5FIC     O141900   4.420   4.186   1.167 -0.2860 -0.5125 -0.0218
    5FIC     N541901   3.880   4.409   0.764  0.6544  2.0819  0.1154
    5FIC     N641902   4.232   4.227   0.581  0.3715  1.7375 -0.0910
    5FIC    C1941903   4.398   4.173   0.876 -0.0442  0.4242 -0.0885
    5FIC    C2041904   4.303   4.224   0.955  0.0103  0.4265 -0.0247
    5FIC    C2141905   4.321   4.227   1.104 -0.1222 -0.0712  0.0060
    5FIC    C2241906   4.199   4.289   1.160 -0.0191  0.0701  0.0753
    5FIC    C2341907   4.170   4.314   1.294 -0.0838 -0.2606  0.1234
    5FIC    C2441908   4.048   4.374   1.323  0.0396 -0.0368  0.1856
    5FIC    C2541909   3.959   4.408   1.220  0.2218  0.5011  0.1988
    5FIC    C2641910   3.988   4.384   1.086  0.2874  0.8333  0.1511
    5FIC    C2741911   4.110   4.323   1.055  0.1643  0.6142  0.0878
    5FIC    C2841912   4.170   4.284   0.925  0.1898  0.8544  0.0269
    5FIC    C2941913   4.114   4.301   0.801  0.3490  1.3744  0.0197
    5FIC    C3041914   3.985   4.360   0.781  0.5163  1.7614  0.0723
    5FIC    C3141915   4.179   4.260   0.681  0.3605  1.5712 -0.0411
    1BTD     S241916   6.301   8.791   9.682 -0.2164  0.4227 -0.3488
    1BTD     N141917   6.166   8.764   9.798  0.3678  0.7350  0.4189
    1BTD     N241918   6.245   8.956   9.634 -0.7187  0.1054 -0.8783
    1BTD     N341919   5.889   9.240   9.747 -0.6878  0.0238 -0.5710
    1BTD     N441920   5.792   9.004   9.949  0.6508  0.7994  1.0278
    1BTD     C541921   5.972   8.892   9.874  0.4994  0.7596  0.7174
    1BTD     C641922   6.091   8.873   9.796  0.1684  0.5946  0.2499
    1BTD     C741923   6.135   8.980   9.704 -0.4395  0.2420 -0.4764
    1BTD     C841924   6.058   9.101   9.695 -0.6863  0.0725 -0.6986
    1BTD    C1541925   5.942   9.116   9.774 -0.3461  0.2438 -0.2225
    1BTD    C1641926   5.900   9.012   9.863  0.2397  0.5834  0.4771
    1BTD    C4341927   5.721   9.115  10.021  1.4306  0.6572  0.0972
    1BTD    C4441928   5.718   9.139  10.166 -1.0806 -0.4155 -0.3377
    1BTD    C4541929   5.842   9.181  10.250  1.0197 -0.6169 -0.6327
    1BTD    C4641930   5.935   9.308  10.211 -0.9463  0.3541  0.6916
    1BTD    C4741931   5.587   9.095  10.243 -0.6878 -1.8692  1.0698
    1BTD    C4841932   5.454   9.164  10.214 -0.7453 -0.6936 -0.5648
    1BTD    C4941933   5.409   9.208  10.087  0.7377  0.0534  2.1665
    1BTD    C5041934   5.377   9.350  10.100  0.0463 -1.6200  0.7166
    1BTD    C7541935   5.742   9.292   9.742  0.0221  0.9441 -0.4907
    1BTD    C7641936   5.635   9.189   9.698 -0.1073 -0.0049  0.9109
    1BTD    C7741937   5.486   9.240   9.735 -1.4130 -0.3244 -0.6015
    1BTD    C7841938   5.387   9.126   9.762  0.7099  0.1952  0.1238
    1BTD    C7941939   5.666   9.106   9.570  1.5978 -0.2542 -0.4831
    1BTD    C8041940   5.645   9.187   9.429 -2.3084  0.2276 -0.2973
    1BTD    C8141941   5.588   9.088   9.336 -1.3438 -0.8742  1.5476
    1BTD    C8241942   5.538   9.160   9.208  0.5868  0.0964 -1.0581
    2TTP     S141943   5.910   8.644  10.033  0.3410 -0.0398 -0.0913
    2TTP     S541944   5.513   8.791  10.107  0.2378 -0.3095 -0.1044
    2TTP     C141945   5.520   8.616  10.157  0.3335 -0.3261 -0.1763
    2TTP     C241946   5.643   8.560  10.137  0.3707 -0.2437 -0.1764
    2TTP     C341947   5.736   8.654  10.082  0.3257 -0.1645 -0.1197
    2TTP     C441948   5.902   8.818   9.983  0.2455 -0.0229 -0.0191
    2TTP    C1741949   5.779   8.874  10.003  0.2081 -0.1054 -0.0191
    2TTP    C1841950   5.686   8.781  10.058  0.2536 -0.1845 -0.0761
    2TTP    C3241951   5.695   8.420  10.159 -1.1070  0.8564 -0.2384
    2TTP    C3341952   5.813   8.407  10.263 -1.3241  1.2352  0.0346
    2TTP    C3441953   5.778   8.433  10.413  0.1815 -0.7716  0.9826
    2TTP    C3541954   5.828   8.304  10.489  1.0052 -0.1915 -0.0788
    2TTP    C3641955   5.754   8.173  10.450 -0.6145 -0.0497 -0.4059
    2TTP    C3741956   5.722   8.040  10.535  0.6515 -0.0673  0.9680
    2TTP    C3841957   5.619   8.054  10.650  0.6879 -0.2894 -0.1053
    2TTP    C3941958   5.595   7.921  10.724 -0.8982 -0.8042  0.2360
    2TTP    C4041959   5.699   7.912  10.838 -0.9861  0.3086 -0.2381
    2TTP    C4141960   5.681   7.828  10.963 -0.4796 -0.3747 -0.7931
    2TTP    C4241961   5.660   7.922  11.075  0.1927  0.3152  0.2487
    3TTP     S141962   6.160   9.271   9.466  0.1414  0.5018  0.1548
    3TTP     S541963   5.850   9.552   9.563 -0.4327  0.0072 -0.2329
    3TTP     C141964   5.932   9.607   9.410  0.0470  0.4414  0.1748
    3TTP     C241965   6.033   9.523   9.371  0.2525  0.6201  0.3190
    3TTP     C341966   6.049   9.413   9.461  0.0386  0.4201  0.1121
    3TTP     C441967   6.078   9.216   9.618 -0.3382  0.0677 -0.2530
    3TTP    C1741968   5.977   9.299   9.657 -0.5439 -0.1109 -0.3971
    3TTP    C1841969   5.961   9.410   9.568 -0.3301  0.0894 -0.1900
    3TTP    C3241970   6.083   9.520   9.221  0.5211  0.0097 -1.8813
    3TTP    C3341971   6.052   9.388   9.141  0.1772  0.6463 -0.2709
    3TTP    C3441972   6.106   9.386   9.001 -0.4822 -0.9347 -0.7781
    3TTP    C3541973   6.005   9.443   8.911  0.0294 -1.0136  0.6382
    3TTP    C3641974   6.068   9.539   8.803 -0.2232  0.1644  0.1345
    3TTP    C3741975   6.214   9.598   8.799 -2.5559  0.8976  0.9374
    3TTP    C3841976   6.314   9.504   8.708  0.4537  1.6110  0.0284
    3TTP    C3941977   6.295   9.514   8.555 -0.0736  1.0182 -0.5687
    3TTP    C4041978   6.407   9.464   8.477 -0.3634 -0.3930 -1.1401
    3TTP    C4141979   6.395   9.544   8.339 -0.7194  1.2367  1.0933
    3TTP    C4241980   6.350   9.466   8.210  0.0956  0.2281 -0.8551
    4FIC     F141981   4.707   8.713  10.149  0.2239  0.3309 -0.2186
    4FIC     F241982   4.680   8.491  10.304  0.2160  0.1435 -0.4866
    4FIC     O141983   5.245   8.735  10.092  0.2450  0.5600  0.0653
    4FIC     N541984   5.026   8.188  10.487  0.2197  0.0379 -0.6688
    4FIC     N641985   5.451   8.249  10.412  0.2378  0.2544 -0.3929
    4FIC    C1941986   5.411   8.530  10.221  0.2449  0.4623 -0.0895
    4FIC    C2041987   5.276   8.534  10.229  0.2400  0.4122 -0.1507
    4FIC    C2141988   5.198   8.642  10.160  0.2404  0.4675 -0.0641
    4FIC    C2241989   5.056   8.616  10.189  0.2342  0.3905 -0.1624
    4FIC    C2341990   4.946   8.689  10.147  0.2321  0.4058 -0.1311
    4FIC    C2441991   4.820   8.645  10.187  0.2261  0.3212 -0.2425
    4FIC    C2541992   4.807   8.531  10.267  0.2222  0.2252 -0.3799
    4FIC    C2641993   4.917   8.457  10.310  0.2239  0.2093 -0.4120
    4FIC    C2741994   5.044   8.500  10.270  0.2301  0.2940 -0.3011
    4FIC    C2841995   5.179   8.445  10.298  0.2335  0.3030 -0.2995
    4FIC    C2941996   5.208   8.333  10.372  0.2311  0.2260 -0.4134
    4FIC    C3041997   5.108   8.254  10.435  0.2249  0.1225 -0.5536
    4FIC    C3141998   5.342   8.288  10.394  0.2350  0.2420 -0.4017
    5FIC     F141999   5.383  10.220   9.417 -0.7101 -0.5429 -0.7944
    5FIC     F242000   5.508  10.328   9.200  0.1363  0.2232  0.0525
    5FIC     O142001   5.688   9.781   9.503 -0.4500 -0.3200 -0.5732
    5FIC     N542002   5.904  10.169   8.949  1.5385  1.4827  1.4286
    5FIC     N642003   6.117   9.805   9.060  1.5714  1.5025  1.4305
    5FIC    C1942004   5.915   9.728   9.326  0.4511  0.4905  0.3148
    5FIC    C2042005   5.834   9.834   9.313  0.3525  0.4048  0.2260
    5FIC    C2142006   5.719   9.854   9.408 -0.1189 -0.0198 -0.2391
    5FIC    C2242007   5.652   9.978   9.365 -0.1080 -0.0067 -0.2179
    5FIC    C2342008   5.540  10.038   9.423 -0.4647 -0.3269 -0.5667
    5FIC    C2442009   5.494  10.156   9.365 -0.3729 -0.2407 -0.4656
    5FIC    C2542010   5.558  10.211   9.254  0.0637  0.1545 -0.0289
    5FIC    C2642011   5.669  10.152   9.196  0.4212  0.4752  0.3204
    5FIC    C2742012   5.718  10.033   9.253  0.3346  0.3936  0.2246
    5FIC    C2842013   5.832   9.946   9.216  0.6349  0.6623  0.5150
    5FIC    C2942014   5.920   9.966   9.112  1.0879  1.0715  0.9654
    5FIC    C3042015   5.911  10.078   9.023  1.3342  1.2963  1.2186
    5FIC    C3142016   6.028   9.877   9.084  1.3512  1.3061  1.2188
    1BTD     S242017   5.875   7.462   5.198 -0.4645 -0.1797  0.1948
    1BTD     N142018   5.945   7.420   5.038  0.0780  0.3058  0.2953
    1BTD     N242019   5.885   7.295   5.263 -0.5800 -0.3557 -0.2363
    1BTD     N342020   6.031   6.877   5.104  0.1640  0.1628 -0.9335
    1BTD     N442021   6.104   7.032   4.827  0.9745  0.9776 -0.2784
    1BTD     C542022   6.027   7.216   4.931  0.5362  0.6466 -0.0120
    1BTD     C642023   5.970   7.290   5.040  0.1415  0.3114  0.0167
    1BTD     C742024   5.937   7.220   5.166 -0.2267 -0.0589 -0.2809
    1BTD     C842025   5.963   7.079   5.177 -0.1818 -0.0752 -0.5924
    1BTD    C1542026   6.018   7.010   5.067  0.2106  0.2604 -0.6089
    1BTD    C1642027   6.050   7.078   4.946  0.5653  0.6171 -0.3223
    1BTD    C4342028   6.129   6.888   4.784 -0.1347 -1.0247 -0.5727
    1BTD    C4442029   6.093   6.836   4.647 -0.5108  0.5012 -1.0040
    1BTD    C4542030   6.188   6.722   4.616 -0.5053  0.4605 -0.3824
    1BTD    C4642031   6.152   6.667   4.470  1.3172 -0.0972  0.5521
    1BTD    C4742032   5.950   6.805   4.654  0.3362  0.3377 -0.7540
    1BTD    C4842033   5.841   6.917   4.643  0.4507  0.4374  0.4569
    1BTD    C4942034   5.847   6.998   4.512 -1.0793 -1.3229  0.0057
    1BTD    C5042035   5.768   7.135   4.518  0.8039  1.3636  0.0179
    1BTD    C7542036   6.055   6.748   5.029 -0.4079 -0.8773 -2.0567
    1BTD    C7642037   6.045   6.599   5.062  0.1593 -1.6047 -1.2675
    1BTD    C7742038   6.161   6.527   5.018  0.1748 -0.8790  0.7218
    1BTD    C7842039   6.215   6.404   5.073 -0.9124  0.0320  1.2577
    1BTD    C7942040   5.903   6.541   5.069  0.9011  0.0430 -0.1917
    1BTD    C8042041   5.823   6.558   4.930 -1.5921 -0.5816 -0.4965
    1BTD    C8142042   5.692   6.457   4.922 -0.7077 -0.3029 -0.2097
    1BTD    C8242043   5.704   6.311   4.937  0.0611  0.3032 -0.2790
    2TTP     S142044   6.073   7.393   4.693  0.4336 -0.0314  0.1749
    2TTP     S542045   6.287   7.074   4.500 -0.2726 -0.2084 -0.3229
    2TTP     C142046   6.284   7.217   4.389  0.0286 -0.0324 -0.1069
    2TTP     C242047   6.218   7.324   4.442  0.2644  0.0325  0.0594
    2TTP     C342048   6.167   7.297   4.572  0.2158 -0.0542  0.0224
    2TTP     C442049   6.076   7.250   4.805  0.1324 -0.2074 -0.0409
    2TTP    C1742050   6.142   7.143   4.752 -0.1034 -0.2724 -0.2073
    2TTP    C1842051   6.193   7.170   4.621 -0.0546 -0.1856 -0.1705
    2TTP    C3242052   6.170   7.455   4.372 -1.8767 -0.2297 -0.7624
    2TTP    C3342053   6.051   7.539   4.402  0.6191 -1.4531 -0.7222
    2TTP    C3442054   6.034   7.666   4.313 -0.0349 -0.5711 -0.2017
    2TTP    C3542055   6.155   7.737   4.261  0.2684  0.6069  0.5174
    2TTP    C3642056   6.104   7.856   4.171 -0.3858  0.3723  0.0834
    2TTP    C3742057   6.015   7.986   4.220  1.5022 -0.2293  0.0712
    2TTP    C3842058   5.864   7.975   4.214 -0.4211  0.1014  0.3320
    2TTP    C3942059   5.771   8.088   4.207 -0.3733 -0.5961  0.4488
    2TTP    C4042060   5.620   8.039   4.199  0.1141  0.1119  0.8299
    2TTP    C4142061   5.513   8.117   4.130 -0.9574  1.2904  1.0513
    2TTP    C4242062   5.441   7.983   4.084 -0.8907  0.5645  0.3866
    3TTP     S142063   5.902   6.983   5.463 -0.2522  0.2661  0.3138
    3TTP     S542064   6.057   6.593   5.370 -0.0551  0.3018  0.4904
    3TTP     C142065   6.007   6.595   5.545 -0.0753  0.3500  0.4843
    3TTP     C242066   5.957   6.716   5.584 -0.1374  0.3418  0.4290
    3TTP     C342067   5.955   6.811   5.477 -0.1712  0.2972  0.3903
    3TTP     C442068   5.952   6.980   5.288 -0.2317  0.2179  0.3202
    3TTP    C1742069   6.002   6.860   5.249 -0.1697  0.2261  0.3752
    3TTP    C1842070   6.004   6.765   5.356 -0.1359  0.2707  0.4143
    3TTP    C3242071   5.878   6.741   5.711  1.3218 -0.1739  1.1863
    3TTP    C3342072   5.904   6.850   5.807  0.0551  0.8195  0.5496
    3TTP    C3442073   5.832   6.984   5.836 -0.3836  0.4263 -0.8615
    3TTP    C3542074   5.840   7.031   5.975  1.0685 -0.5119 -0.4646
    3TTP    C3642075   5.746   7.161   6.002 -0.0076 -0.1699  1.2258
    3TTP    C3742076   5.602   7.172   5.944  0.4403  0.5622 -0.4962
    3TTP    C3842077   5.506   7.078   6.018  0.3705  0.7088  1.1321
    3TTP    C3942078   5.485   6.935   5.943  0.2189 -2.5593 -0.1287
    3TTP    C4042079   5.364   6.845   5.988 -0.2280 -0.3335  0.7079
    3TTP    C4142080   5.417   6.701   5.939  0.0102 -0.1656 -1.0624
    3TTP    C4242081   5.482   6.667   5.798 -0.2055  0.1115 -0.6652
    4FIC     F142082   6.826   6.736   3.997  0.0858  0.0602  0.3412
    4FIC     F242083   6.805   6.900   3.781 -0.1006 -0.1900  0.1683
    4FIC     O142084   6.495   6.985   4.347 -0.0201  0.1779  0.1574
    4FIC     N542085   6.539   7.313   3.719 -0.4444 -0.4663 -0.2112
    4FIC     N642086   6.286   7.474   4.036 -0.4896 -0.3237 -0.3201
    4FIC    C1942087   6.358   7.230   4.264 -0.2360 -0.0195 -0.0731
    4FIC    C2042088   6.442   7.161   4.185 -0.2019 -0.0393 -0.0201
    4FIC    C2142089   6.509   7.035   4.234 -0.0898  0.0670  0.0983
    4FIC    C2242090   6.593   6.986   4.124 -0.0796  0.0132  0.1302
    4FIC    C2342091   6.673   6.873   4.122  0.0099  0.0753  0.2321
    4FIC    C2442092   6.744   6.846   4.006  0.0006  0.0046  0.2427
    4FIC    C2542093   6.733   6.931   3.894 -0.0956 -0.1243  0.1534
    4FIC    C2642094   6.652   7.044   3.895 -0.1854 -0.1870  0.0515
    4FIC    C2742095   6.581   7.073   4.012 -0.1774 -0.1171  0.0393
    4FIC    C2842096   6.488   7.183   4.045 -0.2563 -0.1544 -0.0566
    4FIC    C2942097   6.451   7.287   3.963 -0.3601 -0.2731 -0.1595
    4FIC    C3042098   6.500   7.301   3.829 -0.4060 -0.3787 -0.1875
    4FIC    C3142099   6.360   7.389   4.003 -0.4307 -0.3002 -0.2471
    5FIC     F142100   5.965   5.763   5.499  0.0621  0.3415  0.1550
    5FIC     F242101   5.984   5.757   5.771 -0.5091  0.6884  0.2044
    5FIC     O142102   5.987   6.296   5.407  0.3697  0.2195 -0.4902
    5FIC     N542103   6.025   6.128   6.095 -1.1109  1.0995 -0.1843
    5FIC     N642104   6.039   6.546   5.969 -0.7552  0.9341 -0.6984
    5FIC    C1942105   6.012   6.479   5.634 -0.0665  0.5072 -0.6723
    5FIC    C2042106   6.006   6.345   5.646 -0.1215  0.5243 -0.5119
    5FIC    C2142107   5.993   6.258   5.525  0.1141  0.3704 -0.4268
    5FIC    C2242108   5.989   6.119   5.574 -0.0187  0.4343 -0.2548
    5FIC    C2342109   5.978   6.002   5.499  0.1146  0.3390 -0.1285
    5FIC    C2442110   5.976   5.882   5.568 -0.0557  0.4279  0.0247
    5FIC    C2542111   5.986   5.879   5.708 -0.3501  0.6064  0.0498
    5FIC    C2642112   5.997   5.995   5.783 -0.4843  0.7023 -0.0753
    5FIC    C2742113   5.999   6.118   5.715 -0.3154  0.6145 -0.2313
    5FIC    C2842114   6.010   6.257   5.765 -0.3903  0.6770 -0.3884
    5FIC    C2942115   6.021   6.296   5.897 -0.6578  0.8444 -0.4143
    5FIC    C3042116   6.023   6.204   6.005 -0.9059  0.9842 -0.2877
    5FIC    C3142117   6.030   6.433   5.935 -0.7099  0.8929 -0.5707
    1BTD     S242118   1.527   0.087   9.325 -0.0777  0.0720  0.2175
    1BTD     N142119   1.692   0.057   9.259  0.1029  0.5173  0.4542
    1BTD     N242120   1.537  -0.045   9.448 -0.2769 -0.5255 -0.3955
    1BTD     N342121   1.854  -0.367   9.577 -0.3566 -0.9389 -1.2176
    1BTD     N442122   2.044  -0.242   9.344  0.1115  0.3462 -0.1698
    1BTD     C542123   1.873  -0.101   9.306  0.1017  0.4125  0.1156
    1BTD     C642124   1.743  -0.044   9.327  0.0103  0.2134  0.0834
    1BTD     C742125   1.656  -0.101   9.433 -0.2023 -0.3703 -0.3924
    1BTD     C842126   1.705  -0.211   9.512 -0.3128 -0.7260 -0.8118
    1BTD    C1542127   1.833  -0.263   9.488 -0.2171 -0.5130 -0.7630
    1BTD    C1642128   1.917  -0.208   9.386 -0.0122  0.0495 -0.3049
    1BTD    C4342129   2.151  -0.314   9.421 -0.4494  0.5325 -0.5802
    1BTD    C4442130   2.307  -0.317   9.423 -0.4098  0.0052 -0.2407
    1BTD    C4542131   2.400  -0.179   9.453 -0.1233  1.4622  0.2800
    1BTD    C4642132   2.365  -0.060   9.356  0.0412 -0.4074 -0.5035
    1BTD    C4742133   2.344  -0.453   9.496 -0.4979 -0.5055  1.3774
    1BTD    C4842134   2.404  -0.472   9.630  1.0829  0.5135 -1.5474
    1BTD    C4942135   2.449  -0.613   9.692 -0.1505  0.2398 -1.1834
    1BTD    C5042136   2.484  -0.710   9.581 -0.4159  0.9777 -0.3354
    1BTD    C7542137   1.942  -0.472   9.565 -0.2520  1.9425  0.3868
    1BTD    C7642138   2.001  -0.567   9.683  0.6582 -0.1662  0.3127
    1BTD    C7742139   2.087  -0.680   9.631 -1.6382  0.3737  0.5791
    1BTD    C7842140   2.045  -0.766   9.515 -0.2155 -0.6222 -0.1709
    1BTD    C7942141   2.051  -0.502   9.815 -2.4925  0.7043 -1.5223
    1BTD    C8042142   2.083  -0.600   9.935 -0.3468 -0.5494 -1.7127
    1BTD    C8142143   2.245  -0.580   9.988  0.1661  1.2342  0.8593
    1BTD    C8242144   2.287  -0.659  10.110  0.1090 -0.6583 -0.4294
    2TTP     S142145   1.971   0.008   9.046 -0.2606 -0.4888 -0.3143
    2TTP     S542146   2.312  -0.254   9.070 -0.0220 -0.1504 -0.0041
    2TTP     C142147   2.322  -0.160   8.915  0.0156 -0.1557 -0.0046
    2TTP     C242148   2.217  -0.073   8.898 -0.0559 -0.2606 -0.1006
    2TTP     C342149   2.125  -0.078   9.007 -0.1429 -0.3405 -0.1774
    2TTP     C442150   1.961  -0.086   9.201 -0.2981 -0.4835 -0.3142
    2TTP    C1742151   2.066  -0.173   9.218 -0.2267 -0.3788 -0.2183
    2TTP    C1842152   2.158  -0.168   9.109 -0.1397 -0.2987 -0.1416
    2TTP    C3242153   2.179   0.038   8.798 -0.2184  0.4572  0.5741
    2TTP    C3342154   2.196   0.180   8.828 -0.1135 -1.5248  0.2207
    2TTP    C3442155   2.128   0.271   8.723 -1.4524  0.0611  0.5572
    2TTP    C3542156   2.183   0.274   8.569 -0.0348 -0.3144 -0.6362
    2TTP    C3642157   2.083   0.360   8.496 -0.2105 -0.8330  0.4764
    2TTP    C3742158   2.077   0.356   8.341  0.2237  1.3511  1.3427
    2TTP    C3842159   1.954   0.418   8.277 -1.4607  0.1464 -0.2588
    2TTP    C3942160   1.944   0.375   8.122  0.6531  0.2929 -0.7099
    2TTP    C4042161   2.030   0.418   8.012 -0.0353  0.1508  0.2425
    2TTP    C4142162   2.016   0.542   7.924 -0.0061 -0.4555  0.0758
    2TTP    C4242163   1.888   0.554   7.829  1.4163  0.6465 -1.2861
    3TTP     S142164   1.492  -0.298   9.699  0.3263  0.0898  0.2695
    3TTP     S542165   1.704  -0.662   9.783  0.0035 -0.0348  0.5512
    3TTP     C142166   1.539  -0.673   9.857  0.0640  0.2509  0.7328
    3TTP     C242167   1.463  -0.561   9.836  0.1673  0.3064  0.6568
    3TTP     C342168   1.534  -0.463   9.760  0.2024  0.1249  0.4520
    3TTP     C442169   1.657  -0.286   9.625  0.2659 -0.1957  0.0880
    3TTP    C1742170   1.733  -0.398   9.646  0.1626 -0.2514  0.1643
    3TTP    C1842171   1.663  -0.497   9.722  0.1276 -0.0701  0.3688
    3TTP    C3242172   1.322  -0.541   9.886 -0.3315  0.8115 -0.0704
    3TTP    C3342173   1.296  -0.486  10.028  0.9586  0.5528  0.6109
    3TTP    C3442174   1.162  -0.512  10.098  0.9541 -0.3618  0.2842
    3TTP    C3542175   1.083  -0.382  10.111  0.2176  0.3637 -0.1534
    3TTP    C3642176   0.960  -0.379  10.203 -0.0659  0.1343  1.3371
    3TTP    C3742177   0.909  -0.235  10.205 -0.8562 -0.9901 -1.5056
    3TTP    C3842178   0.758  -0.212  10.250  0.0016 -0.4393  0.0031
    3TTP    C3942179   0.712  -0.282  10.374 -1.3272  0.3300  0.0930
    3TTP    C4042180   0.645  -0.413  10.331 -0.2162  0.6262  0.7021
    3TTP    C4142181   0.631  -0.492  10.462 -2.3171 -0.7932  1.4406
    3TTP    C4242182   0.564  -0.621  10.419 -1.0926 -0.2307  0.0544
    4FIC     F142183   2.833  -0.749   8.682  0.0250  0.2992 -0.0603
    4FIC     F242184   2.926  -0.586   8.484  0.1006  0.5217  0.1566
    4FIC     O142185   2.466  -0.427   8.915 -0.0797  0.0296  0.1485
    4FIC     N542186   2.797  -0.123   8.366  0.1344  0.6504  0.6168
    4FIC     N642187   2.491   0.096   8.588  0.0374  0.3948  0.7362
    4FIC    C1942188   2.424  -0.157   8.809 -0.0448  0.1470  0.4294
    4FIC    C2042189   2.512  -0.244   8.758 -0.0214  0.2060  0.3686
    4FIC    C2142190   2.528  -0.381   8.818 -0.0417  0.1392  0.2239
    4FIC    C2242191   2.632  -0.450   8.739 -0.0075  0.2298  0.1898
    4FIC    C2342192   2.681  -0.579   8.757 -0.0108  0.2115  0.0665
    4FIC    C2442193   2.780  -0.622   8.670  0.0260  0.3110  0.0583
    4FIC    C2542194   2.828  -0.538   8.568  0.0649  0.4259  0.1704
    4FIC    C2642195   2.779  -0.410   8.550  0.0685  0.4451  0.2933
    4FIC    C2742196   2.679  -0.364   8.637  0.0315  0.3452  0.3035
    4FIC    C2842197   2.607  -0.234   8.644  0.0245  0.3350  0.4182
    4FIC    C2942198   2.625  -0.126   8.562  0.0548  0.4277  0.5453
    4FIC    C3042199   2.720  -0.125   8.454  0.0984  0.5496  0.5844
    4FIC    C3142200   2.551  -0.005   8.577  0.0450  0.4091  0.6495
    5FIC     F142201   1.887  -1.355  10.148 -0.2382  0.0799  0.1471
    5FIC     F242202   1.639  -1.467  10.167 -0.2415  0.0491 -0.0744
    5FIC     O142203   1.765  -0.866   9.951 -0.1734  0.2737  0.5860
    5FIC     N542204   1.196  -1.278  10.053 -0.2001  0.1433 -0.0801
    5FIC     N642205   1.150  -0.873   9.895 -0.1487  0.3009  0.3073
    5FIC    C1942206   1.485  -0.799   9.898 -0.1535  0.3132  0.5306
    5FIC    C2042207   1.525  -0.917   9.947 -0.1696  0.2658  0.4284
    5FIC    C2142208   1.671  -0.945   9.972 -0.1790  0.2482  0.4656
    5FIC    C2242209   1.680  -1.082  10.024 -0.1962  0.1950  0.3309
    5FIC    C2342210   1.794  -1.152  10.062 -0.2094  0.1626  0.3119
    5FIC    C2442211   1.778  -1.281  10.109 -0.2246  0.1139  0.1739
    5FIC    C2542212   1.650  -1.338  10.119 -0.2262  0.0978  0.0598
    5FIC    C2642213   1.535  -1.269  10.082 -0.2130  0.1299  0.0784
    5FIC    C2742214   1.550  -1.138  10.033 -0.1976  0.1798  0.2172
    5FIC    C2842215   1.450  -1.039   9.986 -0.1814  0.2227  0.2723
    5FIC    C2942216   1.314  -1.057   9.980 -0.1780  0.2224  0.1941
    5FIC    C3042217   1.249  -1.179  10.020 -0.1901  0.1788  0.0436
    5FIC    C3142218   1.225  -0.956   9.933 -0.1619  0.2654  0.2570
    1BTD     S242219  10.800   7.562  10.552 -0.5324 -0.0372  0.0943
    1BTD     N142220  10.939   7.586  10.664 -0.6137  0.0705  0.1721
    1BTD     N242221  10.826   7.715  10.463 -0.2372 -0.3047 -0.2849
    1BTD     N342222  11.131   8.072  10.482  0.2177 -0.6557 -0.9167
    1BTD     N442223  11.270   7.912  10.730 -0.2456 -0.1932 -0.3533
    1BTD     C542224  11.110   7.758  10.695 -0.4158 -0.0727 -0.1090
    1BTD     C642225  10.995   7.701  10.630 -0.4263 -0.0901 -0.0756
    1BTD     C742226  10.932   7.774  10.518 -0.2153 -0.3003 -0.3312
    1BTD     C842227  10.987   7.900  10.476 -0.0052 -0.4822 -0.6077
    1BTD    C1542228  11.100   7.952  10.542 -0.0034 -0.4577 -0.6302
    1BTD    C1642229  11.160   7.882  10.651 -0.2063 -0.2553 -0.3837
    1BTD    C4342230  11.314   8.038  10.768 -1.5438 -0.6110  0.6852
    1BTD    C4442231  11.228   8.106  10.885 -1.0210  0.0414  0.3009
    1BTD    C4542232  11.289   8.243  10.917  1.5342  0.3772 -0.6537
    1BTD    C4642233  11.217   8.366  10.853 -0.8343 -0.4367 -1.2244
    1BTD    C4742234  11.082   8.082  10.915  0.7792 -0.3953 -0.2529
    1BTD    C4842235  11.053   8.073  11.055 -1.1528  0.3895  1.2872
    1BTD    C4942236  10.905   8.105  11.079  0.2971  1.0274 -1.0511
    1BTD    C5042237  10.882   8.059  11.229  0.3782  0.5980 -0.3862
    1BTD    C7542238  11.248   8.161  10.493 -1.1603 -0.9124  1.0119
    1BTD    C7642239  11.352   8.131  10.382  1.2565 -0.6385 -0.0890
    1BTD    C7742240  11.500   8.164  10.406 -0.5850 -0.1814  0.1629
    1BTD    C7842241  11.569   8.111  10.531  0.2954  0.3156  0.8499
    1BTD    C7942242  11.330   8.185  10.242 -0.4494 -0.0643  1.3450
    1BTD    C8042243  11.371   8.081  10.129  0.7864  0.4321 -0.9208
    1BTD    C8142244  11.463   8.151  10.019  0.2510  0.1251 -0.5408
    1BTD    C8242245  11.431   8.126   9.871  0.4974 -1.4404  1.5495
    2TTP     S142246  11.223   7.574  10.919 -0.3654 -0.1324  0.2639
    2TTP     S542247  11.538   7.860  10.979 -0.4039 -0.0756  0.1967
    2TTP     C142248  11.556   7.727  11.102 -0.2242 -0.1850  0.0522
    2TTP     C242249  11.460   7.631  11.090 -0.2018 -0.2090  0.0648
    2TTP     C342250  11.368   7.659  10.984 -0.3256 -0.1419  0.1884
    2TTP     C442251  11.205   7.707  10.796 -0.5450 -0.0229  0.4086
    2TTP    C1742252  11.301   7.803  10.808 -0.5675  0.0009  0.3960
    2TTP    C1842253  11.393   7.775  10.914 -0.4436 -0.0662  0.2720
    2TTP    C3242254  11.440   7.503  11.174 -0.5095  0.6136 -0.4168
    2TTP    C3342255  11.302   7.478  11.238  0.5672 -0.5028  0.9008
    2TTP    C3442256  11.285   7.360  11.336 -0.5607  0.7676  0.3114
    2TTP    C3542257  11.256   7.371  11.488  0.4585 -0.4410  0.2039
    2TTP    C3642258  11.114   7.421  11.523  0.4465 -0.2675  0.3855
    2TTP    C3742259  11.066   7.452  11.662  0.9349  0.3250 -0.1305
    2TTP    C3842260  11.150   7.449  11.796 -1.5304  0.0790 -0.0363
    2TTP    C3942261  11.123   7.341  11.900 -0.7352  0.2538  0.0817
    2TTP    C4042262  11.103   7.183  11.881  0.5945  0.8055 -0.0105
    2TTP    C4142263  11.179   7.125  11.761  0.9050  0.8983 -0.3186
    2TTP    C4242264  11.155   6.964  11.750  0.7978 -1.0832  0.3612
    3TTP     S142265  10.794   8.008  10.318  0.0534  0.1742 -0.2924
    3TTP     S542266  10.985   8.392  10.357  0.1056  0.1934 -0.7236
    3TTP     C142267  10.813   8.418  10.304  0.1688  0.1487 -0.9511
    3TTP     C242268  10.744   8.301  10.289  0.1564  0.1402 -0.8316
    3TTP     C342269  10.824   8.187  10.318  0.0966  0.1688 -0.5555
    3TTP     C442270  10.966   7.982  10.371 -0.0098  0.2192 -0.0646
    3TTP    C1742271  11.035   8.099  10.386  0.0029  0.2276 -0.1842
    3TTP    C1842272  10.955   8.213  10.356  0.0625  0.1991 -0.4604
    3TTP    C3242273  10.603   8.276  10.265 -0.0429 -0.7064 -0.1222
    3TTP    C3342274  10.540   8.271  10.123  0.9526  0.5517 -1.6548
    3TTP    C3442275  10.584   8.141  10.047  0.6320 -0.1112  0.2440
    3TTP    C3542276  10.530   8.117   9.905  0.8620  0.4983 -0.4443
    3TTP    C3642277  10.614   8.092   9.787  0.2363  0.2358  1.1216
    3TTP    C3742278  10.747   8.131   9.732 -0.3745 -1.3290  0.3354
    3TTP    C3842279  10.777   8.096   9.587  1.2987  0.0484  0.5888
    3TTP    C3942280  10.886   8.192   9.530 -1.3129  0.5760  0.5681
    3TTP    C4042281  10.857   8.304   9.433  0.8531  0.6505  0.6597
    3TTP    C4142282  10.862   8.268   9.278  0.7045 -1.1545 -1.3892
    3TTP    C4242283  10.714   8.282   9.229  1.3426 -0.7015 -0.6367
    4FIC     F142284  12.328   8.002  11.147  0.3030  0.0994  0.2439
    4FIC     F242285  12.359   7.859  11.376 -0.1887  1.1616  0.9893
    4FIC     O142286  11.819   7.876  11.015  0.7962 -1.0118 -0.6289
    4FIC     N542287  12.040   7.563  11.612 -0.5439  1.8960  1.4388
    4FIC     N642288  11.636   7.493  11.462 -0.0594  0.8136  0.6064
    4FIC    C1942289  11.667   7.694  11.187  0.5017 -0.3920 -0.2270
    4FIC    C2042290  11.794   7.732  11.211  0.3968 -0.1539 -0.0365
    4FIC    C2142291  11.865   7.825  11.118  0.5608 -0.5004 -0.2639
    4FIC    C2242292  12.000   7.845  11.173  0.3872 -0.1132  0.0319
    4FIC    C2342293  12.103   7.924  11.122  0.4511 -0.2410 -0.0372
    4FIC    C2442294  12.222   7.927  11.192  0.2534  0.1963  0.2907
    4FIC    C2542295  12.238   7.853  11.310  0.0002  0.7430  0.6744
    4FIC    C2642296  12.136   7.774  11.362 -0.0649  0.8736  0.7455
    4FIC    C2742297  12.014   7.770  11.293  0.1327  0.4363  0.4174
    4FIC    C2842298  11.888   7.697  11.320  0.1286  0.4331  0.3905
    4FIC    C2942299  11.863   7.614  11.427 -0.0835  0.8873  0.7021
    4FIC    C3042300  11.961   7.586  11.528 -0.3359  1.4404  1.1061
    4FIC    C3142301  11.738   7.548  11.446 -0.0690  0.8441  0.6477
    5FIC     F142302  11.113   9.143  10.543 -0.3183  0.4246  0.0029
    5FIC     F242303  10.939   9.268  10.374 -0.4785  0.2735  0.0565
    5FIC     O142304  10.976   8.625  10.467  0.1328  0.3030  0.0179
    5FIC     N542305  10.592   9.077  10.077 -0.3879 -0.0305  0.1442
    5FIC     N642306  10.520   8.647  10.052 -0.0031 -0.0949  0.1454
    5FIC    C1942307  10.762   8.559  10.279  0.1395  0.1154  0.0745
    5FIC    C2042308  10.803   8.685  10.305  0.0324  0.1519  0.0687
    5FIC    C2142309  10.914   8.711  10.403  0.0367  0.2489  0.0389
    5FIC    C2242310  10.933   8.857  10.407 -0.0954  0.2663  0.0398
    5FIC    C2342311  11.025   8.928  10.483 -0.1390  0.3469  0.0176
    5FIC    C2442312  11.025   9.066  10.470 -0.2682  0.3469  0.0240
    5FIC    C2542313  10.935   9.130  10.383 -0.3511  0.2692  0.0513
    5FIC    C2642314  10.843   9.059  10.307 -0.3080  0.1888  0.0741
    5FIC    C2742315  10.842   8.920  10.318 -0.1774  0.1869  0.0679
    5FIC    C2842316  10.758   8.817  10.252 -0.1020  0.1135  0.0865
    5FIC    C2942317  10.659   8.839  10.160 -0.1483  0.0267  0.1156
    5FIC    C3042318  10.623   8.970  10.115 -0.2799 -0.0045  0.1311
    5FIC    C3142319  10.583   8.733  10.101 -0.0682 -0.0398  0.1318
    1BTD     S242320   6.249   0.203   8.177  0.3383  0.0658  0.4079
    1BTD     N142321   6.251   0.298   8.025  0.3017  0.3675  0.5937
    1BTD     N242322   6.428   0.179   8.182  0.3028 -0.2707  0.1175
    1BTD     N342323   6.794   0.302   7.915  0.1646 -0.4116 -0.1385
    1BTD     N442324   6.577   0.449   7.722  0.1633  0.3748  0.4485
    1BTD     C542325   6.424   0.375   7.869  0.2295  0.3618  0.5108
    1BTD     C642326   6.378   0.307   7.987  0.2667  0.2100  0.4377
    1BTD     C742327   6.477   0.240   8.075  0.2673 -0.1472  0.1714
    1BTD     C842328   6.616   0.245   8.040  0.2307 -0.3348 -0.0091
    1BTD    C1542329   6.656   0.313   7.924  0.1949 -0.1758  0.0707
    1BTD    C1642330   6.561   0.377   7.839  0.1941  0.1685  0.3278
    1BTD    C4342331   6.693   0.496   7.661  0.3799  0.2743  0.1760
    1BTD    C4442332   6.691   0.656   7.636  0.0706 -0.3131 -1.3365
    1BTD    C4542333   6.800   0.708   7.552  0.0123  1.3381 -0.1386
    1BTD    C4642334   6.835   0.856   7.507 -0.3746 -1.1479  0.3010
    1BTD    C4742335   6.672   0.739   7.768  0.5175 -0.3681 -0.6666
    1BTD    C4842336   6.780   0.757   7.873  1.2914 -0.0247  0.9204
    1BTD    C4942337   6.790   0.894   7.945 -0.0651  1.0658 -1.7296
    1BTD    C5042338   6.682   0.946   8.039  0.1823 -0.0005  0.6295
    1BTD    C7542339   6.881   0.302   7.797 -1.0595  0.3389 -0.2404
    1BTD    C7642340   7.034   0.287   7.782 -0.0723  0.4495  0.9160
    1BTD    C7742341   7.095   0.327   7.639  1.8229  1.2215 -0.1760
    1BTD    C7842342   7.040   0.461   7.588  0.3417  0.9082 -0.1423
    1BTD    C7942343   7.049   0.131   7.772 -0.0417 -0.9067 -0.0970
    1BTD    C8042344   7.001   0.042   7.884 -0.5505 -1.2402  0.2174
    1BTD    C8142345   7.066  -0.091   7.882 -1.7289  0.9700  1.0106
    1BTD    C8242346   7.002  -0.209   7.956 -0.4628 -1.0914 -1.6463
    2TTP     S142347   6.186   0.427   7.686 -0.3938  0.0243 -0.5680
    2TTP     S542348   6.454   0.551   7.373 -0.4295 -0.8890 -0.9687
    2TTP     C142349   6.284   0.558   7.310 -0.4760 -0.6218 -0.8179
    2TTP     C242350   6.191   0.520   7.402 -0.4678 -0.3240 -0.6851
    2TTP     C342351   6.251   0.484   7.527 -0.4243 -0.2961 -0.6980
    2TTP     C442352   6.356   0.420   7.749 -0.3473 -0.2429 -0.7190
    2TTP    C1742353   6.449   0.458   7.657 -0.3556 -0.5407 -0.8515
    2TTP    C1842354   6.389   0.494   7.532 -0.3989 -0.5686 -0.8389
    2TTP    C3242355   6.037   0.500   7.395 -1.7889 -0.4590 -0.0270
    2TTP    C3342356   5.995   0.370   7.367  1.5637 -1.2106  0.1960
    2TTP    C3442357   5.846   0.351   7.369 -1.2924  1.4688 -0.1669
    2TTP    C3542358   5.795   0.217   7.302 -1.8547  0.6486  0.1634
    2TTP    C3642359   5.655   0.203   7.253  2.0982  0.6911 -0.7418
    2TTP    C3742360   5.568   0.325   7.213  1.3620  0.9460 -0.8510
    2TTP    C3842361   5.417   0.267   7.199 -1.3064  1.3055 -0.6311
    2TTP    C3942362   5.307   0.367   7.148  0.7158  0.3723  0.4935
    2TTP    C4042363   5.335   0.428   7.011 -0.0272 -0.8051  0.3615
    2TTP    C4142364   5.351   0.369   6.887 -1.2644  0.3319  0.2633
    2TTP    C4242365   5.413   0.440   6.770  0.1814  1.3188  0.6602
    3TTP     S142366   6.767   0.169   8.282  0.1104 -0.0192 -0.2741
    3TTP     S542367   7.126   0.326   8.103  0.2472  0.0309  0.0441
    3TTP     C142368   7.163   0.276   8.274  0.1482 -0.1372  0.0166
    3TTP     C242369   7.055   0.224   8.339  0.1000 -0.1626 -0.0830
    3TTP     C342370   6.938   0.222   8.257  0.1396 -0.0502 -0.1416
    3TTP     C442371   6.730   0.219   8.111  0.2093  0.1489 -0.2468
    3TTP    C1742372   6.839   0.270   8.046  0.2575  0.1743 -0.1471
    3TTP    C1842373   6.955   0.272   8.128  0.2179  0.0619 -0.0885
    3TTP    C3242374   7.052   0.173   8.490  0.0343  0.2239  0.9341
    3TTP    C3342375   7.034   0.014   8.510  0.5032  0.6236  0.5410
    3TTP    C3442376   6.902  -0.006   8.572  0.0824 -0.5899  0.4863
    3TTP    C3542377   6.860  -0.153   8.574  0.2421 -0.3938  0.0952
    3TTP    C3642378   6.732  -0.196   8.616  0.3537  1.3524 -0.0691
    3TTP    C3742379   6.588  -0.142   8.573 -1.0230 -0.2285 -0.9354
    3TTP    C3842380   6.499  -0.227   8.485 -0.8982 -1.3931  0.2307
    3TTP    C3942381   6.367  -0.176   8.514 -0.5243 -0.1710 -0.6926
    3TTP    C4042382   6.283  -0.209   8.653  0.0664  0.7447 -0.1831
    3TTP    C4142383   6.249  -0.365   8.686 -1.1492 -1.3594  0.3380
    3TTP    C4242384   6.346  -0.473   8.666  0.1968  1.1333 -0.0610
    4FIC     F142385   6.655   0.919   6.673 -0.0837  0.4174  0.2828
    4FIC     F242386   6.410   0.977   6.570 -0.1301 -0.8631 -0.3649
    4FIC     O142387   6.515   0.650   7.122  0.1346  0.5047  0.4033
    4FIC     N542388   5.958   0.869   6.741 -0.0415 -2.6419 -1.2096
    4FIC     N642389   5.899   0.647   7.112  0.1383 -2.3155 -0.9849
    4FIC    C1942390   6.232   0.610   7.182  0.1677 -0.6876 -0.1724
    4FIC    C2042391   6.276   0.676   7.074  0.1146 -0.6596 -0.1774
    4FIC    C2142392   6.424   0.692   7.049  0.1009 -0.0284  0.1287
    4FIC    C2242393   6.437   0.767   6.923  0.0399 -0.1697  0.0374
    4FIC    C2342394   6.555   0.807   6.860  0.0077  0.2631  0.2391
    4FIC    C2442395   6.543   0.877   6.741 -0.0493  0.0162  0.0972
    4FIC    C2542396   6.416   0.907   6.688 -0.0732 -0.6437 -0.2363
    4FIC    C2642397   6.299   0.868   6.751 -0.0415 -1.0783 -0.4390
    4FIC    C2742398   6.309   0.796   6.871  0.0166 -0.8374 -0.2999
    4FIC    C2842399   6.205   0.741   6.961  0.0614 -1.1646 -0.4450
    4FIC    C2942400   6.069   0.750   6.944  0.0548 -1.8120 -0.7663
    4FIC    C3042401   6.009   0.815   6.832  0.0019 -2.2660 -1.0090
    4FIC    C3142402   5.976   0.693   7.037  0.1009 -2.0852 -0.8847
    5FIC     F142403   7.895   0.630   8.155  0.1245 -0.4140 -0.0010
    5FIC     F242404   7.954   0.580   8.416  0.1767 -0.3977 -0.0100
    5FIC     O142405   7.395   0.425   8.122 -0.1287  0.1538  0.2785
    5FIC     N542406   7.683   0.361   8.767  0.0715  0.0305  0.1762
    5FIC     N642407   7.281   0.211   8.689 -0.1369  0.4708  0.3965
    5FIC    C1942408   7.274   0.304   8.360 -0.1686  0.3711  0.3691
    5FIC    C2042409   7.397   0.358   8.358 -0.1070  0.2276  0.2990
    5FIC    C2142410   7.453   0.418   8.232 -0.0902  0.1225  0.2558
    5FIC    C2242411   7.588   0.467   8.265 -0.0197 -0.0233  0.1824
    5FIC    C2342412   7.678   0.530   8.180  0.0181 -0.1554  0.1237
    5FIC    C2442413   7.801   0.567   8.233  0.0840 -0.2797  0.0595
    5FIC    C2542414   7.831   0.541   8.368  0.1109 -0.2710  0.0551
    5FIC    C2642415   7.742   0.478   8.453  0.0734 -0.1396  0.1137
    5FIC    C2742416   7.617   0.440   8.400  0.0066 -0.0126  0.1788
    5FIC    C2842417   7.501   0.372   8.463 -0.0460  0.1419  0.2506
    5FIC    C2942418   7.492   0.330   8.594 -0.0392  0.1953  0.2680
    5FIC    C3042419   7.597   0.347   8.689  0.0216  0.1045  0.2174
    5FIC    C3142420   7.376   0.265   8.646 -0.0929  0.3466  0.3383
  11.10000  11.10000  11.10000
