IDTBR melt
13200
    11RH     C1    1   1.141   1.670   5.114 -0.2227  0.1279 -0.0756
    11RH     C2    2   1.017   1.590   5.132 -0.2322  0.1950  0.1556
    11RH     N1    3   1.205   1.695   5.237 -0.0225  0.1645 -0.1863
    11RH     S1    4   0.993   1.553   5.311  0.0227  0.3019  0.2126
    11RH     C3    5   1.147   1.646   5.352  0.1295  0.2527 -0.0720
    11RH     C4    6   1.328   1.775   5.240 -0.1663 -0.5599 -0.7074
    11RH     S2    7   1.203   1.662   5.510  0.3787  0.3120 -0.1647
    11RH     O1    8   1.185   1.710   5.005 -0.3693  0.0491 -0.1652
    11RH     C5    9   0.938   1.552   5.032 -0.4039  0.1775  0.2963
    21BTZ    C6   10   0.819   1.464   5.024  0.0141 -0.0261 -0.1389
    21BTZ    C7   11   0.773   1.398   5.135  0.0336 -0.1180 -0.1862
    21BTZ    C8   12   0.750   1.448   4.900 -0.0187  0.0916 -0.1364
    21BTZ    C9   13   0.657   1.312   5.129  0.0219 -0.0990 -0.2328
    21BTZ   C10   14   0.588   1.293   5.012 -0.0092  0.0119 -0.2323
    21BTZ   C11   15   0.632   1.361   4.894 -0.0305  0.1110 -0.1838
    21BTZ    N2   16   0.785   1.508   4.786 -0.0400  0.1882 -0.0926
    21BTZ    N3   17   0.572   1.351   4.775 -0.0613  0.2231 -0.1783
    21BTZ    S3   18   0.666   1.454   4.663 -0.0768  0.3105 -0.1109
    31IDT   C12   19   0.475   1.193   5.014  0.3177  0.1890  0.1703
    31IDT   C13   20   0.405   1.143   4.908  0.4788  0.3096  0.0064
    31IDT   C14   21   0.315   1.038   4.945  0.4028  0.2847 -0.2446
    31IDT   C15   22   0.315   1.009   5.080  0.1838  0.1453 -0.2738
    31IDT    S4   23   0.431   1.112   5.171  0.0557  0.0338  0.0173
    4IDB    C16   24   0.220   0.910   5.115  0.2574 -0.2716  0.2355
    4IDB    C17   25   0.148   0.871   4.999  0.0707  0.0003  0.2570
    51IDQ   C18   26   0.200   0.950   4.881 -0.1777  0.5498  0.7259
    4IDB    C19   27   0.059   0.763   5.002  0.0650  0.0013  0.1531
    51IDQ   C20   28   0.258   0.851   4.770 -0.1909 -0.5067  0.1004
    51IDQ   C21   29   0.104   1.046   4.802 -0.2937 -0.4480  0.5752
    51IDQ   C22   30  -0.042   1.074   4.840 -0.5073 -0.5224  0.0418
    51IDQ   C23   31   0.410   0.805   4.749 -0.0122  0.2514  0.4179
    51IDQ   C24   32  -0.147   0.977   4.800 -0.0514 -0.2134 -0.2169
    51IDQ   C25   33  -0.152   0.906   4.669  0.3925  0.4720  0.6375
    51IDQ   C26   34  -0.221   0.770   4.683 -0.2881 -0.2593 -0.0818
    51IDQ   C27   35  -0.263   0.713   4.547  0.4564  0.6787  0.4279
    51IDQ   C28   36  -0.303   0.565   4.557 -0.1310  0.3100 -0.0487
    51IDQ   C29   37  -0.438   0.542   4.621  0.0109 -0.1853  0.1388
    51IDQ   C30   38   0.479   0.740   4.872 -0.0060 -0.4584 -1.0136
    51IDQ   C31   39   0.410   0.617   4.932 -0.8273  0.4769  0.2759
    51IDQ   C32   40   0.476   0.530   5.042 -0.5987  0.4105  0.0512
    51IDQ   C33   41   0.607   0.461   5.025  0.1637 -0.7524  0.2489
    51IDQ   C34   42   0.618   0.353   4.921 -0.0677 -0.4366 -0.2092
    51IDQ   C35   43   0.755   0.301   4.918 -0.9508 -0.1299  0.2236
    4IDB    C36   44   0.204   0.842   5.237  0.4406 -0.5456  0.1092
    4IDB    C37   45   0.113   0.733   5.239  0.4318 -0.5402  0.0042
    11RH    C38   46   1.299   1.924   5.257 -0.7640  0.2795  0.5495
    4IDB    C39   47   0.043   0.696   5.124  0.2481 -0.2728  0.0268
    62IDT   C40   48  -0.041   0.581   5.152  0.4711 -0.1848  0.1113
    72IDQ   C41   49   0.081   0.637   5.351  0.0173 -0.6717  0.0090
    62IDT   C42   50  -0.008   0.538   5.279  0.7815 -0.2584  0.0060
    72IDQ   C43   51   0.018   0.705   5.483 -0.0203 -0.3192 -0.0823
    72IDQ   C44   52   0.197   0.539   5.376 -0.8607  0.6213  0.1649
    62IDT    S5   53  -0.163   0.474   5.075  0.1789 -0.0628  0.3971
    62IDT   C45   54  -0.162   0.372   5.225  0.5077 -0.1205  0.3572
    62IDT   C46   55  -0.076   0.420   5.321  0.8026 -0.2221  0.1447
    82BTZ   C47   56  -0.246   0.249   5.224 -0.2253  0.0428 -0.0126
    82BTZ   C48   57  -0.300   0.208   5.105 -0.2527  0.0489 -0.0021
    82BTZ   C49   58  -0.401   0.104   5.099 -0.1733 -0.0289  0.0063
    82BTZ   C50   59  -0.447   0.042   5.212 -0.0665 -0.1127  0.0046
    82BTZ   C51   60  -0.292   0.187   5.345 -0.1144 -0.0434 -0.0148
    82BTZ   C52   61  -0.394   0.082   5.339 -0.0337 -0.1225 -0.0062
    92RH    C53   62  -0.542  -0.075   5.213  0.1420 -0.4186  0.2036
    82BTZ    N4   63  -0.247   0.219   5.467 -0.0777 -0.0579 -0.0248
    82BTZ    N5   64  -0.431   0.029   5.456  0.0679 -0.2005 -0.0091
    82BTZ    S6   65  -0.335   0.113   5.581  0.0647 -0.1757 -0.0234
    92RH    C54   66  -0.606  -0.139   5.114  0.1408 -0.2216  0.0763
    92RH     S7   67  -0.580  -0.116   4.934 -0.0791  0.3624  0.1128
    92RH    C55   68  -0.711  -0.241   5.137  0.3239 -0.4563 -0.1211
    92RH     O2   69  -0.751  -0.279   5.248  0.4969 -0.8547 -0.1904
    92RH     N6   70  -0.761  -0.292   5.015  0.2784 -0.1684 -0.2241
    92RH    C56   71  -0.709  -0.243   4.897  0.0814  0.2683 -0.1336
    92RH    C57   72  -0.859  -0.403   5.029 -0.7092 -0.3548 -0.0786
    92RH    C58   73  -0.818  -0.548   5.044  0.2740  0.1231  0.1767
    92RH     S8   74  -0.750  -0.286   4.740 -0.0120  0.6763 -0.2240
    72IDQ   C59   75   0.344   0.577   5.374  0.3071 -0.0367 -0.5158
    72IDQ   C60   76   0.389   0.674   5.479 -0.0862 -0.0148 -0.2677
    72IDQ   C61   77   0.542   0.691   5.485  0.3790 -0.2915 -0.2701
    72IDQ   C62   78   0.586   0.795   5.589 -0.0571 -0.4298  0.4151
    72IDQ   C63   79   0.546   0.940   5.573  0.0247  0.3076 -0.3310
    72IDQ   C64   80   0.652   1.028   5.503 -0.3559  0.4457  0.4560
    72IDQ   C65   81   0.629   1.184   5.505  0.1332  0.2824 -0.1612
    72IDQ   C66   82  -0.052   0.624   5.599  0.3363  0.3704 -0.0474
    72IDQ   C67   83  -0.101   0.692   5.727  0.3218  0.7598  1.2697
    72IDQ   C68   84  -0.004   0.762   5.818 -0.1315  0.6397 -0.2683
    72IDQ   C69   85  -0.065   0.821   5.944 -0.4564 -0.1605 -1.1539
    72IDQ   C70   86  -0.174   0.920   5.933  0.1841  0.0206  0.3731
    72IDQ   C71   87  -0.239   0.967   6.058  0.3885  0.6445  0.3359
    72IDQ   C72   88  -0.317   1.090   6.030  0.2906  0.0590 -0.3698
    11RH     C1   89   2.061   2.410   3.473 -0.2283  0.1760  0.0950
    11RH     C2   90   1.949   2.314   3.477 -0.2235  0.1665 -0.0009
    11RH     N1   91   2.156   2.383   3.574 -0.2180  0.0695  0.0571
    11RH     S1   92   1.975   2.193   3.613 -0.2058  0.0181 -0.1347
    11RH     C3   93   2.133   2.277   3.659 -0.2056 -0.0241 -0.0575
    11RH     C4   94   2.280   2.463   3.579  0.4251 -0.2853 -0.6474
    11RH     S2   95   2.230   2.224   3.786 -0.1917 -0.1596 -0.1241
    11RH     O1   96   2.073   2.504   3.393 -0.2398  0.2651  0.1965
    11RH     C5   97   1.846   2.317   3.392 -0.2313  0.2549  0.0119
    21BTZ    C6   98   1.731   2.231   3.385 -0.1139 -0.3740 -0.4100
    21BTZ    C7   99   1.709   2.123   3.466 -0.2204 -0.4179 -0.4962
    21BTZ    C8  100   1.627   2.271   3.294 -0.1204 -0.1283 -0.2959
    21BTZ    C9  101   1.585   2.049   3.462 -0.3379 -0.2241 -0.4749
    21BTZ   C10  102   1.483   2.083   3.378 -0.3486  0.0135 -0.3674
    21BTZ   C11  103   1.501   2.196   3.291 -0.2398  0.0687 -0.2743
    21BTZ    N2  104   1.636   2.375   3.211 -0.0232 -0.0628 -0.2049
    21BTZ    N3  105   1.409   2.239   3.204 -0.2385  0.2927 -0.1658
    21BTZ    S3  106   1.481   2.381   3.121 -0.0813  0.2605 -0.0851
    31IDT   C12  107   1.351   2.014   3.396 -0.2404  0.1667  0.0532
    31IDT   C13  108   1.237   2.021   3.320 -0.3233  0.2500  0.1850
    31IDT   C14  109   1.137   1.928   3.360 -0.3518  0.3350  0.3116
    31IDT   C15  110   1.174   1.849   3.467 -0.2911  0.3170  0.2774
    31IDT    S4  111   1.340   1.887   3.525 -0.1921  0.1899  0.0803
    4IDB    C16  112   1.068   1.760   3.502  0.2561 -0.4906 -0.1895
    4IDB    C17  113   0.960   1.778   3.411  0.1829 -0.4860 -0.1016
    51IDQ   C18  114   0.987   1.902   3.327 -0.2953 -0.2811  0.1996
    4IDB    C19  115   0.847   1.697   3.417  0.0628 -0.3042  0.1681
    51IDQ   C20  116   0.964   1.878   3.168  0.1737  0.0624  0.1482
    51IDQ   C21  117   0.916   2.037   3.367 -0.3050  0.4005  0.2582
    51IDQ   C22  118   0.813   2.040   3.486  0.5617 -0.3042  0.1300
    51IDQ   C23  119   1.081   1.875   3.068 -0.1909 -0.2602  0.2899
    51IDQ   C24  120   0.872   2.055   3.625  0.4476 -0.4580  0.4257
    51IDQ   C25  121   0.937   2.198   3.632  0.7641  0.5846 -0.1948
    51IDQ   C26  122   0.964   2.222   3.775  0.0703  0.3003 -0.1339
    51IDQ   C27  123   1.036   2.355   3.814  0.1622  0.3838  0.6707
    51IDQ   C28  124   1.175   2.385   3.754  0.0634 -0.2087 -0.2750
    51IDQ   C29  125   1.282   2.279   3.791 -0.1199 -0.0036  0.8113
    51IDQ   C30  126   1.035   1.903   2.927  0.4913  0.4784  0.4167
    51IDQ   C31  127   1.137   1.962   2.831  0.0421  0.0289  0.4086
    51IDQ   C32  128   1.163   2.112   2.845 -0.0862 -0.0919  0.7079
    51IDQ   C33  129   1.055   2.215   2.808 -0.5105  0.5115 -0.3361
    51IDQ   C34  130   1.031   2.230   2.659  0.2626  0.1465 -0.2305
    51IDQ   C35  131   0.923   2.323   2.622 -0.2902  0.3830  0.3808
    4IDB    C36  132   1.065   1.660   3.600  0.2092 -0.3122 -0.0069
    4IDB    C37  133   0.949   1.577   3.604  0.0862 -0.1279  0.2680
    11RH    C38  134   2.257   2.593   3.660  0.0892  0.1533 -0.0293
    4IDB    C39  135   0.844   1.596   3.514  0.0158 -0.1258  0.3508
    62IDT   C40  136   0.748   1.489   3.529 -0.2969  0.0698  0.4064
    72IDQ   C41  137   0.913   1.464   3.701 -0.9310  0.2955 -0.5194
    62IDT   C42  138   0.788   1.406   3.632 -0.3357 -0.0006  0.3647
    72IDQ   C43  139   0.872   1.526   3.841  0.2385 -0.4774  0.2759
    72IDQ   C44  140   1.033   1.354   3.712  0.6582 -0.0649 -0.0784
    62IDT    S5  141   0.606   1.424   3.442 -0.1384  0.0295  0.1771
    62IDT   C45  142   0.608   1.280   3.554 -0.1328 -0.0860  0.0298
    62IDT   C46  143   0.709   1.288   3.646 -0.2431 -0.0888  0.1518
    82BTZ   C47  144   0.497   1.178   3.544  0.1918 -0.0397 -0.1821
    82BTZ   C48  145   0.373   1.218   3.503  0.2034  0.0153 -0.1628
    82BTZ   C49  146   0.265   1.125   3.484  0.1177  0.0800 -0.0040
    82BTZ   C50  147   0.281   0.990   3.505  0.0207  0.0897  0.1351
    82BTZ   C51  148   0.519   1.038   3.568  0.0917 -0.0321 -0.0402
    82BTZ   C52  149   0.410   0.943   3.548  0.0047  0.0337  0.1211
    92RH    C53  150   0.170   0.901   3.482  0.0676 -0.0898 -0.1748
    82BTZ    N4  151   0.636   0.986   3.608  0.0708 -0.0819 -0.0435
    82BTZ    N5  152   0.438   0.814   3.572 -0.0862  0.0368  0.2475
    82BTZ    S6  153   0.610   0.810   3.622 -0.0638 -0.0460  0.1639
    92RH    C54  154   0.046   0.924   3.439  0.0619 -0.0599 -0.1420
    92RH     S7  155  -0.021   1.083   3.377  0.0546 -0.0167 -0.0246
    92RH    C55  156  -0.060   0.821   3.436  0.0607 -0.0572 -0.1979
    92RH     O2  157  -0.047   0.702   3.472  0.0648 -0.0818 -0.2801
    92RH     N6  158  -0.182   0.873   3.387  0.0544 -0.0225 -0.1459
    92RH    C56  159  -0.186   1.005   3.350  0.0502  0.0028 -0.0551
    92RH    C57  160  -0.299   0.785   3.352 -0.0630  0.3471 -0.0082
    92RH    C58  161  -0.391   0.754   3.464  0.6656  0.0676 -0.9099
    92RH     S8  162  -0.318   1.091   3.288  0.0424  0.0457  0.0213
    72IDQ   C59  163   1.005   1.211   3.763 -0.4116  0.2618 -0.2485
    72IDQ   C60  164   1.126   1.129   3.795 -0.3974 -0.8208 -0.0467
    72IDQ   C61  165   1.211   1.160   3.922  0.4257  0.9695  0.1900
    72IDQ   C62  166   1.147   1.175   4.060  0.4684  0.7773 -0.3339
    72IDQ   C63  167   1.230   1.206   4.182 -0.2161  0.5414  0.2738
    72IDQ   C64  168   1.347   1.299   4.168  0.5499 -0.3864  0.3596
    72IDQ   C65  169   1.445   1.297   4.288  0.4318  0.0038 -0.2392
    72IDQ   C66  170   0.969   1.558   3.955  0.5394 -0.3446 -0.2207
    72IDQ   C67  171   1.046   1.692   3.946 -0.3288  0.2270  0.1117
    72IDQ   C68  172   1.140   1.706   4.069 -0.2186  0.3008  0.4551
    72IDQ   C69  173   1.193   1.847   4.098  0.2346 -0.2448  0.4746
    72IDQ   C70  174   1.096   1.965   4.109  1.0468 -0.3408 -0.1879
    72IDQ   C71  175   1.140   2.105   4.145 -0.3852 -0.1197  0.9127
    72IDQ   C72  176   1.232   2.120   4.261  0.0169 -0.5848 -0.1786
    11RH     C1  177   6.370   5.073   5.183  0.0890  0.0192 -0.0422
    11RH     C2  178   6.437   5.150   5.076  0.0316  0.0484 -0.0570
    11RH     N1  179   6.272   4.986   5.132  0.2153 -0.1301 -0.0342
    11RH     S1  180   6.365   5.103   4.913  0.1472 -0.1222 -0.0592
    11RH     C3  181   6.251   4.984   4.995  0.2657 -0.2240 -0.0405
    11RH     C4  182   6.187   4.902   5.221  0.0222  1.0012 -0.0586
    11RH     S2  183   6.141   4.891   4.909  0.4126 -0.4053 -0.0331
    11RH     O1  184   6.396   5.082   5.305  0.0354  0.1118 -0.0373
    11RH     C5  185   6.534   5.239   5.098 -0.0873  0.1809 -0.0669
    21BTZ    C6  186   6.612   5.329   5.014  0.1789 -0.2185  0.1915
    21BTZ    C7  187   6.573   5.363   4.887  0.1409 -0.4802  0.1318
    21BTZ    C8  188   6.740   5.373   5.061  0.1832 -0.1014  0.0701
    21BTZ    C9  189   6.657   5.442   4.800  0.1054 -0.6390 -0.0495
    21BTZ   C10  190   6.780   5.487   4.841  0.1081 -0.5360 -0.1706
    21BTZ   C11  191   6.825   5.454   4.973  0.1472 -0.2629 -0.1142
    21BTZ    N2  192   6.789   5.347   5.182  0.2187  0.1512  0.1124
    21BTZ    N3  193   6.943   5.492   5.024  0.1538 -0.1401 -0.2198
    21BTZ    S3  194   6.949   5.425   5.189  0.2073  0.1942 -0.0854
    31IDT   C12  195   6.859   5.576   4.753  0.2335 -0.1484  0.0538
    31IDT   C13  196   6.825   5.700   4.707  0.3443  0.0876  0.5965
    31IDT   C14  197   6.929   5.760   4.629  0.3216  0.2528  0.6926
    31IDT   C15  198   7.042   5.682   4.615  0.1938  0.1441  0.2246
    31IDT    S4  199   7.025   5.525   4.701  0.0911 -0.1789 -0.3791
    4IDB    C16  200   7.143   5.750   4.544 -0.1998 -0.0653 -0.0014
    4IDB    C17  201   7.096   5.877   4.501 -0.2057 -0.1655 -0.2975
    51IDQ   C18  202   6.953   5.896   4.552  0.1050  0.5601  0.1365
    4IDB    C19  203   7.180   5.965   4.432 -0.1993 -0.3066 -0.4701
    51IDQ   C20  204   6.944   6.030   4.636  0.1229 -0.9677 -0.4177
    51IDQ   C21  205   6.845   5.906   4.437  0.1708 -0.5204  0.0384
    51IDQ   C22  206   6.875   5.902   4.280  0.0543 -0.2419  0.2277
    51IDQ   C23  207   6.898   6.037   4.788 -0.4135  0.4630  0.0778
    51IDQ   C24  208   6.756   5.926   4.184  0.5627  0.1740 -0.2190
    51IDQ   C25  209   6.720   6.072   4.145  0.0062  0.2674 -0.4517
    51IDQ   C26  210   6.676   6.166   4.262 -0.0228  0.2524 -0.1781
    51IDQ   C27  211   6.552   6.132   4.343  0.1625 -0.1952 -0.1491
    51IDQ   C28  212   6.496   6.225   4.451 -0.0871 -0.1821 -0.0273
    51IDQ   C29  213   6.599   6.258   4.561 -0.0201  0.0810 -0.1239
    51IDQ   C30  214   6.871   6.177   4.832 -0.3284 -0.3793  0.8613
    51IDQ   C31  215   6.819   6.203   4.969 -0.0104 -0.2360 -0.3484
    51IDQ   C32  216   6.803   6.351   4.996 -0.0067  0.1283  0.5222
    51IDQ   C33  217   6.928   6.434   4.992  0.1551 -0.1471 -0.0593
    51IDQ   C34  218   7.048   6.398   5.081 -0.1683 -0.6855  0.6058
    51IDQ   C35  219   7.166   6.479   5.020  0.2867  0.7588 -0.0098
    4IDB    C36  220   7.275   5.708   4.518 -0.1875 -0.1062  0.1247
    4IDB    C37  221   7.358   5.799   4.448 -0.1811 -0.2511 -0.0550
    11RH    C38  222   6.231   4.765   5.255 -0.3949  0.3394 -0.5639
    4IDB    C39  223   7.311   5.923   4.406 -0.1869 -0.3479 -0.3440
    62IDT   C40  224   7.417   5.995   4.344 -0.2304 -0.5609  0.0239
    72IDQ   C41  225   7.503   5.782   4.394  0.1291  0.8734 -0.5291
    62IDT   C42  226   7.530   5.916   4.335 -0.1631 -0.4231 -0.3513
    72IDQ   C43  227   7.509   5.660   4.284 -0.4690 -0.2718 -0.4221
    72IDQ   C44  228   7.609   5.751   4.510  0.2352 -0.9355  0.0715
    62IDT    S5  229   7.446   6.161   4.281 -0.5174 -0.3901  0.3392
    62IDT   C45  230   7.617   6.113   4.244 -0.5320 -0.1284 -0.0733
    62IDT   C46  231   7.643   5.983   4.278 -0.3335 -0.1783 -0.4069
    82BTZ   C47  232   7.711   6.200   4.176 -0.0290 -0.1689 -0.2981
    82BTZ   C48  233   7.660   6.296   4.093 -0.0212 -0.2909 -0.4462
    82BTZ   C49  234   7.745   6.392   4.027 -0.0300 -0.2815 -0.4438
    82BTZ   C50  235   7.881   6.391   4.043 -0.0467 -0.1500 -0.2934
    82BTZ   C51  236   7.853   6.195   4.196 -0.0465 -0.0288 -0.1373
    82BTZ   C52  237   7.939   6.292   4.129 -0.0554 -0.0193 -0.1349
    92RH    C53  238   7.968   6.475   3.970  0.0638  0.1979  0.1093
    82BTZ    N4  239   7.914   6.105   4.274 -0.0555  0.0978  0.0153
    82BTZ    N5  240   8.070   6.281   4.152 -0.0717  0.1149  0.0197
    82BTZ    S6  241   8.089   6.143   4.265 -0.0763  0.2372  0.1717
    92RH    C54  242   7.948   6.566   3.874  0.0614  0.1752  0.0883
    92RH     S7  243   7.787   6.628   3.814  0.0613  0.2019  0.1161
    92RH    C55  244   8.058   6.632   3.799  0.0582  0.1234  0.0375
    92RH     O2  245   8.179   6.611   3.816  0.0575  0.0951  0.0089
    92RH     N6  246   8.008   6.723   3.704  0.0561  0.1090  0.0249
    92RH    C56  247   7.872   6.738   3.693  0.0571  0.1431  0.0592
    92RH    C57  248   8.107   6.789   3.621  0.0082  0.0476  0.5467
    92RH    C58  249   8.154   6.932   3.657 -0.5394  0.5165 -0.8535
    92RH     S8  250   7.788   6.840   3.588  0.0550  0.1353  0.0535
    72IDQ   C59  251   7.579   5.652   4.620  0.2228 -0.5529 -0.7296
    72IDQ   C60  252   7.621   5.701   4.759  0.5711  0.4576  0.0874
    72IDQ   C61  253   7.579   5.617   4.881 -1.1424 -0.2498 -0.4862
    72IDQ   C62  254   7.432   5.625   4.907  0.9965  0.4219  0.0768
    72IDQ   C63  255   7.365   5.756   4.968  0.2394 -0.1334  0.2499
    72IDQ   C64  256   7.213   5.747   4.975 -0.2098  0.3165  0.1834
    72IDQ   C65  257   7.140   5.862   5.043  0.2524 -0.1137 -0.2976
    72IDQ   C66  258   7.401   5.651   4.178 -0.1574  0.4622  0.2153
    72IDQ   C67  259   7.393   5.523   4.101 -0.2302  1.2008 -0.0927
    72IDQ   C68  260   7.332   5.514   3.962  0.1244  0.0730  0.3431
    72IDQ   C69  261   7.347   5.376   3.899  0.2597  0.0367 -0.3456
    72IDQ   C70  262   7.256   5.361   3.774  0.2924 -0.1671  0.0357
    72IDQ   C71  263   7.286   5.236   3.690  0.5022 -0.3099 -0.6923
    72IDQ   C72  264   7.216   5.239   3.554  0.3137 -0.7450  0.0271
    11RH     C1  265   0.613   0.887   1.955  0.1205  0.0679 -0.0250
    11RH     C2  266   0.491   0.879   2.039  0.0653 -0.0544 -0.1160
    11RH     N1  267   0.582   0.885   1.817  0.2266 -0.0100 -0.0488
    11RH     S1  268   0.343   0.871   1.931  0.1565 -0.2638 -0.2270
    11RH     C3  269   0.449   0.878   1.780  0.2632 -0.1798 -0.1478
    11RH     C4  270   0.694   0.891   1.719  0.2293 -0.7688 -0.2164
    11RH     S2  271   0.385   0.875   1.624  0.3854 -0.3018 -0.1959
    11RH     O1  272   0.730   0.893   1.997  0.0806  0.2201  0.0621
    11RH     C5  273   0.493   0.879   2.172 -0.0359 -0.0130 -0.1141
    21BTZ    C6  274   0.390   0.869   2.280 -0.0913 -0.1724 -0.1698
    21BTZ    C7  275   0.254   0.866   2.260 -0.0973 -0.1520 -0.1322
    21BTZ    C8  276   0.440   0.850   2.413 -0.0652  0.0013 -0.1549
    21BTZ    C9  277   0.162   0.845   2.369 -0.0780  0.0388 -0.0784
    21BTZ   C10  278   0.205   0.827   2.498 -0.0528  0.2088 -0.0622
    21BTZ   C11  279   0.346   0.829   2.524 -0.0457  0.1951 -0.1001
    21BTZ    N2  280   0.570   0.851   2.445 -0.0571  0.0003 -0.1878
    21BTZ    N3  281   0.401   0.812   2.645 -0.0218  0.3501 -0.0891
    21BTZ    S3  282   0.578   0.823   2.622 -0.0234  0.2526 -0.1495
    31IDT   C12  283   0.104   0.814   2.602  0.0724  0.1267 -0.1732
    31IDT   C13  284   0.121   0.794   2.736  0.2170  0.6527 -0.1111
    31IDT   C14  285  -0.001   0.768   2.804  0.3218  0.6611  0.0820
    31IDT   C15  286  -0.112   0.767   2.723  0.2581  0.1430  0.1683
    31IDT    S4  287  -0.070   0.800   2.551  0.0584 -0.4008  0.0100
    4IDB    C16  288  -0.227   0.720   2.802 -0.0520 -0.3595 -0.1073
    4IDB    C17  289  -0.186   0.686   2.935  0.0559 -0.5323 -0.1835
    51IDQ   C18  290  -0.043   0.731   2.951  0.3888 -0.4751 -0.1806
    4IDB    C19  291  -0.277   0.633   3.026  0.0449 -0.3201 -0.0701
    51IDQ   C20  292  -0.039   0.854   3.063 -0.9459  0.2448  0.7109
    51IDQ   C21  293   0.056   0.626   3.003 -0.4148 -0.4120  0.2851
    51IDQ   C22  294   0.019   0.487   3.060  0.3912 -0.4614 -0.8676
    51IDQ   C23  295  -0.008   0.999   3.020  0.0744 -0.1430  0.2635
    51IDQ   C24  296   0.124   0.394   3.112 -0.7297  0.0997  0.0011
    51IDQ   C25  297   0.248   0.372   3.026 -0.2288  0.3945  0.5030
    51IDQ   C26  298   0.369   0.302   3.093  0.3380  0.1713 -0.0801
    51IDQ   C27  299   0.511   0.303   3.022  0.4337  0.1568  0.2768
    51IDQ   C28  300   0.517   0.292   2.869 -0.2444  1.2023  0.5264
    51IDQ   C29  301   0.666   0.287   2.824  0.1006  0.2616 -0.0086
    51IDQ   C30  302  -0.134   1.040   2.935  0.0184 -0.2350 -0.1023
    51IDQ   C31  303  -0.136   1.181   2.872  0.7084  0.5871  0.1575
    51IDQ   C32  304  -0.254   1.181   2.775 -0.1146 -0.0544 -0.0815
    51IDQ   C33  305  -0.295   1.311   2.726 -0.1505 -0.2377  0.5742
    51IDQ   C34  306  -0.391   1.304   2.605  0.0673 -0.4037 -0.1974
    51IDQ   C35  307  -0.440   1.447   2.588 -0.2743  0.3531 -0.2307
    4IDB    C36  308  -0.359   0.701   2.760 -0.1723  0.0291  0.0839
    4IDB    C37  309  -0.450   0.647   2.854 -0.1816  0.2414  0.1976
    11RH    C38  310   0.756   1.029   1.682 -0.3262  0.4352 -0.3752
    4IDB    C39  311  -0.409   0.614   2.984 -0.0754  0.0685  0.1211
    62IDT   C40  312  -0.518   0.550   3.050  0.2496  0.0513 -0.2154
    72IDQ   C41  313  -0.599   0.626   2.841 -0.1331  0.1583 -0.0741
    62IDT   C42  314  -0.631   0.556   2.971  0.5687 -0.0104 -0.6845
    72IDQ   C43  315  -0.639   0.527   2.727 -0.0540  1.0490 -0.1576
    72IDQ   C44  316  -0.680   0.758   2.834  0.4168  0.1714  0.4453
    62IDT    S5  317  -0.546   0.455   3.200 -0.3219  0.0479 -0.3194
    62IDT   C45  318  -0.717   0.427   3.145 -0.0878 -0.0412 -1.0262
    62IDT   C46  319  -0.744   0.487   3.025  0.3785 -0.0628 -1.1436
    82BTZ   C47  320  -0.801   0.341   3.232  0.1612 -0.1491  0.3027
    82BTZ   C48  321  -0.746   0.231   3.294 -0.0323 -0.3017  0.2070
    82BTZ   C49  322  -0.824   0.143   3.377 -0.2476 -0.3880 -0.0839
    82BTZ   C50  323  -0.957   0.165   3.399 -0.2693 -0.3217 -0.2788
    82BTZ   C51  324  -0.940   0.368   3.252  0.1472 -0.0743  0.1068
    82BTZ   C52  325  -1.020   0.278   3.337 -0.0718 -0.1621 -0.1889
    92RH    C53  326  -1.045   0.092   3.490 -0.1416 -0.0763  0.0783
    82BTZ    N4  327  -1.005   0.471   3.198  0.3233  0.0736  0.1745
    82BTZ    N5  328  -1.149   0.309   3.350 -0.0714 -0.0847 -0.3589
    82BTZ    S6  329  -1.175   0.458   3.254  0.2148  0.1077 -0.1435
    92RH    C54  330  -1.019  -0.003   3.580 -0.0356 -0.0827  0.0417
    92RH     S7  331  -0.855  -0.073   3.622  0.0191 -0.0518 -0.1209
    92RH    C55  332  -1.124  -0.068   3.664  0.0561 -0.1171  0.1307
    92RH     O2  333  -1.245  -0.042   3.660  0.0463 -0.1435  0.2474
    92RH     N6  334  -1.068  -0.164   3.751  0.1588 -0.1164  0.0663
    92RH    C56  335  -0.932  -0.185   3.748  0.1607 -0.0857 -0.0635
    92RH    C57  336  -1.155  -0.247   3.838  0.0533  0.3339  0.1294
    92RH    C58  337  -1.153  -0.206   3.979  0.0738  0.4124  0.2019
    92RH     S8  338  -0.842  -0.293   3.840  0.2713 -0.0778 -0.1619
    72IDQ   C59  339  -0.641   0.867   2.933  0.1244 -0.4617 -0.7564
    72IDQ   C60  340  -0.712   1.001   2.907  0.3136 -0.3169 -0.1310
    72IDQ   C61  341  -0.645   1.125   2.972 -0.4854 -0.5142 -0.6468
    72IDQ   C62  342  -0.729   1.254   2.968 -0.2951 -0.0709  0.5100
    72IDQ   C63  343  -0.859   1.245   3.052  0.4262  0.5256  0.6302
    72IDQ   C64  344  -0.943   1.361   3.020 -0.0865 -0.1478  0.0155
    72IDQ   C65  345  -1.053   1.381   3.123  0.5172 -0.4990 -0.4069
    72IDQ   C66  346  -0.642   0.566   2.581 -0.1080 -0.0552  0.5122
    72IDQ   C67  347  -0.704   0.466   2.486 -0.1294 -0.1085 -0.3884
    72IDQ   C68  348  -0.702   0.514   2.342 -0.5496  0.5428 -0.0048
    72IDQ   C69  349  -0.568   0.554   2.281 -0.2152  0.5291  0.0781
    72IDQ   C70  350  -0.562   0.598   2.127 -0.1143  0.6856 -0.1850
    72IDQ   C71  351  -0.604   0.492   2.020  0.2924 -0.1213 -0.4487
    72IDQ   C72  352  -0.596   0.505   1.873  0.1399 -0.0668  0.2072
    11RH     C1  353   5.646   4.283   0.575  0.3653  0.0206  0.0364
    11RH     C2  354   5.590   4.415   0.535  0.3071 -0.0381 -0.0762
    11RH     N1  355   5.632   4.262   0.714  0.2261  0.0642  0.0301
    11RH     S1  356   5.525   4.502   0.682  0.0728 -0.0319 -0.1831
    11RH     C3  357   5.573   4.360   0.790  0.0633  0.0477 -0.0738
    11RH     C4  358   5.693   4.135   0.772  0.2664 -0.0947 -0.3901
    11RH     S2  359   5.546   4.360   0.956 -0.1231  0.0908 -0.1041
    11RH     O1  360   5.697   4.200   0.498  0.5163  0.0314  0.1263
    11RH     C5  361   5.591   4.459   0.408  0.4136 -0.0870 -0.0937
    21BTZ    C6  362   5.560   4.588   0.351 -0.1691 -0.0739  0.0596
    21BTZ    C7  363   5.528   4.698   0.426 -0.1990 -0.0944  0.0766
    21BTZ    C8  364   5.563   4.602   0.208 -0.0104 -0.0095  0.0697
    21BTZ    C9  365   5.499   4.826   0.366 -0.0753 -0.0527  0.1044
    21BTZ   C10  366   5.501   4.843   0.230  0.0780  0.0093  0.1150
    21BTZ   C11  367   5.534   4.732   0.147  0.1153  0.0328  0.0979
    21BTZ    N2  368   5.593   4.502   0.124  0.0334  0.0160  0.0551
    21BTZ    N3  369   5.539   4.737   0.013  0.2602  0.0923  0.1060
    21BTZ    S3  370   5.584   4.572  -0.041  0.2415  0.0966  0.0771
    31IDT   C12  371   5.473   4.977   0.175 -0.1168  0.2279 -0.0188
    31IDT   C13  372   5.360   5.036   0.124  0.0695  0.3257 -0.3215
    31IDT   C14  373   5.380   5.174   0.090  0.3482  0.2418 -0.5018
    31IDT   C15  374   5.508   5.220   0.114  0.3759  0.0801 -0.3381
    31IDT    S4  375   5.613   5.092   0.184  0.0483  0.0210  0.0607
    4IDB    C16  376   5.517   5.357   0.086  0.2834 -0.0190 -0.0335
    4IDB    C17  377   5.388   5.404   0.045  0.3698 -0.0908 -0.3905
    51IDQ   C18  378   5.287   5.286   0.043  0.4798  0.0753 -0.1415
    4IDB    C19  379   5.364   5.539   0.024  0.2680 -0.0706 -0.1484
    51IDQ   C20  380   5.161   5.317   0.143 -0.0763  0.0136  0.5252
    51IDQ   C21  381   5.228   5.245  -0.094  0.0603 -0.1190  0.6433
    51IDQ   C22  382   5.277   5.305  -0.227 -0.0997  0.6213 -0.1386
    51IDQ   C23  383   5.162   5.257   0.278 -0.1678 -0.1402 -0.5386
    51IDQ   C24  384   5.407   5.252  -0.293 -0.1583 -0.1132  0.5351
    51IDQ   C25  385   5.427   5.099  -0.307 -0.0788  0.2297  0.5968
    51IDQ   C26  386   5.570   5.055  -0.327  0.2528 -0.5914 -0.1135
    51IDQ   C27  387   5.650   5.067  -0.200  0.1558 -0.6190  0.2847
    51IDQ   C28  388   5.777   4.989  -0.217  0.4287  0.1341  0.2551
    51IDQ   C29  389   5.849   4.988  -0.082  0.1036 -0.0247 -0.4027
    51IDQ   C30  390   5.271   5.318   0.377  0.4326 -0.7909  0.5108
    51IDQ   C31  391   5.235   5.316   0.528 -0.8284 -0.4180  0.3984
    51IDQ   C32  392   5.335   5.391   0.603 -0.9635  0.0774  0.0283
    51IDQ   C33  393   5.338   5.383   0.754  0.0555 -0.2405  0.0055
    51IDQ   C34  394   5.217   5.412   0.838  0.0795  0.1880 -0.1455
    51IDQ   C35  395   5.138   5.534   0.795 -0.2908 -0.0807 -0.3013
    4IDB    C36  396   5.623   5.447   0.107  0.0935  0.0741  0.5716
    4IDB    C37  397   5.597   5.585   0.085 -0.0081  0.0935  0.8113
    11RH    C38  398   5.617   4.009   0.790  0.1658 -0.2227 -0.4554
    4IDB    C39  399   5.471   5.629   0.045  0.0783  0.0225  0.4566
    62IDT   C40  400   5.475   5.773   0.030  0.1689  0.0180  0.3325
    72IDQ   C41  401   5.697   5.702   0.101  0.0889  0.2822  0.2977
    62IDT   C42  402   5.603   5.816   0.059  0.1825  0.0707  0.1934
    72IDQ   C43  403   5.812   5.681  -0.004  0.9878 -0.1680 -0.0600
    72IDQ   C44  404   5.775   5.698   0.239 -0.2896 -0.2154  0.0638
    62IDT    S5  405   5.363   5.910   0.003  0.1247 -0.0303  0.2704
    62IDT   C45  406   5.502   6.024   0.033  0.1269  0.0263  0.0490
    62IDT   C46  407   5.619   5.958   0.060  0.1587  0.0753  0.0330
    82BTZ   C47  408   5.485   6.172   0.043 -0.0073  0.1990 -0.0852
    82BTZ   C48  409   5.356   6.217   0.035  0.0017  0.1849 -0.3494
    82BTZ   C49  410   5.325   6.358   0.025  0.0110  0.1723 -0.5577
    82BTZ   C50  411   5.423   6.453   0.022  0.0113  0.1737 -0.5014
    82BTZ   C51  412   5.591   6.268   0.040 -0.0074  0.2012 -0.0162
    82BTZ   C52  413   5.560   6.411   0.029  0.0020  0.1882 -0.2278
    92RH    C53  414   5.398   6.598   0.010  0.0847  0.0782  0.0815
    82BTZ    N4  415   5.721   6.236   0.046 -0.0156  0.2142  0.2338
    82BTZ    N5  416   5.665   6.494   0.027  0.0015  0.1910 -0.1481
    82BTZ    S6  417   5.811   6.391   0.039 -0.0115  0.2109  0.2085
    92RH    C54  418   5.283   6.665  -0.005  0.0595  0.0271  0.0447
    92RH     S7  419   5.115   6.593  -0.023  0.1081 -0.0502 -0.1043
    92RH    C55  420   5.275   6.813  -0.009 -0.0142  0.0253  0.1220
    92RH     O2  421   5.371   6.892  -0.000 -0.0604  0.0701  0.2279
    92RH     N6  422   5.141   6.857  -0.026 -0.0263 -0.0345  0.0601
    92RH    C56  423   5.042   6.762  -0.035  0.0287 -0.0808 -0.0575
    92RH    C57  424   5.106   6.999  -0.042  0.4805 -0.2621  0.2834
    92RH    C58  425   5.055   7.063   0.086 -0.1038 -0.0589 -0.0789
    92RH     S8  426   4.876   6.787  -0.055  0.0283 -0.1554 -0.1502
    72IDQ   C59  427   5.716   5.766   0.365  0.1521 -0.1709 -0.5680
    72IDQ   C60  428   5.576   5.731   0.399 -0.2020  0.2825 -0.2915
    72IDQ   C61  429   5.519   5.793   0.527 -0.0904 -0.1574 -0.5240
    72IDQ   C62  430   5.371   5.835   0.520 -0.2124 -0.6750 -0.1319
    72IDQ   C63  431   5.310   5.875   0.651  0.0066 -0.9020 -0.1007
    72IDQ   C64  432   5.169   5.922   0.640 -0.6771 -0.3540 -0.3825
    72IDQ   C65  433   5.119   5.998   0.759 -0.8331  0.5653 -0.4085
    72IDQ   C66  434   5.807   5.675  -0.158  0.2429 -0.6641 -0.3031
    72IDQ   C67  435   5.728   5.564  -0.222 -0.0529  0.0279  0.2008
    72IDQ   C68  436   5.791   5.418  -0.204  0.0719 -0.1174  0.1008
    72IDQ   C69  437   5.931   5.382  -0.255  0.4434 -0.6688 -0.0269
    72IDQ   C70  438   5.955   5.392  -0.398 -0.0624  0.4255 -0.0292
    72IDQ   C71  439   5.976   5.530  -0.464  0.2393 -0.1416  0.4573
    72IDQ   C72  440   5.991   5.517  -0.618  0.3110 -0.8176 -0.8252
    11RH     C1  441   2.050   4.785   0.675 -0.2229  0.0734 -0.2565
    11RH     C2  442   1.969   4.725   0.783  0.0348  0.0304 -0.0845
    11RH     N1  443   2.059   4.699   0.563 -0.0421 -0.1139 -0.0989
    11RH     S1  444   1.909   4.560   0.732  0.4979 -0.2535  0.2732
    11RH     C3  445   1.994   4.577   0.569  0.3287 -0.3016  0.1783
    11RH     C4  446   2.138   4.731   0.445 -0.3023 -0.1513 -0.0326
    11RH     S2  447   1.989   4.457   0.451  0.6067 -0.5453  0.4102
    11RH     O1  448   2.105   4.896   0.678 -0.5561  0.2499 -0.5074
    11RH     C5  449   1.945   4.786   0.900 -0.0664  0.1807 -0.1835
    21BTZ    C6  450   1.873   4.734   1.015 -0.2194 -0.0249 -0.1501
    21BTZ    C7  451   1.822   4.607   1.016 -0.2188 -0.0271 -0.3360
    21BTZ    C8  452   1.846   4.820   1.127 -0.2308 -0.1833 -0.0302
    21BTZ    C9  453   1.742   4.558   1.126 -0.2293 -0.1839 -0.4129
    21BTZ   C10  454   1.713   4.636   1.234 -0.2404 -0.3383 -0.3038
    21BTZ   C11  455   1.765   4.770   1.238 -0.2415 -0.3428 -0.1084
    21BTZ    N2  456   1.890   4.945   1.137 -0.2326 -0.1978  0.1529
    21BTZ    N3  457   1.743   4.856   1.339 -0.2518 -0.4853  0.0119
    21BTZ    S3  458   1.828   5.007   1.294 -0.2483 -0.4204  0.2348
    31IDT   C12  459   1.633   4.583   1.345 -0.0186  0.2246  0.8522
    31IDT   C13  460   1.518   4.638   1.395 -0.3332 -0.2768  0.6946
    31IDT   C14  461   1.442   4.546   1.474 -0.4041 -0.8196  0.0146
    31IDT   C15  462   1.499   4.421   1.485 -0.1445 -0.7358 -0.3497
    31IDT    S4  463   1.654   4.409   1.395  0.2131  0.0442  0.1446
    4IDB    C16  464   1.417   4.338   1.567 -0.0870  0.0469  0.3386
    4IDB    C17  465   1.310   4.414   1.623 -0.1226  0.0496  0.2658
    51IDQ   C18  466   1.306   4.552   1.551 -1.1563  0.6518  0.3918
    4IDB    C19  467   1.225   4.358   1.718 -0.3987 -0.0624 -0.0418
    51IDQ   C20  468   1.166   4.548   1.473 -0.5254  0.1400  0.0613
    51IDQ   C21  469   1.296   4.679   1.638 -0.5581  0.3144  0.1861
    51IDQ   C22  470   1.293   4.684   1.790 -0.4724 -0.6935 -0.3699
    51IDQ   C23  471   1.169   4.528   1.320 -0.2974 -0.1428 -0.1781
    51IDQ   C24  472   1.166   4.726   1.868 -0.3767  0.3389  0.1544
    51IDQ   C25  473   1.110   4.862   1.848  0.2959 -0.3794 -0.6587
    51IDQ   C26  474   0.968   4.860   1.906  0.8766  0.0404  0.0338
    51IDQ   C27  475   0.912   4.997   1.948 -0.4994 -0.2650 -0.0688
    51IDQ   C28  476   0.979   5.066   2.074 -0.5906 -0.0121  0.6305
    51IDQ   C29  477   0.906   5.190   2.114 -0.5355 -0.5580  0.0476
    51IDQ   C30  478   1.026   4.517   1.264  0.0316  0.7278  0.3380
    51IDQ   C31  479   1.035   4.498   1.113  0.7204 -0.1305  0.0982
    51IDQ   C32  480   0.899   4.454   1.045 -0.3031 -0.0471  0.4700
    51IDQ   C33  481   0.851   4.308   1.058  0.1925  0.1320 -0.1673
    51IDQ   C34  482   0.735   4.271   0.971  0.5308 -0.2506  0.5547
    51IDQ   C35  483   0.693   4.126   0.994 -0.1469 -0.1868  0.3421
    4IDB    C36  484   1.441   4.205   1.607 -0.3289 -0.0685  0.1024
    4IDB    C37  485   1.353   4.150   1.705 -0.6094 -0.1820 -0.2106
    11RH    C38  486   2.079   4.810   0.330  0.1272  0.5727  0.6981
    4IDB    C39  487   1.248   4.226   1.758 -0.6406 -0.1779 -0.2780
    62IDT   C40  488   1.181   4.147   1.859 -0.7154 -0.4085 -0.0007
    72IDQ   C41  489   1.346   4.006   1.764  0.3283 -0.2186  0.8448
    62IDT   C42  490   1.227   4.017   1.861 -0.7671 -0.4287 -0.1027
    72IDQ   C43  491   1.476   3.971   1.837 -0.3124 -0.0232 -0.6232
    72IDQ   C44  492   1.337   3.903   1.642  0.3492 -0.2079 -0.6540
    62IDT    S5  493   1.052   4.175   1.980 -0.3282 -0.3120  0.3943
    62IDT   C45  494   1.067   4.001   2.030 -0.2529 -0.3035  0.4010
    62IDT   C46  495   1.162   3.934   1.958 -0.5057 -0.3693  0.1242
    82BTZ   C47  496   0.971   3.956   2.132 -0.2597 -0.0270 -0.3382
    82BTZ   C48  497   0.876   4.045   2.175 -0.1704  0.0327 -0.2629
    82BTZ   C49  498   0.792   4.017   2.289 -0.0064  0.1442 -0.1134
    82BTZ   C50  499   0.803   3.900   2.360  0.0680  0.1960 -0.0393
    82BTZ   C51  500   0.987   3.832   2.203 -0.1871  0.0236 -0.2655
    82BTZ   C52  501   0.901   3.804   2.319 -0.0204  0.1370 -0.1135
    92RH    C53  502   0.709   3.870   2.474  0.0154  0.2321 -0.0163
    82BTZ    N4  503   1.076   3.738   2.171 -0.2618 -0.0260 -0.3273
    82BTZ    N5  504   0.922   3.687   2.380  0.0389  0.1786 -0.0533
    82BTZ    S6  505   1.054   3.606   2.290 -0.1191  0.0722 -0.1911
    92RH    C54  506   0.612   3.942   2.530 -0.0759  0.1423 -0.0584
    92RH     S7  507   0.539   4.097   2.466 -0.4151 -0.0946 -0.2541
    92RH    C55  508   0.546   3.905   2.658  0.0904  0.2247  0.0518
    92RH     O2  509   0.573   3.805   2.727  0.3290  0.3833  0.1929
    92RH     N6  510   0.447   3.999   2.694 -0.0568  0.0993 -0.0239
    92RH    C56  511   0.425   4.106   2.611 -0.3208 -0.0734 -0.1812
    92RH    C57  512   0.366   3.978   2.811 -0.2571  0.8004 -0.5271
    92RH    C58  513   0.429   4.011   2.948 -0.9474  0.5078  0.1401
    92RH     S8  514   0.314   4.232   2.631 -0.5385 -0.2472 -0.2981
    72IDQ   C59  515   1.329   3.756   1.661 -0.3141 -0.3902 -0.2389
    72IDQ   C60  516   1.196   3.710   1.719 -0.1254 -0.0406 -0.0817
    72IDQ   C61  517   1.191   3.559   1.739 -0.0321 -0.3308 -0.4375
    72IDQ   C62  518   1.099   3.519   1.858  0.4040 -0.4589  0.8129
    72IDQ   C63  519   1.135   3.377   1.898 -0.2262  0.2143 -0.2894
    72IDQ   C64  520   1.054   3.336   2.015  0.0272 -0.4178 -0.6113
    72IDQ   C65  521   1.130   3.253   2.116 -0.1841  0.8218  0.3159
    72IDQ   C66  522   1.518   4.067   1.950  0.0295  1.0151 -0.5929
    72IDQ   C67  523   1.650   4.001   2.001 -0.4491 -0.1707 -0.2083
    72IDQ   C68  524   1.693   4.075   2.127  0.9575 -0.3810  0.9506
    72IDQ   C69  525   1.812   4.029   2.206  0.0448 -0.0382 -0.4867
    72IDQ   C70  526   1.938   4.013   2.124  0.0330  0.3713  0.7211
    72IDQ   C71  527   2.063   4.020   2.208  0.3426  0.3525  0.1328
    72IDQ   C72  528   2.103   3.875   2.246 -0.3893  0.5292  0.0587
    11RH     C1  529   6.631   5.345   0.597 -0.1806 -0.0423 -0.1600
    11RH     C2  530   6.618   5.207   0.546 -0.0566 -0.0664 -0.1270
    11RH     N1  531   6.757   5.400   0.567 -0.1200 -0.0430  0.0855
    11RH     S1  532   6.773   5.158   0.461  0.1315 -0.0882  0.2246
    11RH     C3  533   6.847   5.322   0.497  0.0373 -0.0646  0.3110
    11RH     C4  534   6.798   5.533   0.612 -0.5889  0.1222 -0.4251
    11RH     S2  535   7.004   5.364   0.449  0.1378 -0.0705  0.6255
    11RH     O1  536   6.543   5.408   0.660 -0.3206 -0.0236 -0.3735
    11RH     C5  537   6.508   5.132   0.562 -0.0828 -0.0707 -0.3286
    21BTZ    C6  538   6.468   4.999   0.515 -0.0266 -0.1736 -0.2105
    21BTZ    C7  539   6.553   4.919   0.443 -0.0349 -0.2613 -0.1226
    21BTZ    C8  540   6.342   4.946   0.556 -0.0491 -0.1016 -0.1854
    21BTZ    C9  541   6.519   4.783   0.409 -0.0657 -0.2828 -0.0065
    21BTZ   C10  542   6.399   4.728   0.447 -0.0878 -0.2162  0.0216
    21BTZ   C11  543   6.307   4.807   0.522 -0.0802 -0.1233 -0.0674
    21BTZ    N2  544   6.250   5.014   0.626 -0.0436 -0.0135 -0.2636
    21BTZ    N3  545   6.188   4.764   0.565 -0.1000 -0.0526 -0.0507
    21BTZ    S3  546   6.113   4.902   0.652 -0.0790  0.0468 -0.1881
    31IDT   C12  547   6.376   4.584   0.418 -0.2731 -0.1450  0.3114
    31IDT   C13  548   6.280   4.501   0.470 -0.0679 -0.5845 -0.0066
    31IDT   C14  549   6.298   4.365   0.430  0.2776 -0.3952 -0.5224
    31IDT   C15  550   6.407   4.344   0.348  0.3382  0.1883 -0.6010
    31IDT    S4  551   6.496   4.496   0.314 -0.0413  0.5467 -0.0224
    4IDB    C16  552   6.425   4.201   0.330  0.2942  0.0215  0.0142
    4IDB    C17  553   6.323   4.129   0.401  0.3098  0.0292  0.0446
    51IDQ   C18  554   6.223   4.235   0.460  0.1316  0.1462 -0.3129
    4IDB    C19  555   6.326   3.990   0.409  0.3229  0.0313  0.0766
    51IDQ   C20  556   6.094   4.205   0.381  0.5026  0.1972  0.5482
    51IDQ   C21  557   6.183   4.233   0.617  0.0403 -0.2146  0.6406
    51IDQ   C22  558   6.259   4.146   0.711  0.0754 -0.0475  0.6894
    51IDQ   C23  559   6.056   4.291   0.256 -0.5593  0.0132  0.1308
    51IDQ   C24  560   6.224   4.157   0.852 -0.1239 -0.7995 -0.4611
    51IDQ   C25  561   6.261   4.041   0.954  0.6395 -0.2011 -0.0227
    51IDQ   C26  562   6.225   4.069   1.097 -0.0984  0.1803 -0.3216
    51IDQ   C27  563   6.289   3.971   1.197  0.6827 -0.3074  0.6230
    51IDQ   C28  564   6.258   4.016   1.337 -0.9445 -0.4625 -0.1673
    51IDQ   C29  565   6.322   3.923   1.437  0.6055  0.5066 -0.1838
    51IDQ   C30  566   5.938   4.234   0.183 -0.3163  0.6383  0.5040
    51IDQ   C31  567   5.936   4.256   0.026  0.5195 -0.3431 -0.4073
    51IDQ   C32  568   5.813   4.194  -0.028 -0.0434 -0.3233 -0.5565
    51IDQ   C33  569   5.776   4.236  -0.173 -0.2386  0.1316 -0.1388
    51IDQ   C34  570   5.884   4.216  -0.287 -0.4725 -0.0907 -0.4022
    51IDQ   C35  571   5.933   4.069  -0.307  0.2881 -0.1838 -0.0294
    4IDB    C36  572   6.531   4.134   0.267  0.2916  0.0162  0.0156
    4IDB    C37  573   6.532   3.992   0.276  0.3049  0.0182  0.0485
    11RH    C38  574   6.851   5.542   0.754 -0.2318  0.8577 -0.2666
    4IDB    C39  575   6.432   3.923   0.346  0.3204  0.0258  0.0780
    62IDT   C40  576   6.458   3.781   0.334  0.3825 -0.0537  0.1196
    72IDQ   C41  577   6.628   3.895   0.209 -0.1609  0.0779 -0.3695
    62IDT   C42  578   6.574   3.759   0.263  0.2995 -0.3017  0.0574
    72IDQ   C43  579   6.782   3.907   0.241  0.6072  0.6748  0.2041
    72IDQ   C44  580   6.596   3.874   0.054  0.2068 -0.5692 -0.2165
    62IDT    S5  581   6.378   3.627   0.380  0.0612  0.1162  0.1353
    62IDT   C45  582   6.512   3.537   0.296 -0.1804 -0.1707  0.0528
    62IDT   C46  583   6.604   3.622   0.241 -0.0191 -0.3682  0.0195
    82BTZ   C47  584   6.498   3.391   0.271  0.1161 -0.0425 -0.1206
    82BTZ   C48  585   6.371   3.340   0.270  0.0893  0.0251 -0.2156
    82BTZ   C49  586   6.346   3.198   0.263  0.0191  0.0371 -0.2170
    82BTZ   C50  587   6.449   3.108   0.258 -0.0245 -0.0183 -0.1235
    82BTZ   C51  588   6.609   3.301   0.265  0.0726 -0.1022 -0.0204
    82BTZ   C52  589   6.584   3.156   0.259  0.0011 -0.0900 -0.0219
    92RH    C53  590   6.426   2.958   0.249  0.1543  0.0907  0.0020
    82BTZ    N4  591   6.737   3.338   0.266  0.0926 -0.1704  0.0772
    82BTZ    N5  592   6.692   3.078   0.254 -0.0362 -0.1482  0.0746
    82BTZ    S6  593   6.833   3.188   0.257  0.0194 -0.2229  0.1734
    92RH    C54  594   6.319   2.878   0.244  0.1576  0.0876 -0.0167
    92RH     S7  595   6.143   2.929   0.255  0.1510  0.0936 -0.1544
    92RH    C55  596   6.327   2.730   0.229  0.1675  0.0784  0.0749
    92RH     O2  597   6.432   2.665   0.219  0.1738  0.0726  0.1776
    92RH     N6  598   6.199   2.672   0.226  0.1690  0.0770  0.0311
    92RH    C56  599   6.089   2.754   0.238  0.1616  0.0837 -0.0844
    92RH    C57  600   6.194   2.526   0.200  0.2426  0.0654  0.5711
    92RH    C58  601   6.165   2.494   0.051 -0.5879  0.2309  0.6737
    92RH     S8  602   5.926   2.709   0.238  0.1616  0.0837 -0.1575
    72IDQ   C59  603   6.636   3.992  -0.037 -0.2782 -0.0179  0.3201
    72IDQ   C60  604   6.593   3.970  -0.182 -0.3001  0.1147  0.2891
    72IDQ   C61  605   6.603   4.083  -0.278 -0.3646  0.1868  0.1271
    72IDQ   C62  606   6.554   4.042  -0.416 -0.6939  0.4342 -0.1674
    72IDQ   C63  607   6.598   4.133  -0.539  0.4351  0.2733 -0.3772
    72IDQ   C64  608   6.739   4.177  -0.561 -0.1290  0.4030  0.8493
    72IDQ   C65  609   6.774   4.266  -0.679  0.3183  0.2261  0.2155
    72IDQ   C66  610   6.825   3.925   0.385 -0.1063 -0.5208  0.5708
    72IDQ   C67  611   6.973   3.952   0.389  0.3638  0.0937  0.5061
    72IDQ   C68  612   7.043   3.992   0.516 -0.6127  0.1430  0.5420
    72IDQ   C69  613   6.997   4.119   0.590 -0.4266  0.4639  0.3638
    72IDQ   C70  614   7.012   4.131   0.747  1.1766  0.3917 -0.1928
    72IDQ   C71  615   6.946   4.012   0.822  0.1581  0.0278  0.2831
    72IDQ   C72  616   6.959   4.011   0.971  0.3824  0.2385 -0.2259
    11RH     C1  617   4.700   1.644   0.122  0.3150 -0.1873 -0.0006
    11RH     C2  618   4.730   1.760   0.210  0.0401 -0.0361 -0.1068
    11RH     N1  619   4.595   1.565   0.174  0.1977 -0.1360 -0.1612
    11RH     S1  620   4.616   1.759   0.354 -0.3545  0.1638 -0.4110
    11RH     C3  621   4.536   1.605   0.292 -0.1372  0.0379 -0.3831
    11RH     C4  622   4.542   1.448   0.092 -0.3766  0.2345 -0.5705
    11RH     S2  623   4.409   1.530   0.374 -0.3390  0.1324 -0.6058
    11RH     O1  624   4.760   1.616   0.017  0.6123 -0.3408  0.2031
    11RH     C5  625   4.825   1.849   0.184  0.0840 -0.0490  0.0080
    21BTZ    C6  626   4.868   1.964   0.257 -0.1212  0.0281  0.0307
    21BTZ    C7  627   4.824   1.989   0.384 -0.3134  0.1275 -0.0544
    21BTZ    C8  628   4.953   2.059   0.193 -0.1880  0.0745  0.0107
    21BTZ    C9  629   4.861   2.109   0.455 -0.5792  0.2765 -0.1626
    21BTZ   C10  630   4.943   2.203   0.398 -0.6522  0.3259 -0.1856
    21BTZ   C11  631   4.991   2.181   0.265 -0.4580  0.2260 -0.0993
    21BTZ    N2  632   5.002   2.046   0.069 -0.0182 -0.0121  0.0868
    21BTZ    N3  633   5.071   2.266   0.199 -0.5053  0.2611 -0.1116
    21BTZ    S3  634   5.101   2.192   0.039 -0.2001  0.0987  0.0197
    31IDT   C12  635   4.986   2.311   0.482 -0.0657 -0.3572  0.1038
    31IDT   C13  636   4.908   2.401   0.550 -0.1999 -0.5777  0.2449
    31IDT   C14  637   4.983   2.509   0.607 -0.3905 -0.4065  0.1766
    31IDT   C15  638   5.119   2.501   0.583 -0.4025 -0.0552 -0.0165
    31IDT    S4  639   5.162   2.356   0.486 -0.1714  0.0873 -0.1279
    4IDB    C16  640   5.187   2.618   0.636  0.3317  0.2108 -0.0197
    4IDB    C17  641   5.095   2.703   0.704  0.3558  0.4162 -0.2422
    51IDQ   C18  642   4.958   2.638   0.684  0.6331  0.0143  0.3148
    4IDB    C19  643   5.139   2.817   0.770  0.4058  0.5011 -0.4197
    51IDQ   C20  644   4.900   2.616   0.828 -0.3717  0.1429 -0.0142
    51IDQ   C21  645   4.855   2.732   0.595 -0.4791  0.2854 -0.4820
    51IDQ   C22  646   4.899   2.858   0.518 -0.5904 -0.6750  0.4291
    51IDQ   C23  647   4.887   2.481   0.905 -0.2139  0.2504  0.5414
    51IDQ   C24  648   4.784   2.943   0.450  0.1527  0.0231 -0.1201
    51IDQ   C25  649   4.679   3.006   0.543 -0.4677  0.0729  0.1747
    51IDQ   C26  650   4.580   3.085   0.462  0.0851 -0.1453  0.3567
    51IDQ   C27  651   4.482   3.161   0.550 -1.0231 -0.3606 -0.7947
    51IDQ   C28  652   4.425   3.266   0.461  1.2658 -0.1481  1.0199
    51IDQ   C29  653   4.294   3.319   0.513  0.3354  0.4059  0.0867
    51IDQ   C30  654   5.003   2.398   0.956 -0.1192 -0.1830  0.1877
    51IDQ   C31  655   5.092   2.454   1.065 -0.4072  0.4475 -0.2403
    51IDQ   C32  656   5.175   2.343   1.132 -0.5804 -0.1503 -0.4590
    51IDQ   C33  657   5.288   2.388   1.220  0.3194  0.2831  0.4446
    51IDQ   C34  658   5.391   2.484   1.157  0.5980 -0.0795  0.7562
    51IDQ   C35  659   5.489   2.531   1.253 -0.6672 -0.0394  0.2329
    4IDB    C36  660   5.324   2.646   0.634  0.3575  0.0884  0.0267
    4IDB    C37  661   5.368   2.763   0.702  0.4085  0.1777 -0.1567
    11RH    C38  662   4.438   1.470  -0.017 -0.4313  0.0316 -0.0370
    4IDB    C39  663   5.277   2.845   0.768  0.4317  0.3787 -0.3732
    62IDT   C40  664   5.344   2.965   0.813  0.2749  0.3224  0.1799
    72IDQ   C41  665   5.506   2.826   0.715 -0.4483  0.3014  0.0115
    62IDT   C42  666   5.474   2.968   0.767  0.3059  0.5242  0.2802
    72IDQ   C43  667   5.587   2.838   0.574  0.0158 -0.1686 -0.0549
    72IDQ   C44  668   5.594   2.721   0.806  0.3084 -0.1049 -0.4933
    62IDT    S5  669   5.302   3.112   0.907 -0.0410  0.2813  0.1071
    62IDT   C45  670   5.471   3.173   0.879 -0.1185  0.5524  0.2216
    62IDT   C46  671   5.546   3.085   0.805  0.0834  0.6545  0.3039
    82BTZ   C47  672   5.514   3.298   0.928 -0.2009  0.0547 -0.0340
    82BTZ   C48  673   5.449   3.343   1.040 -0.2362  0.1414 -0.0898
    82BTZ   C49  674   5.472   3.476   1.092 -0.1802  0.1475 -0.1293
    82BTZ   C50  675   5.559   3.563   1.033 -0.0889  0.0669 -0.1130
    82BTZ   C51  676   5.607   3.385   0.863 -0.1056 -0.0319 -0.0148
    82BTZ   C52  677   5.630   3.520   0.916 -0.0486 -0.0257 -0.0550
    92RH    C53  678   5.576   3.700   1.074 -0.0662  0.0015  0.0747
    82BTZ    N4  679   5.677   3.352   0.753 -0.0633 -0.1205  0.0385
    82BTZ    N5  680   5.718   3.595   0.849  0.0393 -0.1093 -0.0340
    82BTZ    S6  681   5.776   3.495   0.713  0.0536 -0.2014  0.0396
    92RH    C54  682   5.518   3.774   1.168 -0.0141 -0.0043  0.1115
    92RH     S7  683   5.386   3.721   1.284  0.0785 -0.0233  0.2082
    92RH    C55  684   5.553   3.916   1.194 -0.0240  0.0042  0.0781
    92RH     O2  685   5.638   3.982   1.132 -0.0803  0.0173  0.0134
    92RH     N6  686   5.476   3.970   1.299  0.0398 -0.0046  0.1293
    92RH    C56  687   5.383   3.889   1.361  0.0995 -0.0191  0.1998
    92RH    C57  688   5.490   4.114   1.341 -0.0938  0.6208 -0.6052
    92RH    C58  689   5.388   4.196   1.263  0.4291 -0.4726 -0.1218
    92RH     S8  690   5.280   3.928   1.488  0.1817 -0.0318  0.2708
    72IDQ   C59  691   5.607   2.750   0.960  0.5704  0.0357 -0.0817
    72IDQ   C60  692   5.718   2.842   0.995  0.1776 -0.3820 -0.3061
    72IDQ   C61  693   5.736   2.880   1.142 -0.4956  0.8262  0.7526
    72IDQ   C62  694   5.840   2.989   1.172  0.2764 -0.1516 -0.3319
    72IDQ   C63  695   5.824   3.114   1.097  0.2922 -0.2837  0.6823
    72IDQ   C64  696   5.929   3.225   1.131  0.5517 -0.0804  0.6670
    72IDQ   C65  697   5.937   3.329   1.016 -0.2803 -0.2403  0.1088
    72IDQ   C66  698   5.512   2.919   0.466  0.2578 -0.2661  0.2462
    72IDQ   C67  699   5.583   2.925   0.331  0.2113 -0.0966  0.6443
    72IDQ   C68  700   5.715   2.997   0.325 -0.7351 -0.3812  0.1870
    72IDQ   C69  701   5.713   3.140   0.381  0.1996  0.0378  0.5639
    72IDQ   C70  702   5.853   3.205   0.370 -0.4186 -0.5014 -0.0457
    72IDQ   C71  703   5.848   3.351   0.397  0.5515  0.4934  0.5753
    72IDQ   C72  704   5.977   3.432   0.395  0.3197  0.0518  0.4920
    11RH     C1  705   4.376   3.298   4.038 -0.2962  0.0210 -0.0273
    11RH     C2  706   4.300   3.207   3.949 -0.1038 -0.0709 -0.0981
    11RH     N1  707   4.382   3.429   3.985 -0.3850  0.0228 -0.0326
    11RH     S1  708   4.242   3.299   3.801 -0.0523 -0.1487 -0.1673
    11RH     C3  709   4.320   3.453   3.864 -0.2872 -0.0561 -0.0992
    11RH     C4  710   4.429   3.543   4.068 -0.1959  0.9764 -0.1182
    11RH     S2  711   4.313   3.599   3.780 -0.3601 -0.0721 -0.1200
    11RH     O1  712   4.429   3.267   4.146 -0.3731  0.0888  0.0304
    11RH     C5  713   4.280   3.077   3.976  0.0103 -0.0911 -0.1079
    21BTZ    C6  714   4.206   2.970   3.908 -0.2097 -0.0114 -0.0005
    21BTZ    C7  715   4.143   2.997   3.789 -0.1433 -0.0114 -0.0357
    21BTZ    C8  716   4.195   2.838   3.963 -0.2353 -0.0133 -0.0098
    21BTZ    C9  717   4.068   2.896   3.719 -0.0985 -0.0131 -0.0814
    21BTZ   C10  718   4.055   2.769   3.767 -0.1205 -0.0148 -0.0919
    21BTZ   C11  719   4.118   2.736   3.891 -0.1899 -0.0149 -0.0561
    21BTZ    N2  720   4.252   2.799   4.078 -0.2990 -0.0135  0.0217
    21BTZ    N3  721   4.113   2.615   3.949 -0.2171 -0.0166 -0.0622
    21BTZ    S3  722   4.208   2.627   4.100 -0.3039 -0.0159 -0.0076
    31IDT   C12  723   3.960   2.682   3.696  0.2583 -0.4571 -0.2467
    31IDT   C13  724   3.914   2.564   3.747 -0.1504 -0.1601  0.0833
    31IDT   C14  725   3.796   2.518   3.681 -0.5474  0.2633  0.4838
    31IDT   C15  726   3.752   2.600   3.580 -0.4443  0.2918  0.4618
    31IDT    S4  727   3.857   2.744   3.560  0.1693 -0.2200 -0.0726
    4IDB    C16  728   3.630   2.548   3.526 -0.0814  0.6794 -0.0676
    4IDB    C17  729   3.592   2.432   3.600  0.0574  0.4659 -0.3263
    51IDQ   C18  730   3.710   2.393   3.699  0.1754  0.0757  0.2131
    4IDB    C19  731   3.469   2.371   3.579 -0.0190  0.5793 -0.2101
    51IDQ   C20  732   3.637   2.379   3.836  0.5246  0.1725 -0.5579
    51IDQ   C21  733   3.780   2.261   3.653  0.1284  0.3749 -0.2057
    51IDQ   C22  734   3.727   2.163   3.539 -0.4256 -0.8873 -0.5802
    51IDQ   C23  735   3.662   2.467   3.961  0.4260  0.4113  0.0027
    51IDQ   C24  736   3.788   2.030   3.536 -0.3051 -0.0410  0.0735
    51IDQ   C25  737   3.938   2.004   3.556  0.7628 -0.3255 -0.0505
    51IDQ   C26  738   3.965   1.848   3.545  0.5860  0.1808 -0.3174
    51IDQ   C27  739   4.036   1.775   3.659 -0.0364  0.0532 -0.5594
    51IDQ   C28  740   4.036   1.621   3.629  0.0766  0.5622 -0.0523
    51IDQ   C29  741   4.114   1.537   3.732 -0.1295  0.0609  0.0029
    51IDQ   C30  742   3.580   2.414   4.076  0.2553 -0.0104 -0.8794
    51IDQ   C31  743   3.425   2.418   4.070  0.0549  0.8100 -0.3293
    51IDQ   C32  744   3.362   2.409   4.205  0.0039 -0.4133  0.2674
    51IDQ   C33  745   3.211   2.378   4.207 -0.0004 -0.4989  0.1832
    51IDQ   C34  746   3.162   2.239   4.169  0.5982 -0.3591 -0.2275
    51IDQ   C35  747   3.017   2.242   4.124  0.2153 -0.1411  0.3338
    4IDB    C36  748   3.545   2.604   3.429 -0.2989  1.0096  0.3112
    4IDB    C37  749   3.419   2.541   3.409 -0.3741  1.1212  0.4249
    11RH    C38  750   4.579   3.579   4.046  0.1295 -0.0670 -0.2269
    4IDB    C39  751   3.383   2.427   3.482 -0.2365  0.9095  0.1687
    62IDT   C40  752   3.251   2.386   3.448  0.2122  0.1144  0.0943
    72IDQ   C41  753   3.303   2.579   3.316 -0.8716 -0.1980 -0.6613
    62IDT   C42  754   3.200   2.473   3.353  0.1956  0.2348  0.2145
    72IDQ   C43  755   3.347   2.584   3.170  0.0618  0.6830  0.0005
    72IDQ   C44  756   3.275   2.731   3.350  0.2499  0.3708 -0.3398
    62IDT    S5  757   3.126   2.271   3.506  0.2330  0.0121 -0.0610
    62IDT   C45  758   3.006   2.350   3.395  0.2173  0.1437  0.0501
    62IDT   C46  759   3.062   2.453   3.324  0.1985  0.2514  0.1895
    82BTZ   C47  760   2.870   2.297   3.387  0.0638  0.0949 -0.3553
    82BTZ   C48  761   2.842   2.192   3.470  0.2043  0.0198 -0.4027
    82BTZ   C49  762   2.710   2.135   3.478  0.2453 -0.0635 -0.3164
    82BTZ   C50  763   2.605   2.184   3.404  0.1458 -0.0716 -0.1830
    82BTZ   C51  764   2.764   2.352   3.307 -0.0445  0.0898 -0.2162
    82BTZ   C52  765   2.630   2.294   3.315 -0.0029  0.0051 -0.1286
    92RH    C53  766   2.469   2.135   3.409  0.3540 -0.0484 -0.1721
    82BTZ    N4  767   2.779   2.455   3.222 -0.1847  0.1583 -0.1584
    82BTZ    N5  768   2.536   2.351   3.238 -0.1096  0.0056 -0.0003
    82BTZ    S6  769   2.618   2.482   3.149 -0.2713  0.1166  0.0142
    92RH    C54  770   2.408   2.040   3.481  0.2909  0.0086 -0.1503
    92RH     S7  771   2.481   1.942   3.618  0.2583 -0.0830 -0.1986
    92RH    C55  772   2.267   1.999   3.460  0.2360  0.1599 -0.0811
    92RH     O2  773   2.190   2.047   3.375  0.2417  0.2503 -0.0362
    92RH     N6  774   2.229   1.897   3.550  0.1748  0.1909 -0.0719
    92RH    C56  775   2.322   1.851   3.640  0.1739  0.0829 -0.1251
    92RH    C57  776   2.085   1.849   3.552 -0.5007  0.0634 -0.6803
    92RH    C58  777   2.063   1.753   3.439 -0.4257  0.2024  0.7195
    92RH     S8  778   2.302   1.731   3.757  0.1079  0.0918 -0.1272
    72IDQ   C59  779   3.177   2.754   3.466  0.6805  0.2004  0.1239
    72IDQ   C60  780   3.203   2.893   3.525  0.2046 -0.3105 -0.5835
    72IDQ   C61  781   3.120   2.937   3.648  0.2934  0.2579 -0.0528
    72IDQ   C62  782   3.176   3.054   3.721  0.6806  0.1010  0.6064
    72IDQ   C63  783   3.107   3.094   3.851 -0.2453 -0.5312  0.0856
    72IDQ   C64  784   2.966   3.138   3.843  0.2477  0.0102 -0.7838
    72IDQ   C65  785   2.915   3.191   3.977 -0.1721  0.7846 -0.0060
    72IDQ   C66  786   3.419   2.477   3.081 -0.2726 -0.2680 -0.4272
    72IDQ   C67  787   3.346   2.343   3.089 -0.6437  0.0017  0.8297
    72IDQ   C68  788   3.398   2.241   2.983 -0.5936 -0.0104 -0.3547
    72IDQ   C69  789   3.326   2.101   2.989 -0.0450  0.2128  0.0957
    72IDQ   C70  790   3.357   1.994   2.882 -0.1685  0.7635  0.4516
    72IDQ   C71  791   3.340   2.042   2.738 -0.0189 -0.2387 -0.0745
    72IDQ   C72  792   3.339   1.933   2.624  0.1914  0.0008 -0.4151
    11RH     C1  793   5.306   5.473   4.734  0.2661 -0.0236  0.2500
    11RH     C2  794   5.348   5.599   4.800  0.1100  0.0689  0.1751
    11RH     N1  795   5.398   5.433   4.636  0.2592  0.0931  0.1955
    11RH     S1  796   5.507   5.656   4.728 -0.0355  0.3032  0.0380
    11RH     C3  797   5.510   5.511   4.614  0.1167  0.2676  0.0861
    11RH     C4  798   5.361   5.314   4.551 -0.1730 -0.6266 -1.1125
    11RH     S2  799   5.634   5.486   4.503  0.0771  0.4324  0.0029
    11RH     O1  800   5.203   5.409   4.761  0.3890 -0.1830  0.3483
    11RH     C5  801   5.279   5.659   4.897  0.0845 -0.0116  0.2061
    21BTZ    C6  802   5.301   5.775   4.977  0.2362 -0.3642  0.3930
    21BTZ    C7  803   5.409   5.858   4.960  0.3347 -0.4433  0.6213
    21BTZ    C8  804   5.208   5.804   5.082  0.0212 -0.2843  0.1825
    21BTZ    C9  805   5.430   5.973   5.045  0.2277 -0.4478  0.6542
    21BTZ   C10  806   5.344   6.004   5.146  0.0225 -0.3729  0.4588
    21BTZ   C11  807   5.230   5.920   5.168 -0.0875 -0.2886  0.2159
    21BTZ    N2  808   5.100   5.730   5.108 -0.0914 -0.2035 -0.0491
    21BTZ    N3  809   5.138   5.940   5.264 -0.2875 -0.2114  0.0112
    21BTZ    S3  810   5.019   5.808   5.248 -0.3466 -0.1280 -0.2380
    31IDT   C12  811   5.377   6.122   5.236 -0.3129 -0.0057  0.1620
    31IDT   C13  812   5.314   6.156   5.352 -0.1281 -0.1042  0.2930
    31IDT   C14  813   5.355   6.283   5.402 -0.0229 -0.1621  0.3545
    31IDT   C15  814   5.450   6.346   5.325 -0.1266 -0.1083  0.2707
    31IDT    S4  815   5.495   6.249   5.181 -0.3677  0.0210  0.1062
    4IDB    C16  816   5.486   6.475   5.375 -0.3833  0.5757 -0.0241
    4IDB    C17  817   5.395   6.504   5.482 -0.4503  0.6036 -0.0885
    51IDQ   C18  818   5.306   6.377   5.515 -0.7571 -0.3965  0.1971
    4IDB    C19  819   5.397   6.628   5.545 -0.1839  0.4633  0.1819
    51IDQ   C20  820   5.344   6.334   5.660  0.0907 -0.3507 -0.0045
    51IDQ   C21  821   5.154   6.391   5.513  0.8656  0.1664 -0.0834
    51IDQ   C22  822   5.079   6.520   5.512  0.5296 -0.4611 -0.9347
    51IDQ   C23  823   5.393   6.193   5.687 -0.8689 -0.3518 -0.0869
    51IDQ   C24  824   5.061   6.581   5.651 -0.2596 -0.2254  0.7960
    51IDQ   C25  825   4.969   6.530   5.766  0.0669 -0.2799  0.1429
    51IDQ   C26  826   4.983   6.606   5.900 -0.4034  0.2697 -0.1568
    51IDQ   C27  827   5.122   6.584   5.974  0.6626  0.1736  0.2973
    51IDQ   C28  828   5.170   6.447   6.017  0.3010 -0.0780  0.2135
    51IDQ   C29  829   5.098   6.379   6.136  0.0369 -0.3594  0.7445
    51IDQ   C30  830   5.402   6.151   5.827  0.5981 -0.1547 -0.3648
    51IDQ   C31  831   5.482   6.243   5.923  0.1663  0.5930 -0.0979
    51IDQ   C32  832   5.521   6.175   6.052 -0.1309  0.4973  0.5095
    51IDQ   C33  833   5.599   6.248   6.150 -0.5270 -1.0236 -0.1259
    51IDQ   C34  834   5.605   6.194   6.296 -0.8706  0.2755 -0.0627
    51IDQ   C35  835   5.682   6.067   6.315  0.5108  0.1933 -0.1089
    4IDB    C36  836   5.579   6.570   5.331 -0.0473  0.4058  0.3136
    4IDB    C37  837   5.580   6.696   5.397  0.2216  0.2640  0.5867
    11RH    C38  838   5.424   5.186   4.612  0.1414  0.4904  0.4270
    4IDB    C39  839   5.491   6.723   5.501  0.1520  0.2936  0.5196
    62IDT   C40  840   5.528   6.854   5.558 -0.0049  0.2361 -0.0789
    72IDQ   C41  841   5.668   6.822   5.364  0.7587 -0.2277 -0.4166
    62IDT   C42  842   5.629   6.913   5.484 -0.1462  0.3581 -0.1756
    72IDQ   C43  843   5.628   6.899   5.225 -0.6637 -0.6453 -0.5027
    72IDQ   C44  844   5.824   6.783   5.373  0.0150  0.5044 -0.4136
    62IDT    S5  845   5.470   6.960   5.690  0.0248  0.1472  0.0058
    62IDT   C45  846   5.591   7.085   5.637 -0.1643  0.2866 -0.0994
    62IDT   C46  847   5.664   7.044   5.529 -0.2364  0.3869 -0.1874
    82BTZ   C47  848   5.610   7.214   5.714  0.3386 -0.0212 -0.0668
    82BTZ   C48  849   5.538   7.229   5.829  0.2602 -0.1640 -0.0960
    82BTZ   C49  850   5.527   7.357   5.895  0.0225 -0.1957 -0.0722
    82BTZ   C50  851   5.588   7.469   5.846 -0.1365 -0.0846 -0.0194
    82BTZ   C51  852   5.676   7.328   5.658  0.1786  0.0990 -0.0111
    82BTZ   C52  853   5.665   7.458   5.725 -0.0631  0.0667  0.0130
    92RH    C53  854   5.566   7.599   5.914 -0.0963  0.0342 -0.0537
    82BTZ    N4  855   5.749   7.325   5.546  0.2341  0.2426  0.0215
    82BTZ    N5  856   5.729   7.560   5.667 -0.2017  0.1844  0.0650
    82BTZ    S6  857   5.808   7.493   5.521 -0.0254  0.3448  0.0857
    92RH    C54  858   5.496   7.636   6.022 -0.1127  0.0994 -0.0864
    92RH     S7  859   5.398   7.527   6.132 -0.0546  0.1511  0.0173
    92RH    C55  860   5.489   7.776   6.071 -0.1829  0.1411 -0.2161
    92RH     O2  861   5.544   7.873   6.018 -0.2338  0.1211 -0.3083
    92RH     N6  862   5.409   7.786   6.187 -0.1852  0.2081 -0.2236
    92RH    C56  863   5.351   7.671   6.237 -0.1258  0.2252 -0.1158
    92RH    C57  864   5.383   7.920   6.249  0.7836 -0.7081 -0.6355
    92RH    C58  865   5.254   7.986   6.206 -0.3748 -0.0043 -0.2493
    92RH     S8  866   5.252   7.656   6.372 -0.1149  0.3010 -0.0992
    72IDQ   C59  867   5.938   6.886   5.381 -0.2554 -0.1342  0.1768
    72IDQ   C60  868   5.954   6.994   5.277  0.1779  0.2406 -0.1010
    72IDQ   C61  869   6.053   7.100   5.310  0.2022  0.2209  0.4996
    72IDQ   C62  870   6.094   7.188   5.188  0.4241 -0.1121  0.1577
    72IDQ   C63  871   6.188   7.302   5.225 -0.4588 -0.3219  0.8058
    72IDQ   C64  872   6.190   7.407   5.114 -0.3442  0.4187  0.7431
    72IDQ   C65  873   6.270   7.536   5.141  0.0507  0.4626  0.5166
    72IDQ   C66  874   5.630   6.835   5.086 -0.5521 -0.2561 -0.0012
    72IDQ   C67  875   5.757   6.824   5.016  0.0587  0.0497  0.0016
    72IDQ   C68  876   5.743   6.779   4.880 -0.3003  0.5017 -0.2000
    72IDQ   C69  877   5.875   6.798   4.801 -0.4404 -0.0766 -0.6199
    72IDQ   C70  878   5.868   6.773   4.649  0.2324  0.4795  0.0228
    72IDQ   C71  879   5.784   6.867   4.568  0.3614 -0.5061  0.3995
    72IDQ   C72  880   5.786   6.858   4.418 -0.0204  0.7514  0.2091
    11RH     C1  881   1.891   2.798   3.503 -0.3158 -0.0492 -0.4490
    11RH     C2  882   1.864   2.770   3.646 -0.0886  0.1278 -0.3704
    11RH     N1  883   1.782   2.761   3.421 -0.3591 -0.3569 -0.2539
    11RH     S1  884   1.697   2.697   3.664  0.0535 -0.1218 -0.0450
    11RH     C3  885   1.671   2.707   3.482 -0.1942 -0.4480 -0.0286
    11RH     C4  886   1.789   2.784   3.268  0.0786  0.5028 -0.1895
    11RH     S2  887   1.528   2.655   3.408 -0.2033 -0.7987  0.2319
    11RH     O1  888   1.996   2.847   3.457 -0.4542  0.0536 -0.6585
    11RH     C5  889   1.951   2.796   3.744 -0.0059  0.4248 -0.5202
    21BTZ    C6  890   1.951   2.775   3.890 -0.1345 -0.2751 -0.0602
    21BTZ    C7  891   1.845   2.720   3.958 -0.1879 -0.1187 -0.0153
    21BTZ    C8  892   2.070   2.808   3.963 -0.1336 -0.2530 -0.0716
    21BTZ    C9  893   1.851   2.695   4.100 -0.2427  0.0659  0.0204
    21BTZ   C10  894   1.963   2.725   4.174 -0.2440  0.0939  0.0111
    21BTZ   C11  895   2.076   2.783   4.107 -0.1893 -0.0654 -0.0354
    21BTZ    N2  896   2.179   2.862   3.908 -0.0845 -0.3943 -0.1140
    21BTZ    N3  897   2.190   2.816   4.168 -0.1849 -0.0560 -0.0488
    21BTZ    S3  898   2.297   2.883   4.041 -0.1078 -0.2915 -0.1096
    31IDT   C12  899   1.956   2.698   4.318 -0.0809  0.1886 -0.1149
    31IDT   C13  900   2.048   2.651   4.409 -0.0583  0.0215 -0.2230
    31IDT   C14  901   1.991   2.630   4.539  0.0024 -0.0991 -0.2161
    31IDT   C15  902   1.857   2.660   4.548  0.0263 -0.0250 -0.1028
    31IDT    S4  903   1.791   2.719   4.391 -0.0265  0.2054  0.0048
    4IDB    C16  904   1.811   2.641   4.688 -0.3102 -0.1566  0.0975
    4IDB    C17  905   1.923   2.601   4.767 -0.1746  0.2319  0.1106
    51IDQ   C18  906   2.045   2.576   4.673 -0.2383  0.4805 -0.1172
    4IDB    C19  907   1.910   2.582   4.904 -0.1196  0.2079  0.1127
    51IDQ   C20  908   2.174   2.651   4.730  0.5056  0.4324  0.0200
    51IDQ   C21  909   2.083   2.422   4.653  0.4583  0.2952 -0.4561
    51IDQ   C22  910   1.985   2.309   4.678 -0.3752  0.1901  0.0845
    51IDQ   C23  911   2.235   2.765   4.652  0.1804  0.2439 -1.0100
    51IDQ   C24  912   1.874   2.278   4.582 -0.6647 -0.4651 -0.5549
    51IDQ   C25  913   1.776   2.182   4.646 -0.0774  0.1999 -0.3172
    51IDQ   C26  914   1.701   2.222   4.772  0.6649 -0.0326  0.2730
    51IDQ   C27  915   1.640   2.096   4.837 -0.1259  0.8871  1.1361
    51IDQ   C28  916   1.523   2.106   4.937 -0.8212 -0.2718  0.2682
    51IDQ   C29  917   1.569   2.195   5.055 -0.2365  0.5034 -0.5232
    51IDQ   C30  918   2.344   2.730   4.551  0.2492 -0.5244 -0.0319
    51IDQ   C31  919   2.455   2.638   4.609  0.0056 -0.1419 -0.0927
    51IDQ   C32  920   2.568   2.609   4.517 -0.0021 -0.1600 -0.7788
    51IDQ   C33  921   2.660   2.494   4.553 -0.0906  0.3176 -0.4648
    51IDQ   C34  922   2.790   2.499   4.474  0.4360  0.3165  0.2773
    51IDQ   C35  923   2.888   2.388   4.484  0.7845  0.0393 -0.4700
    4IDB    C36  924   1.685   2.664   4.746 -0.3921 -0.5738  0.0862
    4IDB    C37  925   1.674   2.644   4.886 -0.3342 -0.5919  0.0885
    11RH    C38  926   1.741   2.926   3.232  0.1498  0.0041 -0.5800
    4IDB    C39  927   1.784   2.604   4.962 -0.2015 -0.2093  0.1013
    62IDT   C40  928   1.748   2.603   5.100  0.2298  0.3314 -0.0344
    72IDQ   C41  929   1.553   2.666   4.981  0.4322  0.4483  1.3156
    62IDT   C42  930   1.614   2.631   5.115  0.2852  0.6452 -0.1156
    72IDQ   C43  931   1.435   2.559   4.937  0.5943 -0.2184 -0.0058
    72IDQ   C44  932   1.498   2.814   4.995 -0.2536  0.2077 -0.0132
    62IDT    S5  933   1.825   2.554   5.255 -0.0244 -0.0641 -0.0294
    62IDT   C45  934   1.664   2.576   5.336 -0.0431  0.2302 -0.1430
    62IDT   C46  935   1.566   2.616   5.249  0.1311  0.5885 -0.1770
    82BTZ   C47  936   1.643   2.534   5.481  0.0650 -0.0761 -0.0235
    82BTZ   C48  937   1.515   2.495   5.510  0.0528 -0.0537 -0.0467
    82BTZ   C49  938   1.479   2.444   5.640  0.0241 -0.0641 -0.0588
    82BTZ   C50  939   1.571   2.432   5.741  0.0076 -0.0971 -0.0474
    82BTZ   C51  940   1.743   2.523   5.583  0.0485 -0.1108 -0.0108
    82BTZ   C52  941   1.706   2.471   5.715  0.0193 -0.1215 -0.0231
    92RH    C53  942   1.545   2.369   5.867  0.0427  0.0220  0.0684
    82BTZ    N4  943   1.871   2.558   5.566  0.0581 -0.1351  0.0117
    82BTZ    N5  944   1.805   2.464   5.805  0.0054 -0.1541 -0.0104
    82BTZ    S6  945   1.952   2.525   5.722  0.0295 -0.1732  0.0185
    92RH    C54  946   1.444   2.301   5.923  0.0427  0.1187  0.1845
    92RH     S7  947   1.286   2.253   5.845  0.0059  0.0618  0.2936
    92RH    C55  948   1.447   2.253   6.064  0.0738  0.2926  0.2438
    92RH     O2  949   1.541   2.270   6.144  0.1030  0.3681  0.1944
    92RH     N6  950   1.329   2.185   6.097  0.0664  0.3650  0.3665
    92RH    C56  951   1.231   2.172   6.001  0.0332  0.2705  0.4126
    92RH    C57  952   1.305   2.138   6.236 -0.1648  0.3610  0.0376
    92RH    C58  953   1.275   2.250   6.342  0.5968  0.1669 -0.2041
    92RH     S8  954   1.081   2.096   6.016  0.0177  0.3269  0.5543
    72IDQ   C59  955   1.466   2.909   4.869  0.4157  0.7767  0.4602
    72IDQ   C60  956   1.403   2.842   4.746  0.0126 -0.4767  0.8853
    72IDQ   C61  957   1.386   2.933   4.621  0.0244 -0.4609  0.2660
    72IDQ   C62  958   1.503   2.964   4.531 -0.8060  0.2557 -0.5847
    72IDQ   C63  959   1.471   3.070   4.429 -0.2740 -0.6442 -0.1766
    72IDQ   C64  960   1.581   3.071   4.326  0.1055  0.5135 -0.5094
    72IDQ   C65  961   1.578   3.182   4.229  0.5444  0.3511  0.2639
    72IDQ   C66  962   1.301   2.568   5.010 -0.1984 -0.4883 -0.0332
    72IDQ   C67  963   1.192   2.477   4.942 -0.0107  0.1005 -0.0237
    72IDQ   C68  964   1.154   2.487   4.793 -0.7406  1.0879  0.1731
    72IDQ   C69  965   1.119   2.626   4.751  0.1731  0.3362 -0.2629
    72IDQ   C70  966   1.099   2.646   4.602  0.4582 -0.2255 -0.2843
    72IDQ   C71  967   0.980   2.575   4.535  0.1506  0.1163 -0.1077
    72IDQ   C72  968   0.898   2.663   4.440 -0.9476  0.1172  0.1355
    11RH     C1  969   3.628   3.992   4.285  0.3075  0.1152 -0.1072
    11RH     C2  970   3.602   3.907   4.166  0.1811  0.0567 -0.0386
    11RH     N1  971   3.630   3.915   4.404  0.2351  0.2009 -0.0495
    11RH     S1  972   3.582   3.732   4.218 -0.0248  0.1184  0.0972
    11RH     C3  973   3.610   3.779   4.394  0.0661  0.2185  0.0571
    11RH     C4  974   3.635   3.983   4.540 -0.6625  0.1075 -0.2080
    11RH     S2  975   3.608   3.666   4.519 -0.0499  0.3146  0.1431
    11RH     O1  976   3.645   4.115   4.284  0.4586  0.0932 -0.2031
    11RH     C5  977   3.594   3.955   4.042  0.2170 -0.0280 -0.0736
    21BTZ    C6  978   3.592   3.895   3.912  0.4553  0.2053 -0.1338
    21BTZ    C7  979   3.606   3.760   3.895  0.3617  0.1845 -0.0516
    21BTZ    C8  980   3.557   3.976   3.798  0.2435  0.1235 -0.1277
    21BTZ    C9  981   3.588   3.698   3.766  0.0574  0.0829  0.0399
    21BTZ   C10  982   3.555   3.770   3.655 -0.1528  0.0022  0.0492
    21BTZ   C11  983   3.538   3.912   3.668 -0.0657  0.0201 -0.0346
    21BTZ    N2  984   3.540   4.108   3.802  0.3077  0.1341 -0.2025
    21BTZ    N3  985   3.506   3.993   3.567 -0.2502 -0.0522 -0.0346
    21BTZ    S3  986   3.498   4.158   3.636 -0.0316  0.0100 -0.1563
    31IDT   C12  987   3.555   3.700   3.525 -0.1049 -0.2093  0.2738
    31IDT   C13  988   3.463   3.716   3.424 -0.2428 -0.2786  0.3871
    31IDT   C14  989   3.486   3.627   3.315 -0.3160 -0.2675  0.3632
    31IDT   C15  990   3.594   3.542   3.332 -0.2346 -0.1899  0.2316
    31IDT    S4  991   3.676   3.570   3.489 -0.0572 -0.1243  0.1269
    4IDB    C16  992   3.621   3.469   3.207 -0.2996 -0.2204 -0.0601
    4IDB    C17  993   3.518   3.500   3.114 -0.0254 -0.0359 -0.3051
    51IDQ   C18  994   3.425   3.608   3.176  0.4813  0.2350 -0.3033
    4IDB    C19  995   3.523   3.454   2.983  0.2180 -0.0150 -0.3040
    51IDQ   C20  996   3.437   3.737   3.084  0.0555  0.3578  0.0243
    51IDQ   C21  997   3.272   3.583   3.195 -0.1875  0.6950  0.0335
    51IDQ   C22  998   3.216   3.443   3.162  0.5749 -0.5108 -0.5590
    51IDQ   C23  999   3.504   3.866   3.117  0.0090 -0.0015 -0.1829
    51IDQ   C24 1000   3.059   3.444   3.181 -1.0233 -0.0364  0.3174
    51IDQ   C25 1001   2.987   3.492   3.304 -0.0181  0.0149 -0.2682
    51IDQ   C26 1002   3.022   3.427   3.436 -0.8218  0.2053 -0.7765
    51IDQ   C27 1003   2.968   3.287   3.472  0.0118  0.1938  0.0302
    51IDQ   C28 1004   2.837   3.229   3.414  0.1891  0.4039  0.0051
    51IDQ   C29 1005   2.822   3.086   3.459 -0.3114  0.0868 -0.1095
    51IDQ   C30 1006   3.419   3.962   3.199 -0.4698  0.6539 -0.2981
    51IDQ   C31 1007   3.480   4.097   3.206  0.1135 -0.4130  0.0377
    51IDQ   C32 1008   3.386   4.199   3.268  0.6592  0.4749  0.0626
    51IDQ   C33 1009   3.433   4.340   3.291  0.1953 -0.2463  0.5248
    51IDQ   C34 1010   3.576   4.362   3.337  0.2702 -0.3880  0.0107
    51IDQ   C35 1011   3.643   4.495   3.299 -0.0237  0.3421 -0.3656
    4IDB    C36 1012   3.731   3.390   3.169 -0.3321 -0.3859  0.1891
    4IDB    C37 1013   3.735   3.343   3.035 -0.0810 -0.3617  0.1864
    11RH    C38 1014   3.774   3.996   4.601 -0.0778  0.2723 -0.3111
    4IDB    C39 1015   3.633   3.375   2.945  0.1855 -0.1806 -0.0549
    62IDT   C40 1016   3.663   3.316   2.819 -0.0636 -0.0862  0.0315
    72IDQ   C41 1017   3.847   3.264   2.964 -0.0451 -0.2319  0.0621
    62IDT   C42 1018   3.788   3.259   2.821 -0.3743 -0.7906  0.0832
    72IDQ   C43 1019   3.868   3.117   3.015 -0.4552  0.2634  0.2900
    72IDQ   C44 1020   3.987   3.350   2.961  0.3418 -0.3109 -0.1723
    62IDT    S5 1021   3.582   3.296   2.660 -0.0643  0.4790 -0.0430
    62IDT   C45 1022   3.730   3.207   2.601 -0.5061 -0.3051  0.0019
    62IDT   C46 1023   3.827   3.197   2.698 -0.6248 -0.9152  0.0667
    82BTZ   C47 1024   3.730   3.138   2.476 -0.0630 -0.1868 -0.0802
    82BTZ   C48 1025   3.613   3.078   2.438 -0.0908 -0.1251 -0.0936
    82BTZ   C49 1026   3.598   3.014   2.310 -0.1632  0.0247 -0.1602
    82BTZ   C50 1027   3.701   3.011   2.219 -0.2076  0.1125 -0.2133
    82BTZ   C51 1028   3.840   3.138   2.384 -0.1075 -0.0992 -0.1341
    82BTZ   C52 1029   3.825   3.073   2.253 -0.1810  0.0530 -0.2018
    92RH    C53 1030   3.686   2.947   2.092  0.1529 -0.4522  0.2983
    82BTZ    N4 1031   3.959   3.194   2.409 -0.0864 -0.1469 -0.1273
    82BTZ    N5 1032   3.932   3.077   2.173 -0.2190  0.1276 -0.2494
    82BTZ    S6 1033   4.059   3.165   2.263 -0.1614  0.0039 -0.2089
    92RH    C54 1034   3.583   2.887   2.031  0.1397 -0.2365  0.1050
    92RH     S7 1035   3.411   2.875   2.093  0.1069 -0.2834  0.0041
    92RH    C55 1036   3.594   2.819   1.900  0.1503  0.0843 -0.0620
    92RH     O2 1037   3.698   2.810   1.832  0.1720  0.1897 -0.0435
    92RH     N6 1038   3.471   2.764   1.859  0.1323  0.2620 -0.2500
    92RH    C56 1039   3.362   2.780   1.942  0.1086  0.1229 -0.2539
    92RH    C57 1040   3.450   2.698   1.724 -0.3443 -0.2056  0.3705
    92RH    C58 1041   3.484   2.552   1.707 -0.0871 -0.3288 -0.1516
    92RH     S8 1042   3.204   2.725   1.917  0.0839  0.2822 -0.4565
    72IDQ   C59 1043   4.006   3.473   2.872 -0.5271  0.1440  0.6105
    72IDQ   C60 1044   3.950   3.608   2.902  0.0181 -0.7376  0.2494
    72IDQ   C61 1045   3.984   3.666   3.038 -0.4695  0.2508 -0.1437
    72IDQ   C62 1046   3.912   3.800   3.066  0.5343  0.3911  0.3063
    72IDQ   C63 1047   3.923   3.851   3.214 -0.7132 -0.4864  0.5852
    72IDQ   C64 1048   3.869   3.991   3.238  0.1788  0.5399  0.5365
    72IDQ   C65 1049   3.881   4.053   3.376  0.1161  0.0012  0.1625
    72IDQ   C66 1050   3.941   3.101   3.153  0.3838  0.3009  0.1005
    72IDQ   C67 1051   3.979   2.961   3.192 -0.3874  0.3305  0.0179
    72IDQ   C68 1052   4.056   2.948   3.326  0.2243  0.2350  0.3938
    72IDQ   C69 1053   4.148   2.829   3.337 -0.1317 -0.1429  0.2750
    72IDQ   C70 1054   4.255   2.822   3.446  0.1119  0.1232  0.6320
    72IDQ   C71 1055   4.325   2.686   3.445  0.1004  0.8642 -0.5072
    72IDQ   C72 1056   4.436   2.661   3.555 -0.7572  0.0980  0.1546
    11RH     C1 1057   1.233   0.276   1.761 -0.2672 -0.0990 -0.0266
    11RH     C2 1058   1.294   0.274   1.897 -0.0659  0.0422 -0.1131
    11RH     N1 1059   1.172   0.153   1.731 -0.2047 -0.1736  0.1454
    11RH     S1 1060   1.265   0.111   1.975  0.1925  0.0678  0.0372
    11RH     C3 1061   1.175   0.053   1.825  0.0221 -0.1093  0.2070
    11RH     C4 1062   1.127   0.129   1.589  0.2301  0.4697  0.1219
    11RH     S2 1063   1.109  -0.102   1.814  0.1405 -0.1748  0.4055
    11RH     O1 1064   1.236   0.372   1.682 -0.4672 -0.1483 -0.0934
    11RH     C5 1065   1.358   0.379   1.950 -0.0782  0.1341 -0.2765
    21BTZ    C6 1066   1.433   0.402   2.069  0.0014  0.0895 -0.1853
    21BTZ    C7 1067   1.451   0.307   2.167 -0.2466  0.1443 -0.0849
    21BTZ    C8 1068   1.486   0.534   2.091  0.0917  0.0546 -0.1965
    21BTZ    C9 1069   1.521   0.336   2.289 -0.4171  0.1674  0.0089
    21BTZ   C10 1070   1.574   0.460   2.314 -0.3394  0.1357  0.0021
    21BTZ   C11 1071   1.558   0.563   2.216 -0.0816  0.0781 -0.1013
    21BTZ    N2 1072   1.476   0.634   2.004  0.3289  0.0006 -0.2900
    21BTZ    N3 1073   1.605   0.687   2.229  0.0163  0.0430 -0.1181
    21BTZ    S3 1074   1.559   0.774   2.079  0.3409 -0.0229 -0.2594
    31IDT   C12 1075   1.648   0.478   2.436  0.3344 -0.1232 -0.5604
    31IDT   C13 1076   1.659   0.596   2.505  0.1340 -0.0601 -0.6365
    31IDT   C14 1077   1.735   0.584   2.625 -0.1947  0.0547 -0.4115
    31IDT   C15 1078   1.783   0.457   2.648 -0.2470  0.0798 -0.1634
    31IDT    S4 1079   1.735   0.342   2.519  0.1194 -0.0412 -0.1955
    4IDB    C16 1080   1.862   0.458   2.767  0.4074  0.3286 -0.4986
    4IDB    C17 1081   1.865   0.589   2.825  0.6777  0.3528 -0.5660
    51IDQ   C18 1082   1.771   0.677   2.744  0.2942  0.3468  0.1992
    4IDB    C19 1083   1.941   0.615   2.939  0.2229  0.0949 -0.1987
    51IDQ   C20 1084   1.646   0.712   2.839 -0.2380  0.3276  0.2945
    51IDQ   C21 1085   1.828   0.818   2.678 -0.2959  0.0185 -0.2496
    51IDQ   C22 1086   1.974   0.861   2.705 -0.0969  0.0690  0.5148
    51IDQ   C23 1087   1.504   0.661   2.813 -0.1884 -0.1048 -0.7726
    51IDQ   C24 1088   2.079   0.805   2.612 -0.4499  0.8175  0.6421
    51IDQ   C25 1089   2.062   0.822   2.462  0.3515  0.3968  0.1585
    51IDQ   C26 1090   2.045   0.961   2.395  0.3263 -0.0125 -0.7014
    51IDQ   C27 1091   2.020   0.961   2.246  0.2766 -0.1683  0.2611
    51IDQ   C28 1092   1.902   0.881   2.188 -0.0311 -0.2711 -0.6446
    51IDQ   C29 1093   1.885   0.901   2.048  0.0806 -0.2052  0.3182
    51IDQ   C30 1094   1.409   0.648   2.939  0.1753  0.0854 -0.2943
    51IDQ   C31 1095   1.442   0.557   3.062 -0.0538 -0.7031 -0.7163
    51IDQ   C32 1096   1.490   0.413   3.027  0.1348  0.2095 -0.3326
    51IDQ   C33 1097   1.569   0.341   3.131 -0.0352  0.0432 -0.2971
    51IDQ   C34 1098   1.687   0.419   3.198  0.2489  0.5565  0.2577
    51IDQ   C35 1099   1.773   0.345   3.303  0.4962  0.0295  0.1593
    4IDB    C36 1100   1.935   0.352   2.823 -0.3240  0.0444 -0.0604
    4IDB    C37 1101   2.011   0.380   2.940 -0.7807 -0.2167  0.3110
    11RH    C38 1102   0.981   0.158   1.557  0.0015 -0.2610 -0.1151
    4IDB    C39 1103   2.014   0.509   2.995 -0.5085 -0.1894  0.2395
    62IDT   C40 1104   2.102   0.513   3.109  0.0517  0.1998 -0.1041
    72IDQ   C41 1105   2.103   0.287   3.023 -0.9126  0.0514  0.2701
    62IDT   C42 1106   2.154   0.387   3.130 -0.4840 -0.0244 -0.0865
    72IDQ   C43 1107   2.226   0.227   2.941 -0.5291  0.2362 -0.1143
    72IDQ   C44 1108   2.029   0.170   3.095 -0.0071  0.6691  0.6131
    62IDT    S5 1109   2.151   0.629   3.237  0.4779 -0.0125 -0.0750
    62IDT   C45 1110   2.245   0.494   3.316 -0.1200 -0.4127 -0.0390
    62IDT   C46 1111   2.235   0.376   3.247 -0.5820 -0.3710 -0.0497
    82BTZ   C47 1112   2.347   0.529   3.413  0.0287  0.1236 -0.0860
    82BTZ   C48 1113   2.383   0.660   3.428  0.2347  0.0846 -0.2202
    82BTZ   C49 1114   2.478   0.702   3.528  0.3733  0.0257 -0.3277
    82BTZ   C50 1115   2.538   0.612   3.612  0.3058  0.0059 -0.3006
    82BTZ   C51 1116   2.407   0.431   3.499 -0.0495  0.1050 -0.0526
    82BTZ   C52 1117   2.504   0.473   3.600  0.0915  0.0451 -0.1618
    92RH    C53 1118   2.645   0.643   3.707  0.0263 -0.1069  0.1225
    82BTZ    N4 1119   2.380   0.300   3.493 -0.2468  0.1390  0.0742
    82BTZ    N5 1120   2.556   0.376   3.676  0.0075  0.0310 -0.1228
    82BTZ    S6 1121   2.481   0.224   3.620 -0.2610  0.0949  0.0591
    92RH    C54 1122   2.715   0.753   3.735 -0.0024 -0.0736  0.0635
    92RH     S7 1123   2.708   0.914   3.646 -0.0210 -0.1326 -0.0412
    92RH    C55 1124   2.811   0.763   3.848 -0.0242  0.0195  0.0747
    92RH     O2 1125   2.839   0.671   3.927 -0.0187  0.0766  0.1386
    92RH     N6 1126   2.870   0.891   3.854 -0.0529  0.0366  0.0025
    92RH    C56 1127   2.833   0.985   3.761 -0.0566 -0.0314 -0.0652
    92RH    C57 1128   2.976   0.910   3.952 -0.1547  0.2029  0.0370
    92RH    C58 1129   3.122   0.866   3.909  0.9896  0.6531 -0.1270
    92RH     S8 1130   2.888   1.144   3.747 -0.0882 -0.0285 -0.1580
    72IDQ   C59 1131   1.987   0.048   3.012  0.0674 -0.1687  0.5775
    72IDQ   C60 1132   1.926  -0.069   3.079 -0.1817  0.2960 -0.3213
    72IDQ   C61 1133   1.806  -0.054   3.173  0.3226  0.4178 -0.3741
    72IDQ   C62 1134   1.748  -0.178   3.236 -0.0436  0.5825 -0.1056
    72IDQ   C63 1135   1.805  -0.217   3.376 -0.0970 -0.5935 -0.8586
    72IDQ   C64 1136   1.765  -0.360   3.420 -0.5121  0.2954  0.2278
    72IDQ   C65 1137   1.812  -0.398   3.563  0.3498  0.3831  0.0638
    72IDQ   C66 1138   2.283   0.292   2.807 -0.3483 -0.0025  0.3511
    72IDQ   C67 1139   2.365   0.416   2.838 -0.0412 -0.2201  0.4363
    72IDQ   C68 1140   2.441   0.479   2.721  0.0689 -0.7010  0.2835
    72IDQ   C69 1141   2.528   0.597   2.767 -0.0333  0.4798  0.4380
    72IDQ   C70 1142   2.614   0.656   2.658 -0.1048 -0.0352 -0.3597
    72IDQ   C71 1143   2.730   0.737   2.710 -0.3944 -0.1498 -0.1917
    72IDQ   C72 1144   2.811   0.787   2.594  0.1253 -0.6479 -0.7105
    11RH     C1 1145   1.408   6.348   0.737  0.0229 -0.1506 -0.0239
    11RH     C2 1146   1.546   6.389   0.700 -0.0454  0.0204 -0.0909
    11RH     N1 1147   1.355   6.430   0.839  0.0019 -0.2695  0.0612
    11RH     S1 1148   1.597   6.533   0.803 -0.1329  0.0135 -0.0376
    11RH     C3 1149   1.433   6.532   0.889 -0.0749 -0.2148  0.0706
    11RH     C4 1150   1.214   6.411   0.892  0.0390 -0.0733  1.1071
    11RH     S2 1151   1.394   6.643   1.009 -0.1149 -0.3300  0.1641
    11RH     O1 1152   1.345   6.254   0.686  0.0907 -0.1880 -0.0389
    11RH     C5 1153   1.618   6.328   0.607 -0.0414  0.1559 -0.1767
    21BTZ    C6 1154   1.749   6.355   0.544  0.1574  0.0823 -0.0775
    21BTZ    C7 1155   1.834   6.458   0.576  0.1099  0.1732 -0.2389
    21BTZ    C8 1156   1.793   6.256   0.450  0.1585  0.0203 -0.0118
    21BTZ    C9 1157   1.966   6.468   0.518  0.0613  0.2075 -0.3431
    21BTZ   C10 1158   2.012   6.376   0.428  0.0604  0.1507 -0.2859
    21BTZ   C11 1159   1.927   6.267   0.391  0.1091  0.0551 -0.1178
    21BTZ    N2 1160   1.719   6.152   0.411  0.2022 -0.0695  0.1432
    21BTZ    N3 1161   1.961   6.171   0.304  0.1132 -0.0068 -0.0479
    21BTZ    S3 1162   1.820   6.061   0.294  0.1818 -0.1143  0.1607
    31IDT   C12 1163   2.154   6.388   0.386  0.0535 -0.2324  0.0120
    31IDT   C13 1164   2.262   6.431   0.457  0.0482 -0.4715  0.1677
    31IDT   C14 1165   2.385   6.420   0.384  0.0616 -0.2810  0.1594
    31IDT   C15 1166   2.370   6.368   0.257  0.0771  0.1037 -0.0023
    31IDT    S4 1167   2.199   6.329   0.220  0.0762  0.2558 -0.1580
    4IDB    C16 1168   2.504   6.359   0.196  0.0732  0.2096  0.3860
    4IDB    C17 1169   2.606   6.397   0.288  0.3338 -0.0041  0.1910
    51IDQ   C18 1170   2.535   6.449   0.411 -0.1623 -0.0911 -0.1737
    4IDB    C19 1171   2.741   6.388   0.255  0.2432  0.0091 -0.1843
    51IDQ   C20 1172   2.597   6.376   0.535 -0.0866 -0.1497 -0.0111
    51IDQ   C21 1173   2.559   6.604   0.431  0.3422  0.3094 -0.1813
    51IDQ   C22 1174   2.634   6.690   0.331 -0.2119  0.1834 -0.0799
    51IDQ   C23 1175   2.519   6.269   0.614 -0.1642 -0.0315  0.2518
    51IDQ   C24 1176   2.618   6.838   0.363  0.2259 -0.2829 -0.2194
    51IDQ   C25 1177   2.688   6.928   0.270  0.1242 -0.6507 -0.2144
    51IDQ   C26 1178   2.682   7.071   0.311  0.1071 -0.0330 -0.3718
    51IDQ   C27 1179   2.753   7.162   0.216 -0.1934  0.4583  0.6409
    51IDQ   C28 1180   2.746   7.316   0.238 -0.2666 -0.0310 -0.0584
    51IDQ   C29 1181   2.802   7.393   0.124 -0.1281  0.1430  0.0271
    51IDQ   C30 1182   2.473   6.138   0.554 -0.4410  0.3220  0.3117
    51IDQ   C31 1183   2.571   6.047   0.474  0.5557 -0.0872  0.3746
    51IDQ   C32 1184   2.506   5.915   0.428 -0.6499 -0.5830 -0.4307
    51IDQ   C33 1185   2.456   5.827   0.547  0.8171 -0.3923  0.1787
    51IDQ   C34 1186   2.373   5.708   0.520 -0.6253  0.4940  0.8529
    51IDQ   C35 1187   2.315   5.670   0.651 -0.1364 -0.4566 -0.3155
    4IDB    C36 1188   2.537   6.311   0.068 -0.2816  0.4389  0.2053
    4IDB    C37 1189   2.675   6.302   0.035 -0.3693  0.4491 -0.1784
    11RH    C38 1190   1.197   6.301   0.992  0.3102 -0.3595  0.7622
    4IDB    C39 1191   2.773   6.339   0.127 -0.1117  0.2386 -0.3650
    62IDT   C40 1192   2.903   6.330   0.070 -0.1214  0.0592  0.0581
    72IDQ   C41 1193   2.748   6.245  -0.083  0.3283 -0.1867  0.7582
    62IDT   C42 1194   2.889   6.281  -0.058 -0.2779 -0.0987  0.1339
    72IDQ   C43 1195   2.697   6.318  -0.213  0.4061  0.1775  0.3981
    72IDQ   C44 1196   2.735   6.085  -0.095  0.0215 -0.9543 -0.4571
    62IDT    S5 1197   3.074   6.367   0.110 -0.0437 -0.1100 -0.1154
    62IDT   C45 1198   3.121   6.311  -0.057 -0.2361 -0.3995 -0.0739
    62IDT   C46 1199   3.013   6.270  -0.130 -0.3429 -0.3582  0.0595
    82BTZ   C47 1200   3.264   6.315  -0.098 -0.1959 -0.0824 -0.0798
    82BTZ   C48 1201   3.316   6.208  -0.166 -0.1756 -0.0532 -0.1106
    82BTZ   C49 1202   3.454   6.205  -0.208 -0.1527 -0.0522 -0.0356
    82BTZ   C50 1203   3.540   6.308  -0.182 -0.1502 -0.0807  0.0699
    82BTZ   C51 1204   3.350   6.426  -0.068 -0.1941 -0.1128  0.0297
    82BTZ   C52 1205   3.491   6.423  -0.111 -0.1708 -0.1118  0.1060
    92RH    C53 1206   3.678   6.327  -0.242 -0.2455  0.3082 -0.3637
    82BTZ    N4 1207   3.311   6.536  -0.003 -0.2124 -0.1428  0.0693
    82BTZ    N5 1208   3.564   6.530  -0.080 -0.1705 -0.1410  0.2067
    82BTZ    S6 1209   3.455   6.642   0.007 -0.2006 -0.1717  0.2085
    92RH    C54 1210   3.755   6.254  -0.323 -0.1555  0.2052 -0.1878
    92RH     S7 1211   3.714   6.092  -0.399 -0.0559  0.0903  0.0021
    92RH    C55 1212   3.891   6.296  -0.366 -0.1219  0.1675 -0.1181
    92RH     O2 1213   3.948   6.401  -0.332 -0.1720  0.2254 -0.2123
    92RH     N6 1214   3.950   6.201  -0.452 -0.0238  0.0549  0.0728
    92RH    C56 1215   3.878   6.088  -0.483  0.0252 -0.0018  0.1644
    92RH    C57 1216   4.095   6.208  -0.499  0.4706 -0.5926 -0.6374
    92RH    C58 1217   4.197   6.154  -0.403 -0.0806 -0.1400  0.3380
    92RH     S8 1218   3.925   5.960  -0.583  0.1415 -0.1354  0.3899
    72IDQ   C59 1219   2.614   5.997  -0.047 -0.8938 -0.4660  0.3834
    72IDQ   C60 1220   2.494   6.016  -0.133  0.5683 -0.4040  0.5081
    72IDQ   C61 1221   2.366   5.945  -0.091  0.5171 -0.4059 -0.6664
    72IDQ   C62 1222   2.289   5.994   0.031 -0.5952 -0.1119 -0.8541
    72IDQ   C63 1223   2.142   5.960   0.042  0.1828  0.0832 -0.3370
    72IDQ   C64 1224   2.101   5.811   0.054  0.3308 -0.4931 -0.1716
    72IDQ   C65 1225   1.949   5.799   0.060  0.1159  0.1495 -0.1097
    72IDQ   C66 1226   2.747   6.269  -0.352  0.6201 -0.3020 -0.3759
    72IDQ   C67 1227   2.652   6.315  -0.458 -0.8635 -0.3938  0.5871
    72IDQ   C68 1228   2.673   6.257  -0.594  0.1430 -0.5844 -0.3757
    72IDQ   C69 1229   2.551   6.275  -0.683 -0.0774  0.0975 -0.5646
    72IDQ   C70 1230   2.521   6.419  -0.734  0.2349  0.7796 -0.1179
    72IDQ   C71 1231   2.393   6.428  -0.822 -0.6325  0.4670 -0.0078
    72IDQ   C72 1232   2.373   6.569  -0.881 -0.1407  0.6371 -0.0850
    11RH     C1 1233   3.231   4.347   5.304  0.0351  0.1341  0.1183
    11RH     C2 1234   3.303   4.467   5.353 -0.0149  0.1428  0.1699
    11RH     N1 1235   3.126   4.310   5.391  0.0020  0.0981  0.0630
    11RH     S1 1236   3.228   4.524   5.511 -0.1022  0.1033  0.1423
    11RH     C3 1237   3.105   4.386   5.503 -0.0684  0.0772  0.0639
    11RH     C4 1238   3.041   4.190   5.364 -0.7726 -0.2954  0.4592
    11RH     S2 1239   2.987   4.365   5.622 -0.1200  0.0339  0.0046
    11RH     O1 1240   3.258   4.284   5.200  0.0983  0.1550  0.1218
    11RH     C5 1241   3.407   4.522   5.290  0.0031  0.1750  0.2271
    21BTZ    C6 1242   3.478   4.647   5.304  0.1598 -0.1991  0.0846
    21BTZ    C7 1243   3.442   4.740   5.397  0.0938 -0.2468  0.1070
    21BTZ    C8 1244   3.583   4.678   5.212  0.0987 -0.0802  0.0547
    21BTZ    C9 1245   3.507   4.868   5.405 -0.0347 -0.1805  0.1013
    21BTZ   C10 1246   3.608   4.903   5.319 -0.0969 -0.0667  0.0733
    21BTZ   C11 1247   3.650   4.808   5.220 -0.0319 -0.0129  0.0489
    21BTZ    N2 1248   3.627   4.595   5.117  0.1531 -0.0243  0.0310
    21BTZ    N3 1249   3.747   4.830   5.131 -0.0825  0.0972  0.0205
    21BTZ    S3 1250   3.758   4.682   5.031  0.0373  0.1198 -0.0004
    31IDT   C12 1251   3.665   5.037   5.330  0.0280 -0.2388  0.1806
    31IDT   C13 1252   3.786   5.087   5.290  0.2056 -0.4046  0.5009
    31IDT   C14 1253   3.801   5.226   5.319  0.3653 -0.4520  0.6447
    31IDT   C15 1254   3.692   5.283   5.382  0.3105 -0.3229  0.4356
    31IDT    S4 1255   3.561   5.163   5.409  0.0502 -0.1296  0.0365
    4IDB    C16 1256   3.722   5.418   5.426  0.2646  0.1349 -0.0149
    4IDB    C17 1257   3.852   5.453   5.378  0.2095  0.3082 -0.0426
    51IDQ   C18 1258   3.900   5.341   5.284 -0.2416  0.2518  0.1679
    4IDB    C19 1259   3.910   5.575   5.409  0.1005  0.3384  0.0431
    51IDQ   C20 1260   3.899   5.399   5.136 -0.0260 -0.2427 -0.4116
    51IDQ   C21 1261   4.048   5.288   5.319  0.3678 -0.1612  0.1818
    51IDQ   C22 1262   4.168   5.382   5.301  0.4372 -0.3988  0.6207
    51IDQ   C23 1263   3.806   5.346   5.025  0.1007  0.8745 -0.3634
    51IDQ   C24 1264   4.313   5.337   5.331 -0.3048 -0.4157 -0.5718
    51IDQ   C25 1265   4.368   5.216   5.263 -0.0713  0.0064  0.2843
    51IDQ   C26 1266   4.507   5.192   5.315 -0.2866  0.2843  0.0925
    51IDQ   C27 1267   4.584   5.088   5.237 -0.1176  0.6175  0.6734
    51IDQ   C28 1268   4.731   5.074   5.276 -0.2202  0.2774  0.2443
    51IDQ   C29 1269   4.813   4.985   5.181 -0.0947 -0.0222 -0.2798
    51IDQ   C30 1270   3.826   5.208   4.976 -0.0122  0.1615  0.4183
    51IDQ   C31 1271   3.719   5.166   4.879 -0.6847  0.0685  0.0366
    51IDQ   C32 1272   3.745   5.022   4.819  0.0162 -0.4950  0.5884
    51IDQ   C33 1273   3.617   4.972   4.751 -0.1853 -0.1302  0.1630
    51IDQ   C34 1274   3.599   4.826   4.719 -0.2579  0.4613 -0.0622
    51IDQ   C35 1275   3.707   4.745   4.646  0.4805 -0.1862 -0.0052
    4IDB    C36 1276   3.649   5.508   5.505  0.2106 -0.0103  0.0994
    4IDB    C37 1277   3.709   5.633   5.536  0.0994  0.0230  0.1857
    11RH    C38 1278   2.901   4.209   5.310  0.1055 -0.7818 -0.3436
    4IDB    C39 1279   3.836   5.665   5.488  0.0466  0.1931  0.1572
    62IDT   C40 1280   3.874   5.787   5.535  0.1050  0.0889  0.0347
    72IDQ   C41 1281   3.649   5.758   5.607  0.1580  0.0038 -0.0648
    62IDT   C42 1282   3.772   5.847   5.607 -0.3406  0.0793 -0.5705
    72IDQ   C43 1283   3.609   5.736   5.755 -0.4024 -0.5976 -0.2215
    72IDQ   C44 1284   3.520   5.821   5.532 -0.3303 -0.3081 -0.1880
    62IDT    S5 1285   4.021   5.890   5.527 -0.0783  0.3811  0.3806
    62IDT   C45 1286   3.933   6.015   5.626 -0.7819  0.4797 -0.3465
    62IDT   C46 1287   3.806   5.976   5.659 -0.8426  0.3002 -0.7867
    82BTZ   C47 1288   4.010   6.127   5.681  0.2395 -0.0004  0.0344
    82BTZ   C48 1289   4.139   6.111   5.723  0.3412  0.1161 -0.2304
    82BTZ   C49 1290   4.217   6.222   5.772  0.3521  0.1907 -0.4139
    82BTZ   C50 1291   4.165   6.348   5.779  0.2615  0.1491 -0.3323
    82BTZ   C51 1292   3.951   6.257   5.686  0.1423 -0.0479  0.1298
    82BTZ   C52 1293   4.030   6.370   5.737  0.1532  0.0280 -0.0566
    92RH    C53 1294   4.229   6.455   5.855  0.1047 -0.0861  0.0335
    82BTZ    N4 1295   3.826   6.285   5.648  0.0387 -0.1596  0.3833
    82BTZ    N5 1296   3.969   6.489   5.739  0.0587 -0.0226  0.0467
    82BTZ    S6 1297   3.804   6.461   5.676 -0.0507 -0.1729  0.3943
    92RH    C54 1298   4.338   6.458   5.933  0.1673 -0.0193 -0.0558
    92RH     S7 1299   4.463   6.325   5.953  0.3185  0.0949 -0.2328
    92RH    C55 1300   4.374   6.574   6.018  0.1216 -0.0285 -0.0238
    92RH     O2 1301   4.310   6.680   6.027  0.0223 -0.0976  0.0873
    92RH     N6 1302   4.494   6.550   6.090  0.2064  0.0523 -0.1370
    92RH    C56 1303   4.557   6.429   6.073  0.3142  0.1251 -0.2559
    92RH    C57 1304   4.556   6.663   6.170 -0.1613  1.0254  0.2670
    92RH    C58 1305   4.527   6.647   6.320 -1.2034 -0.4585 -0.3991
    92RH     S8 1306   4.699   6.375   6.146  0.4296  0.2284 -0.4042
    72IDQ   C59 1307   3.515   5.959   5.465  0.1503 -0.1875 -0.0578
    72IDQ   C60 1308   3.372   6.015   5.433 -0.6432  0.2170  0.1772
    72IDQ   C61 1309   3.274   6.026   5.553  0.1556 -0.7586  0.3635
    72IDQ   C62 1310   3.136   6.077   5.508 -0.4993  0.3265 -0.4665
    72IDQ   C63 1311   3.043   6.058   5.623 -0.0086 -0.3192  0.2162
    72IDQ   C64 1312   2.906   6.096   5.594  0.6042 -0.3998 -0.4178
    72IDQ   C65 1313   2.822   6.075   5.722 -0.0595  0.2557  0.1043
    72IDQ   C66 1314   3.521   5.618   5.802  0.0603  0.2905 -0.9982
    72IDQ   C67 1315   3.542   5.601   5.952  0.3112 -0.1630 -0.2456
    72IDQ   C68 1316   3.481   5.708   6.050 -0.1691  0.2567  0.1120
    72IDQ   C69 1317   3.341   5.751   6.021  0.4258 -0.4528 -0.2723
    72IDQ   C70 1318   3.276   5.847   6.124  1.1306 -0.2025 -0.6072
    72IDQ   C71 1319   3.131   5.890   6.088 -0.3784  0.4334  0.1896
    72IDQ   C72 1320   3.072   5.996   6.178  0.3041 -0.2179 -0.4119
    11RH     C1 1321   0.521   0.693   0.106 -0.0232 -0.0800 -0.1593
    11RH     C2 1322   0.642   0.779   0.118 -0.0860  0.0020 -0.1114
    11RH     N1 1323   0.510   0.605   0.215  0.0635 -0.1773 -0.2293
    11RH     S1 1324   0.733   0.738   0.272 -0.0269 -0.0543 -0.1615
    11RH     C3 1325   0.607   0.609   0.313  0.0779 -0.1834 -0.2433
    11RH     C4 1326   0.408   0.495   0.211 -0.2875 -0.5177 -0.7981
    11RH     S2 1327   0.618   0.515   0.453  0.1742 -0.2891 -0.3215
    11RH     O1 1328   0.439   0.697   0.013 -0.0426 -0.0670 -0.1417
    11RH     C5 1329   0.675   0.872   0.027 -0.1723  0.1011 -0.0423
    21BTZ    C6 1330   0.785   0.954   0.010 -0.2202 -0.2525  0.0933
    21BTZ    C7 1331   0.890   0.956   0.098 -0.1623 -0.4238  0.0278
    21BTZ    C8 1332   0.791   1.040  -0.105 -0.2204 -0.1514  0.1682
    21BTZ    C9 1333   1.005   1.041   0.078 -0.1020 -0.5039  0.0328
    21BTZ   C10 1334   1.014   1.124  -0.030 -0.0997 -0.4126  0.1031
    21BTZ   C11 1335   0.907   1.126  -0.125 -0.1591 -0.2329  0.1733
    21BTZ    N2 1336   0.695   1.047  -0.198 -0.2736  0.0164  0.2362
    21BTZ    N3 1337   0.905   1.203  -0.234 -0.1630 -0.1305  0.2452
    21BTZ    S3 1338   0.751   1.168  -0.317 -0.2471  0.0787  0.3110
    31IDT   C12 1339   1.129   1.208  -0.031 -0.4121  0.0694  0.5373
    31IDT   C13 1340   1.223   1.225  -0.129 -0.6922 -0.0059  0.2520
    31IDT   C14 1341   1.333   1.307  -0.087 -0.5833  0.0491 -0.1335
    31IDT   C15 1342   1.323   1.352   0.043 -0.2203  0.1662 -0.1448
    31IDT    S4 1343   1.173   1.295   0.123  0.0139  0.2165  0.3366
    4IDB    C16 1344   1.447   1.421   0.078  0.2117 -0.2118 -0.4610
    4IDB    C17 1345   1.532   1.424  -0.036  0.6349 -0.5668 -0.1591
    51IDQ   C18 1346   1.467   1.347  -0.151  0.4815 -0.0937  0.2142
    4IDB    C19 1347   1.652   1.493  -0.034  0.4662 -0.2734 -0.0383
    51IDQ   C20 1348   1.450   1.442  -0.280 -0.8289  0.1682 -0.4282
    51IDQ   C21 1349   1.544   1.215  -0.194  0.2979 -0.0857  0.4492
    51IDQ   C22 1350   1.678   1.157  -0.125  0.4867  0.0153  0.0463
    51IDQ   C23 1351   1.309   1.505  -0.313  0.0367  0.1386 -0.2330
    51IDQ   C24 1352   1.679   1.113   0.022  0.1929  0.6761 -0.0629
    51IDQ   C25 1353   1.799   1.044   0.094 -0.2324 -0.6488  0.2244
    51IDQ   C26 1354   1.948   1.105   0.072  0.2117  0.0951  0.6032
    51IDQ   C27 1355   1.966   1.253   0.095 -0.2475  0.1991 -0.1829
    51IDQ   C28 1356   2.116   1.269   0.119 -0.0361  0.0810  0.2754
    51IDQ   C29 1357   2.142   1.412   0.176 -0.2609  0.6663  0.8393
    51IDQ   C30 1358   1.269   1.610  -0.206  0.3456 -0.5991  0.4533
    51IDQ   C31 1359   1.366   1.730  -0.173 -0.0499  0.0281 -0.3584
    51IDQ   C32 1360   1.314   1.828  -0.073  0.0935  0.1940 -0.1713
    51IDQ   C33 1361   1.302   1.775   0.066  0.9048 -0.0315 -0.0376
    51IDQ   C34 1362   1.210   1.855   0.164  0.6815 -0.2273  0.2529
    51IDQ   C35 1363   1.252   1.997   0.193  0.1160 -0.2045 -0.6838
    4IDB    C36 1364   1.482   1.489   0.196 -0.3865  0.4430 -0.6448
    4IDB    C37 1365   1.605   1.559   0.196 -0.5508  0.7348 -0.5175
    11RH    C38 1366   0.446   0.367   0.139  0.2449 -0.0420  0.5157
    4IDB    C39 1367   1.687   1.561   0.084 -0.1321  0.3814 -0.2221
    62IDT   C40 1368   1.801   1.648   0.108 -0.1002  0.1312  0.0834
    72IDQ   C41 1369   1.676   1.634   0.312 -0.5710 -0.7551 -0.2701
    62IDT   C42 1370   1.803   1.690   0.240 -0.2480  0.1512  0.0800
    72IDQ   C43 1371   1.715   1.549   0.441 -0.1312  0.7117  0.1131
    72IDQ   C44 1372   1.589   1.761   0.355  0.2559  0.0428  0.3799
    62IDT    S5 1373   1.947   1.701   0.018  0.0962 -0.0551  0.2917
    62IDT   C45 1374   2.007   1.780   0.171 -0.0384 -0.0981  0.3668
    62IDT   C46 1375   1.919   1.765   0.275 -0.2133  0.0216  0.2402
    82BTZ   C47 1376   2.138   1.843   0.179 -0.0950 -0.1041 -0.2590
    82BTZ   C48 1377   2.157   1.929   0.284 -0.0017 -0.1603 -0.2298
    82BTZ   C49 1378   2.281   1.999   0.303  0.0511 -0.2504 -0.2438
    82BTZ   C50 1379   2.387   1.983   0.217  0.0109 -0.2841 -0.2869
    82BTZ   C51 1380   2.245   1.823   0.086 -0.1402 -0.1363 -0.3046
    82BTZ   C52 1381   2.372   1.894   0.105 -0.0864 -0.2279 -0.3188
    92RH    C53 1382   2.510   2.053   0.224 -0.4171  0.0659 -0.0757
    82BTZ    N4 1383   2.239   1.742  -0.020 -0.2306 -0.0879 -0.3361
    82BTZ    N5 1384   2.467   1.871   0.015 -0.1335 -0.2531 -0.3617
    82BTZ    S6 1385   2.397   1.754  -0.101 -0.2509 -0.1589 -0.3863
    92RH    C54 1386   2.563   2.144   0.307 -0.1802  0.0114 -0.1653
    92RH     S7 1387   2.481   2.221   0.452  0.1724  0.0424  0.0205
    92RH    C55 1388   2.701   2.196   0.294 -0.1681 -0.0857 -0.4385
    92RH     O2 1389   2.782   2.164   0.206 -0.3714 -0.1274 -0.6135
    92RH     N6 1390   2.730   2.290   0.395  0.1081 -0.1267 -0.4790
    92RH    C56 1391   2.633   2.319   0.488  0.3189 -0.0744 -0.2716
    92RH    C57 1392   2.855   2.368   0.390  0.1518 -0.2040  0.0456
    92RH    C58 1393   2.875   2.483   0.292 -0.4680  0.3224  0.1189
    92RH     S8 1394   2.642   2.426   0.618  0.6631 -0.1066 -0.2681
    72IDQ   C59 1395   1.619   1.847   0.475 -0.1804 -0.3793 -0.1492
    72IDQ   C60 1396   1.518   1.962   0.488  0.2143 -0.2415 -0.1864
    72IDQ   C61 1397   1.524   2.050   0.618  0.0072 -0.5671  0.2906
    72IDQ   C62 1398   1.660   2.109   0.645 -0.2047  0.5688  0.6622
    72IDQ   C63 1399   1.675   2.204   0.767  0.4949 -0.2673 -0.6401
    72IDQ   C64 1400   1.818   2.247   0.796  0.1943 -0.6702 -0.1422
    72IDQ   C65 1401   1.837   2.361   0.893  0.2446 -0.0020 -0.6025
    72IDQ   C66 1402   1.799   1.422   0.428  0.1388 -0.1248 -0.2578
    72IDQ   C67 1403   1.815   1.357   0.559  0.3229  0.5249 -0.6358
    72IDQ   C68 1404   1.897   1.220   0.571  1.1315 -0.3963  0.6343
    72IDQ   C69 1405   1.839   1.108   0.473  0.0288  0.3567 -1.0963
    72IDQ   C70 1406   1.916   0.983   0.494 -0.1291  0.2187  0.7776
    72IDQ   C71 1407   1.870   0.871   0.407 -0.1441  0.0910  0.6056
    72IDQ   C72 1408   1.939   0.740   0.446 -0.2936 -0.5810 -0.0476
    11RH     C1 1409   4.563   1.491   1.731  0.3264 -0.0743 -0.0557
    11RH     C2 1410   4.624   1.364   1.777  0.2249 -0.1082 -0.0129
    11RH     N1 1411   4.661   1.586   1.696  0.4031 -0.1755 -0.1180
    11RH     S1 1412   4.807   1.379   1.772  0.2370 -0.2708 -0.0576
    11RH     C3 1413   4.794   1.552   1.709  0.3754 -0.2863 -0.1305
    11RH     C4 1414   4.623   1.723   1.657 -0.1041  0.3899 -0.2802
    11RH     S2 1415   4.929   1.646   1.674  0.4514 -0.4200 -0.2003
    11RH     O1 1416   4.441   1.513   1.722  0.3439  0.0290 -0.0399
    11RH     C5 1417   4.554   1.258   1.816  0.1395 -0.0291  0.0486
    21BTZ    C6 1418   4.591   1.135   1.887 -0.1969  0.0509  0.3111
    21BTZ    C7 1419   4.720   1.112   1.926 -0.2154  0.0067  0.3468
    21BTZ    C8 1420   4.492   1.035   1.915 -0.2351  0.0761  0.2668
    21BTZ    C9 1421   4.758   0.992   1.996 -0.2720 -0.0147  0.3407
    21BTZ   C10 1422   4.667   0.894   2.025 -0.3102  0.0080  0.2989
    21BTZ   C11 1423   4.530   0.913   1.986 -0.2928  0.0543  0.2606
    21BTZ    N2 1424   4.363   1.046   1.882 -0.2221  0.1192  0.2294
    21BTZ    N3 1425   4.433   0.825   2.009 -0.3262  0.0799  0.2183
    21BTZ    S3 1426   4.284   0.896   1.940 -0.2839  0.1341  0.1838
    31IDT   C12 1427   4.723   0.775   2.083  0.1803  0.1693  0.1210
    31IDT   C13 1428   4.645   0.696   2.165  0.2052 -0.2051 -0.2124
    31IDT   C14 1429   4.721   0.596   2.233  0.2519 -0.4130 -0.5627
    31IDT   C15 1430   4.856   0.598   2.204  0.2631 -0.1991 -0.4988
    31IDT    S4 1431   4.898   0.728   2.088  0.2149  0.2868  0.0146
    4IDB    C16 1432   4.928   0.500   2.276  0.1111 -0.4620 -0.5182
    4IDB    C17 1433   4.833   0.427   2.353 -0.0023 -0.2410 -0.4460
    51IDQ   C18 1434   4.696   0.500   2.347  0.0705  0.5996  0.6016
    4IDB    C19 1435   4.874   0.323   2.437 -0.1315 -0.0527 -0.1442
    51IDQ   C20 1436   4.590   0.388   2.311  0.1486  0.4019 -0.4666
    51IDQ   C21 1437   4.656   0.585   2.471  1.0022 -0.2907  0.1887
    51IDQ   C22 1438   4.743   0.601   2.593  0.5921  0.0070  0.2829
    51IDQ   C23 1439   4.530   0.366   2.176  0.4066 -0.5088  0.4572
    51IDQ   C24 1440   4.658   0.651   2.711  0.0917 -0.0323 -0.4847
    51IDQ   C25 1441   4.632   0.803   2.709 -0.5399  0.2083  0.4777
    51IDQ   C26 1442   4.749   0.896   2.718 -0.1404 -0.1100  0.5338
    51IDQ   C27 1443   4.703   1.040   2.751 -0.1220  0.2318  0.3220
    51IDQ   C28 1444   4.829   1.120   2.769  0.0459 -0.6563 -0.1123
    51IDQ   C29 1445   4.795   1.267   2.780  0.1306  0.1081 -0.1447
    51IDQ   C30 1446   4.406   0.444   2.138 -0.0954  0.8884 -0.0605
    51IDQ   C31 1447   4.289   0.410   2.230 -0.3225 -0.3874 -0.3613
    51IDQ   C32 1448   4.163   0.490   2.197 -0.2306  0.0439  0.1100
    51IDQ   C33 1449   4.052   0.450   2.295  0.0586  0.1999 -0.5739
    51IDQ   C34 1450   3.917   0.514   2.285  0.2922 -0.1101 -0.2861
    51IDQ   C35 1451   3.843   0.511   2.151 -0.1379 -0.8470  0.1000
    4IDB    C36 1452   5.065   0.470   2.281  0.0958 -0.4961 -0.2872
    4IDB    C37 1453   5.105   0.364   2.366 -0.0368 -0.3017  0.0198
    11RH    C38 1454   4.587   1.743   1.511 -0.5591 -0.1676 -0.0231
    4IDB    C39 1455   5.011   0.293   2.442 -0.1467 -0.0868  0.0867
    62IDT   C40 1456   5.087   0.193   2.519 -0.2247  0.1535  0.1899
    72IDQ   C41 1457   5.246   0.330   2.400 -0.3021  0.4399  0.3007
    62IDT   C42 1458   5.221   0.214   2.499 -0.2588  0.3240  0.1376
    72IDQ   C43 1459   5.331   0.456   2.451  0.0680  0.5922  0.4497
    72IDQ   C44 1460   5.324   0.288   2.254  0.2582 -0.1368 -1.4649
    62IDT    S5 1461   5.056   0.047   2.620 -0.0161 -0.1062 -0.1196
    62IDT   C45 1462   5.236   0.021   2.629  0.0156  0.0364 -0.3128
    62IDT   C46 1463   5.306   0.117   2.561 -0.1230  0.2581 -0.1466
    82BTZ   C47 1464   5.285  -0.089   2.717  0.2469  0.0110  0.3212
    82BTZ   C48 1465   5.200  -0.144   2.809  0.3105  0.0119  0.3814
    82BTZ   C49 1466   5.244  -0.243   2.903  0.3500 -0.0737  0.2737
    82BTZ   C50 1467   5.374  -0.287   2.907  0.3258 -0.1599  0.1061
    82BTZ   C51 1468   5.422  -0.131   2.717  0.2193 -0.0774  0.1467
    82BTZ   C52 1469   5.468  -0.232   2.813  0.2595 -0.1644  0.0374
    92RH    C53 1470   5.425  -0.388   2.995  0.2896 -0.0393 -0.2750
    82BTZ    N4 1471   5.515  -0.084   2.632  0.1581 -0.0873  0.0736
    82BTZ    N5 1472   5.597  -0.266   2.806  0.2304 -0.2440 -0.1237
    82BTZ    S6 1473   5.667  -0.169   2.674  0.1490 -0.2105 -0.1427
    92RH    C54 1474   5.362  -0.467   3.083  0.1968  0.0477 -0.2633
    92RH     S7 1475   5.181  -0.497   3.094  0.1837  0.0716 -0.4135
    92RH    C55 1476   5.432  -0.544   3.189  0.0868  0.1410 -0.1217
    92RH     O2 1477   5.554  -0.545   3.208  0.0677  0.1495  0.0005
    92RH     N6 1478   5.341  -0.618   3.267  0.0036  0.2214 -0.1417
    92RH    C56 1479   5.207  -0.610   3.237  0.0335  0.2038 -0.2820
    92RH    C57 1480   5.387  -0.693   3.391 -0.2486 -0.2126 -0.5437
    92RH    C58 1481   5.447  -0.834   3.379  0.2648  0.1934 -0.0982
    92RH     S8 1482   5.079  -0.688   3.314 -0.0489  0.2861 -0.3352
    72IDQ   C59 1483   5.447   0.196   2.258  0.1732  0.1135 -0.1454
    72IDQ   C60 1484   5.523   0.199   2.126  0.3349  0.2938  0.3998
    72IDQ   C61 1485   5.660   0.133   2.109 -0.1996 -0.0797 -0.7532
    72IDQ   C62 1486   5.718   0.139   1.967  0.3772 -0.1174 -0.0159
    72IDQ   C63 1487   5.853   0.075   1.940  0.1083 -0.4726 -0.5069
    72IDQ   C64 1488   5.883   0.054   1.795 -1.1261  0.2424  0.2704
    72IDQ   C65 1489   6.001  -0.039   1.766  0.3323 -0.1020 -0.0146
    72IDQ   C66 1490   5.292   0.538   2.574 -0.1935 -0.5677 -0.0649
    72IDQ   C67 1491   5.364   0.673   2.597 -0.4535  0.4977  0.0357
    72IDQ   C68 1492   5.305   0.740   2.719 -0.3087  1.0236  0.1533
    72IDQ   C69 1493   5.373   0.874   2.731  0.0210 -0.3672  0.0891
    72IDQ   C70 1494   5.361   0.964   2.863  0.9853  0.3978  0.3691
    72IDQ   C71 1495   5.428   0.902   2.991  0.1174  0.1269 -0.0216
    72IDQ   C72 1496   5.564   0.833   2.998  0.1142  0.6053  0.6903
    11RH     C1 1497   1.399   4.433   3.927  0.1834 -0.2211 -0.0982
    11RH     C2 1498   1.491   4.424   4.042  0.1038 -0.0600 -0.0203
    11RH     N1 1499   1.267   4.399   3.963  0.1838 -0.3020 -0.1732
    11RH     S1 1500   1.399   4.370   4.191  0.0346 -0.0252 -0.0508
    11RH     C3 1501   1.242   4.363   4.094  0.1142 -0.2254 -0.1649
    11RH     C4 1502   1.151   4.410   3.864 -0.0612 -0.6360 -0.5829
    11RH     S2 1503   1.095   4.317   4.162  0.0988 -0.2948 -0.2433
    11RH     O1 1504   1.431   4.467   3.812  0.2432 -0.2807 -0.0994
    11RH     C5 1505   1.622   4.451   4.035  0.0874  0.0413  0.0590
    21BTZ    C6 1506   1.732   4.467   4.138 -0.1937 -0.3295  0.1357
    21BTZ    C7 1507   1.701   4.469   4.272 -0.1526 -0.2993  0.1448
    21BTZ    C8 1508   1.869   4.479   4.099 -0.2147 -0.2497  0.0876
    21BTZ    C9 1509   1.803   4.483   4.373 -0.1303 -0.1903  0.1073
    21BTZ   C10 1510   1.936   4.495   4.340 -0.1489 -0.1113  0.0607
    21BTZ   C11 1511   1.973   4.494   4.202 -0.1919 -0.1388  0.0495
    21BTZ    N2 1512   1.911   4.479   3.972 -0.2545 -0.2691  0.0743
    21BTZ    N3 1513   2.098   4.505   4.157 -0.2136 -0.0689  0.0054
    21BTZ    S3 1514   2.089   4.497   3.979 -0.2649 -0.1437  0.0110
    31IDT   C12 1515   2.036   4.486   4.442  0.3784 -0.0084 -0.4663
    31IDT   C13 1516   2.041   4.396   4.545  0.0465 -0.2532 -0.6611
    31IDT   C14 1517   2.154   4.415   4.630 -0.2997 -0.3610 -0.1701
    31IDT   C15 1518   2.236   4.519   4.593 -0.2343 -0.1998  0.4009
    31IDT    S4 1519   2.176   4.602   4.445  0.2755  0.1042  0.3606
    4IDB    C16 1520   2.360   4.515   4.666  0.0906 -0.0038  0.0008
    4IDB    C17 1521   2.358   4.399   4.749  0.0345  0.0178  0.0297
    51IDQ   C18 1522   2.221   4.331   4.746  0.6648  0.0954  0.2492
    4IDB    C19 1523   2.471   4.360   4.819  0.0586 -0.0993 -0.0725
    51IDQ   C20 1524   2.237   4.181   4.723  0.4889  0.2208 -0.6001
    51IDQ   C21 1525   2.141   4.342   4.885 -1.0178 -0.3371  0.4810
    51IDQ   C22 1526   2.183   4.426   5.007  0.3457 -0.6450  0.4678
    51IDQ   C23 1527   2.199   4.113   4.592  0.6209 -0.2512  0.0361
    51IDQ   C24 1528   2.106   4.397   5.137 -0.1631  0.0779  0.3569
    51IDQ   C25 1529   1.954   4.378   5.124 -0.4220  0.5137  0.3056
    51IDQ   C26 1530   1.889   4.299   5.238 -0.2731 -0.2910  0.5629
    51IDQ   C27 1531   1.740   4.263   5.232  0.6644 -0.3044  0.0157
    51IDQ   C28 1532   1.695   4.182   5.106 -0.0128 -0.1046 -0.4319
    51IDQ   C29 1533   1.558   4.117   5.116 -0.1348 -0.8717 -0.1044
    51IDQ   C30 1534   2.192   3.960   4.598  0.5065  0.0738 -0.1449
    51IDQ   C31 1535   2.187   3.896   4.461  0.0729 -0.2110 -0.1613
    51IDQ   C32 1536   2.130   3.756   4.446  0.3350  0.1637  0.0997
    51IDQ   C33 1537   2.126   3.714   4.294 -0.2313 -0.0179 -0.0455
    51IDQ   C34 1538   2.000   3.665   4.243 -0.1739  0.9222 -0.1032
    51IDQ   C35 1539   2.012   3.609   4.102  0.2319 -0.1470  0.2568
    4IDB    C36 1540   2.475   4.594   4.653  0.1714 -0.1434 -0.1314
    4IDB    C37 1541   2.590   4.552   4.726  0.1949 -0.2617 -0.2346
    11RH    C38 1542   1.106   4.284   3.793 -0.3034  0.0300  0.7104
    4IDB    C39 1543   2.587   4.438   4.807  0.1395 -0.2390 -0.2047
    62IDT   C40 1544   2.720   4.403   4.847  0.1587 -0.0704 -0.2782
    72IDQ   C41 1545   2.731   4.617   4.736 -0.4068  0.3945 -0.5018
    62IDT   C42 1546   2.806   4.502   4.805  0.2261 -0.1775 -0.3958
    72IDQ   C43 1547   2.743   4.752   4.825  0.1737  0.3565 -0.0500
    72IDQ   C44 1548   2.797   4.641   4.598 -0.4203 -0.1735  0.4204
    62IDT    S5 1549   2.807   4.264   4.920  0.0490  0.0615  0.1101
    62IDT   C45 1550   2.963   4.352   4.889  0.1025 -0.0401  0.0919
    62IDT   C46 1551   2.944   4.473   4.829  0.1944 -0.1605 -0.1867
    82BTZ   C47 1552   3.094   4.285   4.906  0.0134  0.1172 -0.6255
    82BTZ   C48 1553   3.090   4.150   4.927 -0.0845  0.1070 -0.7064
    82BTZ   C49 1554   3.210   4.072   4.942 -0.1447  0.0461 -0.5338
    82BTZ   C50 1555   3.335   4.129   4.935 -0.1069 -0.0045 -0.2807
    82BTZ   C51 1556   3.222   4.350   4.898  0.0563  0.0654 -0.3620
    82BTZ   C52 1557   3.344   4.270   4.913 -0.0048  0.0036 -0.1866
    92RH    C53 1558   3.465   4.061   4.941  0.0273 -0.2239  0.3836
    82BTZ    N4 1559   3.239   4.481   4.878  0.1507  0.0694 -0.2605
    82BTZ    N5 1560   3.460   4.337   4.905  0.0404 -0.0421  0.0559
    82BTZ    S6 1561   3.416   4.508   4.877  0.1657 -0.0074  0.0703
    92RH    C54 1562   3.508   3.934   4.938 -0.0295 -0.2372  0.1205
    92RH     S7 1563   3.404   3.783   4.927 -0.1026 -0.1747 -0.0650
    92RH    C55 1564   3.651   3.896   4.942 -0.0420 -0.3071 -0.0664
    92RH     O2 1565   3.747   3.975   4.949 -0.0024 -0.3605 -0.0036
    92RH     N6 1566   3.668   3.756   4.937 -0.1059 -0.3061 -0.3321
    92RH    C56 1567   3.555   3.677   4.929 -0.1462 -0.2439 -0.3805
    92RH    C57 1568   3.806   3.697   4.952  0.2293  0.2120  0.3939
    92RH    C58 1569   3.880   3.685   4.819 -0.0754 -0.3330  0.6084
    92RH     S8 1570   3.547   3.509   4.922 -0.2239 -0.2286 -0.6764
    72IDQ   C59 1571   2.740   4.753   4.506 -0.3322 -0.0217  0.2655
    72IDQ   C60 1572   2.838   4.775   4.387  0.1603 -0.3770 -0.5421
    72IDQ   C61 1573   2.813   4.891   4.280  0.0713  0.9074  0.4251
    72IDQ   C62 1574   2.788   5.037   4.331 -0.1231  0.1069 -0.1569
    72IDQ   C63 1575   2.819   5.158   4.233  0.1803 -0.0705 -0.4407
    72IDQ   C64 1576   2.958   5.183   4.182 -0.1299  0.1656  0.5525
    72IDQ   C65 1577   2.977   5.302   4.086  0.1486  0.1484  0.2341
    72IDQ   C66 1578   2.625   4.794   4.907  0.0591  0.1130  0.4608
    72IDQ   C67 1579   2.647   4.930   4.974  0.5013 -0.0226  0.0055
    72IDQ   C68 1580   2.533   4.998   5.047  0.5259 -0.2217 -0.1382
    72IDQ   C69 1581   2.443   4.919   5.145 -0.2803 -0.1707 -0.5374
    72IDQ   C70 1582   2.498   4.851   5.271 -0.5402 -0.2028  0.0432
    72IDQ   C71 1583   2.556   4.941   5.375 -0.3244  0.3602  0.3504
    72IDQ   C72 1584   2.553   4.899   5.521  0.0298  0.2472  0.1282
    11RH     C1 1585   3.203   1.552   4.822  0.0349  0.1921 -0.0813
    11RH     C2 1586   3.226   1.490   4.689 -0.0411  0.0094 -0.0092
    11RH     N1 1587   3.079   1.514   4.876  0.1799  0.0537  0.1598
    11RH     S1 1588   3.082   1.386   4.644  0.0832 -0.3326  0.3709
    11RH     C3 1589   2.998   1.429   4.803  0.2295 -0.2177  0.4163
    11RH     C4 1590   3.043   1.555   5.015  0.5621  0.0015  0.1168
    11RH     S2 1591   2.846   1.370   4.845  0.3964 -0.4277  0.7331
    11RH     O1 1592   3.282   1.628   4.881 -0.0193  0.4365 -0.3210
    11RH     C5 1593   3.336   1.509   4.617 -0.1794  0.0899 -0.1995
    21BTZ    C6 1594   3.369   1.473   4.484 -0.0897  0.3311 -0.2469
    21BTZ    C7 1595   3.279   1.405   4.406 -0.1250  0.4211 -0.2856
    21BTZ    C8 1596   3.495   1.510   4.426 -0.0064  0.1591 -0.1767
    21BTZ    C9 1597   3.308   1.369   4.269 -0.0805  0.3473 -0.2573
    21BTZ   C10 1598   3.427   1.403   4.210 -0.0008  0.1834 -0.1903
    21BTZ   C11 1599   3.525   1.474   4.287  0.0388  0.0839 -0.1479
    21BTZ    N2 1600   3.591   1.576   4.491  0.0347  0.0586 -0.1339
    21BTZ    N3 1601   3.644   1.512   4.240  0.1161 -0.0769 -0.0819
    21BTZ    S3 1602   3.726   1.597   4.375  0.1349 -0.1404 -0.0534
    31IDT   C12 1603   3.443   1.359   4.068  0.2310 -0.0603  0.1386
    31IDT   C13 1604   3.551   1.382   3.987 -0.0062  0.1930 -0.1058
    31IDT   C14 1605   3.532   1.333   3.854 -0.3143  0.4265 -0.1513
    31IDT   C15 1606   3.411   1.272   3.834 -0.3140  0.3532  0.0575
    31IDT    S4 1607   3.309   1.271   3.982  0.0801 -0.0209  0.3307
    4IDB    C16 1608   3.415   1.212   3.696  0.4958  0.1731 -0.3242
    4IDB    C17 1609   3.542   1.238   3.636  0.3555  0.3485 -0.5488
    51IDQ   C18 1610   3.620   1.326   3.732 -0.0637 -0.1536  0.8327
    4IDB    C19 1611   3.572   1.192   3.508  0.1987  0.3781 -0.5962
    51IDQ   C20 1612   3.764   1.259   3.741 -0.8492  0.0524  0.1939
    51IDQ   C21 1613   3.648   1.477   3.671  0.0651 -0.1591 -0.4089
    51IDQ   C22 1614   3.604   1.512   3.533  0.0929 -0.2036 -0.2271
    51IDQ   C23 1615   3.817   1.189   3.856 -0.2627 -0.2696 -0.1633
    51IDQ   C24 1616   3.661   1.636   3.466 -0.2987 -0.1778  0.0060
    51IDQ   C25 1617   3.636   1.633   3.315  0.4588  0.1569  0.0365
    51IDQ   C26 1618   3.709   1.743   3.238 -0.9320  0.2988  0.3349
    51IDQ   C27 1619   3.721   1.734   3.086 -0.2806  0.2054 -0.3838
    51IDQ   C28 1620   3.796   1.619   3.015 -0.1348  0.1312 -0.4144
    51IDQ   C29 1621   3.780   1.626   2.867  0.1225 -0.7059  0.4010
    51IDQ   C30 1622   3.943   1.112   3.823 -0.0015  0.8311  0.8988
    51IDQ   C31 1623   4.052   1.112   3.931  0.5705 -0.8354  0.2991
    51IDQ   C32 1624   4.192   1.069   3.905 -0.1148 -0.0403  0.6151
    51IDQ   C33 1625   4.282   1.051   4.032  0.2748 -0.7982  0.2088
    51IDQ   C34 1626   4.412   0.971   4.014  0.3358 -0.3550 -0.0113
    51IDQ   C35 1627   4.476   0.924   4.141  0.3434  0.7270 -0.2776
    4IDB    C36 1628   3.316   1.140   3.628  0.4798  0.0253 -0.1447
    4IDB    C37 1629   3.348   1.093   3.497  0.3185  0.0580 -0.1964
    11RH    C38 1630   3.075   1.456   5.124  0.3971 -0.7757  0.2407
    4IDB    C39 1631   3.473   1.119   3.440  0.1826  0.2303 -0.4168
    62IDT   C40 1632   3.481   1.046   3.313 -0.0880  0.3693 -0.1102
    72IDQ   C41 1633   3.257   1.026   3.388  0.4486  0.0020 -0.4245
    62IDT   C42 1634   3.354   1.011   3.272 -0.2109  0.7280 -0.0404
    72IDQ   C43 1635   3.143   1.129   3.356 -0.1920  0.1551  0.7043
    72IDQ   C44 1636   3.200   0.907   3.473  0.5004  0.4448  1.4540
    62IDT    S5 1637   3.605   1.009   3.188 -0.2247 -0.2204 -0.0753
    62IDT   C45 1638   3.471   0.945   3.082 -0.4519  0.0630  0.0375
    62IDT   C46 1639   3.348   0.954   3.142 -0.4167  0.5554  0.0432
    82BTZ   C47 1640   3.503   0.923   2.940 -0.1897  0.0466  0.1110
    82BTZ   C48 1641   3.631   0.947   2.898 -0.1391 -0.0213  0.2263
    82BTZ   C49 1642   3.673   0.919   2.763 -0.0190 -0.0901  0.2778
    82BTZ   C50 1643   3.587   0.867   2.670  0.0503 -0.0908  0.2138
    82BTZ   C51 1644   3.408   0.869   2.847 -0.1208  0.0488  0.0403
    82BTZ   C52 1645   3.451   0.840   2.709  0.0013 -0.0211  0.0926
    92RH    C53 1646   3.629   0.843   2.532 -0.0984 -0.3187  0.1166
    82BTZ    N4 1647   3.281   0.841   2.875 -0.1602  0.1114 -0.0731
    82BTZ    N5 1648   3.358   0.790   2.628  0.0599 -0.0147  0.0213
    82BTZ    S6 1649   3.209   0.776   2.725 -0.0405  0.0831 -0.1186
    92RH    C54 1650   3.749   0.852   2.474 -0.0598 -0.3074  0.1984
    92RH     S7 1651   3.910   0.883   2.558 -0.0935 -0.4905  0.3306
    92RH    C55 1652   3.771   0.839   2.328  0.0187 -0.1385  0.1938
    92RH     O2 1653   3.683   0.817   2.244  0.0574  0.0095  0.1154
    92RH     N6 1654   3.908   0.853   2.295  0.0454 -0.1655  0.2913
    92RH    C56 1655   3.998   0.876   2.397 -0.0022 -0.3352  0.3734
    92RH    C57 1656   3.942   0.854   2.151  0.1161 -0.4852 -0.0114
    92RH    C58 1657   3.951   0.998   2.092 -0.4475 -0.1509 -0.1961
    92RH     S8 1658   4.165   0.897   2.384  0.0157 -0.4026  0.4966
    72IDQ   C59 1659   3.220   0.760   3.427  0.4221  0.1689  0.5708
    72IDQ   C60 1660   3.357   0.693   3.438 -0.4766  0.0014  0.6572
    72IDQ   C61 1661   3.438   0.737   3.561  0.8631  0.3601 -0.1308
    72IDQ   C62 1662   3.577   0.683   3.568 -0.1884  0.4818  0.2942
    72IDQ   C63 1663   3.661   0.741   3.682  0.1358  0.2882  0.2292
    72IDQ   C64 1664   3.611   0.722   3.831 -0.6866  0.3393 -0.4132
    72IDQ   C65 1665   3.597   0.591   3.899  0.9952 -0.2454  0.2259
    72IDQ   C66 1666   3.027   1.085   3.274  1.0840 -0.1200 -0.1331
    72IDQ   C67 1667   3.003   1.174   3.153 -0.4698  0.0872  0.3050
    72IDQ   C68 1668   2.880   1.133   3.064 -0.6342  0.0435 -0.4157
    72IDQ   C69 1669   2.880   1.013   2.965  0.3384 -0.1076  0.4123
    72IDQ   C70 1670   2.958   1.025   2.841  0.2466  0.6380  0.3886
    72IDQ   C71 1671   2.898   1.123   2.742 -0.2085 -0.1521  0.1746
    72IDQ   C72 1672   2.968   1.132   2.604  0.7650 -0.4999 -0.5816
    11RH     C1 1673   3.982   3.505   5.601 -0.0899 -0.5070  0.0955
    11RH     C2 1674   3.927   3.485   5.737  0.1158 -0.3774  0.1986
    11RH     N1 1675   4.049   3.390   5.554 -0.0402 -0.5041  0.1599
    11RH     S1 1676   3.967   3.315   5.795  0.3612 -0.2601  0.3736
    11RH     C3 1677   4.054   3.279   5.637  0.1802 -0.3880  0.3021
    11RH     C4 1678   4.107   3.390   5.418  0.0759  0.6544  0.4815
    11RH     S2 1679   4.128   3.131   5.606  0.2836 -0.3585  0.4036
    11RH     O1 1680   3.972   3.609   5.534 -0.2835 -0.6071 -0.0319
    11RH     C5 1681   3.859   3.578   5.804  0.1150 -0.3537  0.1646
    21BTZ    C6 1682   3.814   3.591   5.942  0.0005  0.1194  0.1719
    21BTZ    C7 1683   3.831   3.486   6.029 -0.1279  0.0795  0.1496
    21BTZ    C8 1684   3.767   3.716   5.993 -0.0196  0.1130  0.1695
    21BTZ    C9 1685   3.802   3.500   6.170 -0.2813  0.0315  0.1234
    21BTZ   C10 1686   3.757   3.618   6.223 -0.3063  0.0235  0.1198
    21BTZ   C11 1687   3.737   3.730   6.136 -0.1756  0.0641  0.1429
    21BTZ    N2 1688   3.746   3.825   5.917  0.0963  0.1490  0.1900
    21BTZ    N3 1689   3.694   3.850   6.175 -0.1852  0.0609  0.1420
    21BTZ    S3 1690   3.688   3.952   6.029  0.0090  0.1215  0.1759
    31IDT   C12 1691   3.728   3.625   6.365  0.1377  0.1728  0.0742
    31IDT   C13 1692   3.739   3.734   6.448  0.1650  0.1050  0.1602
    31IDT   C14 1693   3.719   3.701   6.585  0.0720  0.0163  0.1261
    31IDT   C15 1694   3.692   3.568   6.609 -0.0264  0.0160  0.0141
    31IDT    S4 1695   3.691   3.472   6.457 -0.0089  0.1288 -0.0575
    4IDB    C16 1696   3.657   3.540   6.746  0.0166  0.1957 -0.1899
    4IDB    C17 1697   3.677   3.658   6.824  0.0710  0.0418  0.0314
    51IDQ   C18 1698   3.723   3.768   6.720 -0.2949  0.1085 -0.8081
    4IDB    C19 1699   3.654   3.658   6.961  0.0184 -0.1902  0.0229
    51IDQ   C20 1700   3.636   3.898   6.748 -0.4539  0.2689 -0.7138
    51IDQ   C21 1701   3.878   3.812   6.742 -0.0801 -0.0343 -0.6271
    51IDQ   C22 1702   3.956   3.758   6.868 -1.0300 -0.0832  0.1579
    51IDQ   C23 1703   3.537   3.975   6.663 -0.1563  0.1746  0.6304
    51IDQ   C24 1704   4.109   3.781   6.877  0.3483  0.1305  0.3286
    51IDQ   C25 1705   4.157   3.927   6.873 -0.6768  0.2451 -0.7852
    51IDQ   C26 1706   4.308   3.972   6.866  0.4684 -0.2509  0.6517
    51IDQ   C27 1707   4.309   4.122   6.886 -0.8499 -0.1020  0.3671
    51IDQ   C28 1708   4.450   4.179   6.918  0.6046  0.1583 -0.5394
    51IDQ   C29 1709   4.464   4.333   6.919 -0.0917 -0.3620  0.6580
    51IDQ   C30 1710   3.425   3.888   6.607  0.2340  1.2287 -0.3350
    51IDQ   C31 1711   3.306   3.970   6.541 -0.2285  0.3580  0.1715
    51IDQ   C32 1712   3.204   3.884   6.459  0.0737 -0.2916  0.0427
    51IDQ   C33 1713   3.087   3.978   6.428  0.2382 -1.0056 -0.4547
    51IDQ   C34 1714   2.963   3.898   6.391 -0.4342 -0.3675  0.1385
    51IDQ   C35 1715   2.842   3.988   6.375  0.0598  0.0072 -0.3133
    4IDB    C36 1716   3.614   3.421   6.805 -0.0913  0.1178 -0.4226
    4IDB    C37 1717   3.592   3.422   6.945 -0.1437 -0.1199 -0.4277
    11RH    C38 1718   4.257   3.428   5.423 -0.1457  0.1341 -0.4404
    4IDB    C39 1719   3.611   3.538   7.020 -0.0894 -0.2681 -0.2098
    62IDT   C40 1720   3.568   3.511   7.155 -0.3665 -0.2407  0.2021
    72IDQ   C41 1721   3.541   3.306   7.041  0.1996 -0.2154  0.2630
    62IDT   C42 1722   3.525   3.381   7.173 -0.5107 -0.1552  0.4876
    72IDQ   C43 1723   3.635   3.181   7.045 -0.1214  0.3250  0.0208
    72IDQ   C44 1724   3.386   3.263   7.016 -1.5750 -0.4101  0.1605
    62IDT    S5 1725   3.555   3.608   7.306  0.1168 -0.0021  0.0945
    62IDT   C45 1726   3.489   3.460   7.390  0.0976  0.2112  0.4590
    62IDT   C46 1727   3.481   3.352   7.306 -0.2485  0.1004  0.6333
    82BTZ   C47 1728   3.453   3.457   7.530  0.1172 -0.0954  0.0150
    82BTZ   C48 1729   3.500   3.562   7.604  0.2440 -0.1587  0.0232
    82BTZ   C49 1730   3.482   3.568   7.747  0.3341 -0.1935  0.0366
    82BTZ   C50 1731   3.416   3.470   7.816  0.2972 -0.1649  0.0419
    82BTZ   C51 1732   3.382   3.351   7.598  0.0739 -0.0634  0.0201
    82BTZ   C52 1733   3.364   3.358   7.743  0.1655 -0.0988  0.0337
    92RH    C53 1734   3.407   3.470   7.963  0.2042 -0.2551  0.3659
    82BTZ    N4 1735   3.331   3.244   7.537 -0.0471 -0.0019  0.0131
    82BTZ    N5 1736   3.297   3.257   7.798  0.1181 -0.0657  0.0377
    82BTZ    S6 1737   3.255   3.145   7.665 -0.0491  0.0137  0.0239
    92RH    C54 1738   3.450   3.555   8.057  0.2616 -0.1889  0.2789
    92RH     S7 1739   3.537   3.715   8.028  0.1843 -0.1765  0.1102
    92RH    C55 1740   3.433   3.533   8.202  0.4015 -0.1130  0.3076
    92RH     O2 1741   3.377   3.435   8.254  0.4806 -0.1019  0.4132
    92RH     N6 1742   3.487   3.640   8.278  0.4358 -0.0530  0.1983
    92RH    C56 1743   3.546   3.744   8.210  0.3406 -0.0716  0.0857
    92RH    C57 1744   3.489   3.641   8.431  0.3134  0.3650 -0.1354
    92RH    C58 1745   3.372   3.692   8.509 -0.1212  0.7330 -0.4369
    92RH     S8 1746   3.618   3.882   8.275  0.3558 -0.0114 -0.0572
    72IDQ   C59 1747   3.319   3.244   6.879 -0.5325 -0.0991  0.3129
    72IDQ   C60 1748   3.369   3.123   6.799  0.2509  0.3151 -0.5829
    72IDQ   C61 1749   3.261   3.065   6.708 -0.3685  0.4995  0.1840
    72IDQ   C62 1750   3.266   2.914   6.659 -0.3359 -0.2096  0.0793
    72IDQ   C63 1751   3.217   2.814   6.761 -0.1669  0.0974 -0.0369
    72IDQ   C64 1752   3.216   2.680   6.696  0.1355  0.7334  0.3104
    72IDQ   C65 1753   3.227   2.569   6.798  0.2192 -0.3720  0.3083
    72IDQ   C66 1754   3.785   3.180   7.097 -0.0869 -0.4200  0.2911
    72IDQ   C67 1755   3.883   3.277   7.027 -0.4470  0.3507  0.0731
    72IDQ   C68 1756   3.904   3.243   6.879 -0.2457  0.9889 -0.1430
    72IDQ   C69 1757   3.997   3.338   6.804 -0.2089  0.6947  0.2560
    72IDQ   C70 1758   4.006   3.305   6.656  0.1853 -0.2370 -0.6782
    72IDQ   C71 1759   4.093   3.412   6.589 -0.1137 -0.5052  0.5373
    72IDQ   C72 1760   4.125   3.371   6.449 -0.3743 -0.1371  0.3858
    11RH     C1 1761   2.092   6.160   4.112 -0.0390 -0.2922 -0.2527
    11RH     C2 1762   1.989   6.266   4.108  0.0062 -0.2441 -0.1479
    11RH     N1 1763   2.162   6.151   3.990  0.0587 -0.1004 -0.2108
    11RH     S1 1764   1.990   6.348   3.944  0.1743  0.0500 -0.0012
    11RH     C3 1765   2.127   6.238   3.889  0.1767  0.0952 -0.0854
    11RH     C4 1766   2.277   6.053   3.984 -0.4142  0.4704  0.3332
    11RH     S2 1767   2.195   6.248   3.734  0.3083  0.3455 -0.0120
    11RH     O1 1768   2.116   6.086   4.209 -0.1483 -0.4760 -0.3639
    11RH     C5 1769   1.908   6.295   4.211 -0.0676 -0.3971 -0.1623
    21BTZ    C6 1770   1.810   6.401   4.229  0.1046 -0.0877 -0.2281
    21BTZ    C7 1771   1.788   6.493   4.130  0.0791 -0.1720 -0.3009
    21BTZ    C8 1772   1.722   6.399   4.342  0.0874 -0.0422 -0.2407
    21BTZ    C9 1773   1.678   6.586   4.137  0.0359 -0.2158 -0.3889
    21BTZ   C10 1774   1.592   6.588   4.243  0.0181 -0.1754 -0.4042
    21BTZ   C11 1775   1.611   6.494   4.349  0.0435 -0.0868 -0.3301
    21BTZ    N2 1776   1.734   6.314   4.445  0.1090  0.0402 -0.1754
    21BTZ    N3 1777   1.533   6.486   4.457  0.0297 -0.0402 -0.3366
    21BTZ    S3 1778   1.600   6.354   4.557  0.0733  0.0645 -0.2264
    31IDT   C12 1779   1.486   6.697   4.247 -0.7264  0.2561  0.0100
    31IDT   C13 1780   1.361   6.684   4.302 -0.6941  0.8029  0.2309
    31IDT   C14 1781   1.272   6.789   4.264 -0.4055  1.0026  0.0998
    31IDT   C15 1782   1.329   6.883   4.181 -0.2164  0.6104 -0.2210
    31IDT    S4 1783   1.500   6.845   4.143 -0.3906 -0.0484 -0.3837
    4IDB    C16 1784   1.230   6.981   4.140  0.1227  0.0598  0.2190
    4IDB    C17 1785   1.105   6.950   4.202  0.0708 -0.0105  0.0780
    51IDQ   C18 1786   1.121   6.821   4.284  0.0202  0.4777 -0.1835
    4IDB    C19 1787   0.995   7.034   4.188  0.1351  0.1010  0.2349
    51IDQ   C20 1788   1.080   6.852   4.434 -0.8473 -0.1063 -0.6176
    51IDQ   C21 1789   1.025   6.710   4.232  0.1935  0.0962 -0.2390
    51IDQ   C22 1790   0.939   6.716   4.111  0.2266 -0.3680  0.4409
    51IDQ   C23 1791   1.196   6.881   4.535 -0.3461  0.2046  0.5127
    51IDQ   C24 1792   0.832   6.606   4.109  0.4945 -0.6153 -0.4791
    51IDQ   C25 1793   0.741   6.600   3.990  0.7269  0.0072  0.9724
    51IDQ   C26 1794   0.818   6.573   3.856  0.1270 -1.0781 -0.9942
    51IDQ   C27 1795   0.734   6.594   3.734  0.1884  0.1953  1.3356
    51IDQ   C28 1796   0.807   6.616   3.601 -0.3493  0.9406  0.3541
    51IDQ   C29 1797   0.720   6.660   3.486  0.9438 -0.5051 -0.3124
    51IDQ   C30 1798   1.151   6.897   4.679  0.0874  0.5396  0.0768
    51IDQ   C31 1799   1.251   6.986   4.749  0.1519 -0.2471 -0.3144
    51IDQ   C32 1800   1.226   7.023   4.891  0.0167  0.4690 -0.4165
    51IDQ   C33 1801   1.217   6.909   4.991  0.0679  0.2208  1.0693
    51IDQ   C34 1802   1.179   6.942   5.133 -0.6984 -0.1992 -0.0163
    51IDQ   C35 1803   1.207   6.823   5.234  0.5066  0.1061  0.0417
    4IDB    C36 1804   1.246   7.098   4.064  0.2401  0.2432  0.5196
    4IDB    C37 1805   1.133   7.183   4.051  0.3044  0.3551  0.6763
    11RH    C38 1806   2.245   5.922   3.915  0.4378 -0.3009 -0.1986
    4IDB    C39 1807   1.011   7.151   4.111  0.2524  0.2844  0.5355
    62IDT   C40 1808   0.917   7.260   4.089  0.2131  0.0638 -0.0245
    72IDQ   C41 1809   1.118   7.317   3.981  0.2705  0.0533  1.2102
    62IDT   C42 1810   0.973   7.357   4.009 -0.1699  0.1504 -0.1950
    72IDQ   C43 1811   1.148   7.308   3.828 -0.1135 -0.4545 -0.3319
    72IDQ   C44 1812   1.197   7.437   4.053 -0.3006 -0.3732  0.0234
    62IDT    S5 1813   0.746   7.297   4.130  0.1050 -0.4663  0.0257
    62IDT   C45 1814   0.761   7.450   4.032 -0.4807 -0.5469 -0.1974
    62IDT   C46 1815   0.885   7.465   3.977 -0.5627 -0.1947 -0.2930
    82BTZ   C47 1816   0.648   7.536   4.009  0.1449 -0.1876 -0.1409
    82BTZ   C48 1817   0.530   7.478   3.972  0.1707 -0.1847 -0.2308
    82BTZ   C49 1818   0.417   7.556   3.928  0.1465 -0.1686 -0.1409
    82BTZ   C50 1819   0.423   7.693   3.920  0.0965 -0.1554  0.0387
    82BTZ   C51 1820   0.660   7.679   4.002  0.0924 -0.1741  0.0472
    82BTZ   C52 1821   0.545   7.758   3.957  0.0679 -0.1578  0.1386
    92RH    C53 1822   0.306   7.779   3.880  0.0651  0.0504  0.5586
    82BTZ    N4 1823   0.770   7.747   4.035  0.0633 -0.1754  0.1490
    82BTZ    N5 1824   0.563   7.891   3.954  0.0190 -0.1459  0.3138
    82BTZ    S6 1825   0.731   7.919   4.009  0.0019 -0.1552  0.3707
    92RH    C54 1826   0.176   7.761   3.852  0.1148  0.0102  0.3551
    92RH     S7 1827   0.085   7.602   3.851  0.1923 -0.0347  0.0914
    92RH    C55 1828   0.085   7.872   3.815  0.1145 -0.0046  0.3119
    92RH     O2 1829   0.116   7.992   3.806  0.0691  0.0181  0.4556
    92RH     N6 1830  -0.046   7.825   3.790  0.1731 -0.0485  0.0826
    92RH    C56 1831  -0.070   7.690   3.803  0.2205 -0.0708 -0.0632
    92RH    C57 1832  -0.157   7.921   3.755 -0.3498  0.2658  0.3896
    92RH    C58 1833  -0.181   7.947   3.604 -0.3786 -0.2451 -0.4961
    92RH     S8 1834  -0.216   7.608   3.779  0.2943 -0.1229 -0.3424
    72IDQ   C59 1835   1.349   7.419   4.055 -0.7735  0.2838 -0.4135
    72IDQ   C60 1836   1.431   7.525   4.115  0.1366 -0.4696 -0.0745
    72IDQ   C61 1837   1.575   7.479   4.125  0.0782 -0.5432  0.5371
    72IDQ   C62 1838   1.672   7.575   4.196 -0.3577  0.3616  0.3954
    72IDQ   C63 1839   1.733   7.682   4.111 -0.3542 -0.0562  0.1912
    72IDQ   C64 1840   1.838   7.776   4.170  0.4475 -0.1607  0.7298
    72IDQ   C65 1841   1.900   7.870   4.069  0.3601 -0.2196  0.4688
    72IDQ   C66 1842   1.042   7.278   3.723 -0.4291 -0.9929  0.9305
    72IDQ   C67 1843   0.960   7.150   3.728 -0.2212  0.1034 -0.1227
    72IDQ   C68 1844   0.840   7.145   3.630 -0.1653  0.5870 -0.3852
    72IDQ   C69 1845   0.751   7.020   3.632  0.2592 -0.0825 -0.0913
    72IDQ   C70 1846   0.713   6.963   3.763  0.5141  0.1857 -0.4621
    72IDQ   C71 1847   0.634   7.044   3.863  0.0020 -0.2102  0.3666
    72IDQ   C72 1848   0.600   6.957   3.982 -0.0648 -0.1693  0.4453
    11RH     C1 1849   2.683   3.051   1.186  0.1926  0.0208 -0.0451
    11RH     C2 1850   2.752   3.163   1.255  0.1965  0.0352 -0.0717
    11RH     N1 1851   2.604   2.976   1.275  0.1397  0.0835 -0.0384
    11RH     S1 1852   2.709   3.160   1.434  0.1301  0.1303 -0.0862
    11RH     C3 1853   2.601   3.012   1.408  0.1006  0.1464 -0.0564
    11RH     C4 1854   2.540   2.852   1.211 -0.1526  0.4021 -0.2589
    11RH     S2 1855   2.516   2.939   1.534  0.0349  0.2279 -0.0532
    11RH     O1 1856   2.691   3.026   1.065  0.2305 -0.0383 -0.0302
    11RH     C5 1857   2.833   3.249   1.194  0.2421 -0.0150 -0.0828
    21BTZ    C6 1858   2.905   3.362   1.244 -0.2066 -0.0124 -0.2181
    21BTZ    C7 1859   2.901   3.403   1.374 -0.3614 -0.0647 -0.2057
    21BTZ    C8 1860   2.976   3.441   1.148 -0.0865  0.0221 -0.1005
    21BTZ    C9 1861   2.966   3.525   1.417 -0.4059 -0.0857 -0.0781
    21BTZ   C10 1862   3.035   3.604   1.329 -0.2954 -0.0542  0.0370
    21BTZ   C11 1863   3.042   3.565   1.192 -0.1317  0.0008  0.0293
    21BTZ    N2 1864   2.987   3.411   1.018  0.0682  0.0736 -0.0996
    21BTZ    N3 1865   3.106   3.634   1.097 -0.0132  0.0353  0.1343
    21BTZ    S3 1866   3.084   3.542   0.945  0.1648  0.0978  0.0705
    31IDT   C12 1867   3.112   3.721   1.377  0.4244 -0.5365  0.1229
    31IDT   C13 1868   3.150   3.835   1.311  0.1913 -0.5504 -0.0389
    31IDT   C14 1869   3.201   3.935   1.399 -0.2333 -0.2289 -0.1524
    31IDT   C15 1870   3.203   3.898   1.532 -0.3264  0.0316 -0.0780
    31IDT    S4 1871   3.139   3.732   1.557  0.1204 -0.1113  0.1435
    4IDB    C16 1872   3.252   4.017   1.610  0.3177  0.0602  0.1188
    4IDB    C17 1873   3.292   4.122   1.521 -0.0583  0.1197  0.0161
    51IDQ   C18 1874   3.273   4.073   1.376  0.5365 -0.7599  0.0590
    4IDB    C19 1875   3.340   4.243   1.571 -0.0304  0.1583 -0.1048
    51IDQ   C20 1876   3.179   4.183   1.304  0.3018 -0.1275  0.6319
    51IDQ   C21 1877   3.396   4.053   1.279 -0.1666 -0.1400 -0.6236
    51IDQ   C22 1878   3.538   4.090   1.320 -0.4097  0.0118 -0.2397
    51IDQ   C23 1879   3.037   4.146   1.256 -0.1372  0.4641  0.0024
    51IDQ   C24 1880   3.644   4.060   1.225  0.0125  0.0758 -0.5876
    51IDQ   C25 1881   3.773   3.998   1.278  0.0645  0.1292 -0.0541
    51IDQ   C26 1882   3.887   3.985   1.178 -0.5515 -0.2788  0.1209
    51IDQ   C27 1883   4.010   3.911   1.240  0.3505  0.0702 -0.1998
    51IDQ   C28 1884   4.139   3.897   1.153  0.3353 -0.4526 -0.6560
    51IDQ   C29 1885   4.191   4.016   1.071 -0.2642 -0.8780 -0.3282
    51IDQ   C30 1886   2.989   4.247   1.157  0.0949 -0.0008  0.4007
    51IDQ   C31 1887   2.850   4.241   1.098  0.0086  0.0476  0.1165
    51IDQ   C32 1888   2.727   4.232   1.195 -1.1252  0.3290  0.0589
    51IDQ   C33 1889   2.587   4.212   1.131 -0.4910 -0.3569 -0.2277
    51IDQ   C34 1890   2.495   4.159   1.234  0.6183 -0.3874 -0.3320
    51IDQ   C35 1891   2.357   4.130   1.180 -0.1092  0.4507  0.7050
    4IDB    C36 1892   3.260   4.033   1.749  0.7262  0.0390  0.1011
    4IDB    C37 1893   3.309   4.157   1.798  0.7485  0.0792 -0.0231
    11RH    C38 1894   2.591   2.703   1.243  0.2029 -0.3215  0.4794
    4IDB    C39 1895   3.348   4.259   1.710  0.3781  0.1372 -0.1225
    62IDT   C40 1896   3.382   4.378   1.784  0.3286  0.0888  0.2733
    72IDQ   C41 1897   3.328   4.209   1.945 -0.6404  0.5085 -0.3122
    62IDT   C42 1898   3.373   4.356   1.919  0.6626  0.2040  0.3176
    72IDQ   C43 1899   3.456   4.126   2.009 -0.2119 -0.3964  0.2944
    72IDQ   C44 1900   3.199   4.165   2.029 -0.0842 -0.4116  0.8774
    62IDT    S5 1901   3.408   4.552   1.746 -0.0972  0.1041  0.0437
    62IDT   C45 1902   3.404   4.587   1.924  0.2141  0.2733  0.0185
    62IDT   C46 1903   3.385   4.474   1.999  0.5984  0.3085  0.1736
    82BTZ   C47 1904   3.412   4.724   1.979 -0.2494 -0.2659  0.6191
    82BTZ   C48 1905   3.366   4.820   1.893 -0.2472 -0.3885  0.4801
    82BTZ   C49 1906   3.405   4.958   1.905  0.0123 -0.4233  0.0819
    82BTZ   C50 1907   3.491   5.000   2.003  0.2693 -0.3353 -0.1766
    82BTZ   C51 1908   3.502   4.763   2.083  0.0144 -0.1704  0.3597
    82BTZ   C52 1909   3.542   4.903   2.096  0.2782 -0.2058 -0.0451
    92RH    C53 1910   3.518   5.141   2.034  0.1751  0.1164  0.1300
    82BTZ    N4 1911   3.554   4.679   2.173  0.0395 -0.0479  0.4608
    82BTZ    N5 1912   3.626   4.932   2.196  0.5153 -0.1116 -0.2692
    82BTZ    S6 1913   3.658   4.777   2.280  0.4093  0.0292  0.0339
    92RH    C54 1914   3.484   5.258   1.977  0.1144  0.0591  0.0481
    92RH     S7 1915   3.385   5.281   1.824  0.0766 -0.0993  0.0481
    92RH    C55 1916   3.523   5.390   2.032  0.0672  0.1178 -0.0587
    92RH     O2 1917   3.590   5.408   2.135  0.0779  0.2247 -0.0846
    92RH     N6 1918   3.473   5.495   1.953  0.0069  0.0362 -0.1297
    92RH    C56 1919   3.400   5.464   1.840  0.0001 -0.0805 -0.0929
    92RH    C57 1920   3.519   5.633   1.980  0.5011 -0.6664  0.3411
    92RH    C58 1921   3.430   5.715   2.072 -0.8202 -0.0430 -0.4226
    92RH     S8 1922   3.330   5.570   1.730 -0.0660 -0.1945 -0.1607
    72IDQ   C59 1923   3.053   4.209   1.984 -0.5088 -0.1062  0.4925
    72IDQ   C60 1924   2.935   4.141   2.044  0.1409 -0.0377  0.1424
    72IDQ   C61 1925   2.912   3.997   2.034 -0.0500  0.2154  0.5819
    72IDQ   C62 1926   2.914   3.935   1.889  0.1574  0.9648 -0.2005
    72IDQ   C63 1927   2.890   3.780   1.899 -0.1238 -0.8866  0.2998
    72IDQ   C64 1928   2.877   3.718   1.762 -0.1799  0.4114  0.2739
    72IDQ   C65 1929   2.866   3.561   1.770 -0.1106  0.4369  0.1072
    72IDQ   C66 1930   3.515   4.188   2.139 -0.4433  0.0374  0.2573
    72IDQ   C67 1931   3.632   4.104   2.202  0.0483 -0.5401 -0.0623
    72IDQ   C68 1932   3.665   4.143   2.347  0.4595 -0.4902  0.2215
    72IDQ   C69 1933   3.793   4.089   2.404 -0.0830 -0.1488  0.0461
    72IDQ   C70 1934   3.926   4.135   2.343 -0.4281  0.4397  0.0794
    72IDQ   C71 1935   4.035   4.031   2.362  0.5958 -0.5381 -0.0751
    72IDQ   C72 1936   4.173   4.058   2.296  0.8424 -0.3159  0.2681
    11RH     C1 1937   4.276   5.534   6.313  0.3011 -0.1073  0.0736
    11RH     C2 1938   4.218   5.628   6.412  0.1829 -0.1819  0.0759
    11RH     N1 1939   4.298   5.597   6.189  0.3789 -0.0334  0.1252
    11RH     S1 1940   4.198   5.793   6.336  0.1818 -0.1498  0.1461
    11RH     C3 1941   4.265   5.731   6.177  0.3376 -0.0395  0.1689
    11RH     C4 1942   4.365   5.522   6.074 -0.3210 -0.0530 -0.5966
    11RH     S2 1943   4.282   5.829   6.041  0.4119  0.0384  0.2342
    11RH     O1 1944   4.302   5.414   6.333  0.3303 -0.1079  0.0321
    11RH     C5 1945   4.188   5.593   6.538  0.0928 -0.2597  0.0327
    21BTZ    C6 1946   4.135   5.661   6.658 -0.0407  0.0574  0.1418
    21BTZ    C7 1947   4.119   5.797   6.668  0.1774  0.0732  0.2883
    21BTZ    C8 1948   4.119   5.581   6.776 -0.0887 -0.0342  0.0724
    21BTZ    C9 1949   4.086   5.860   6.794  0.3583  0.0002  0.3735
    21BTZ   C10 1950   4.069   5.787   6.909  0.3208 -0.0884  0.3121
    21BTZ   C11 1951   4.085   5.645   6.903  0.0952 -0.1084  0.1591
    21BTZ    N2 1952   4.132   5.448   6.778 -0.2941 -0.0579 -0.0693
    21BTZ    N3 1953   4.071   5.563   7.008  0.0377 -0.1919  0.0869
    21BTZ    S3 1954   4.101   5.398   6.947 -0.2603 -0.1789 -0.0987
    31IDT   C12 1955   4.025   5.859   7.029  0.1510  0.5827 -0.5758
    31IDT   C13 1956   4.035   5.816   7.159 -0.2061  0.1800 -0.6779
    31IDT   C14 1957   3.993   5.913   7.254 -0.5556 -0.1482 -0.4908
    31IDT   C15 1958   3.950   6.032   7.198 -0.4675  0.0019 -0.2455
    31IDT    S4 1959   3.960   6.029   7.018  0.0698  0.5757 -0.2322
    4IDB    C16 1960   3.915   6.126   7.300  0.2512 -0.4033  0.1661
    4IDB    C17 1961   3.942   6.069   7.428  0.0284 -0.3333  0.2462
    51IDQ   C18 1962   3.998   5.921   7.410 -0.1871 -0.1002  0.3914
    4IDB    C19 1963   3.921   6.141   7.544  0.0071 -0.2016  0.1610
    51IDQ   C20 1964   4.149   5.918   7.468  0.2756  0.5167 -0.2035
    51IDQ   C21 1965   3.919   5.802   7.472  0.4541  0.0307  0.1980
    51IDQ   C22 1966   3.782   5.819   7.546 -0.7469 -0.0018 -0.3328
    51IDQ   C23 1967   4.279   5.921   7.383 -0.1453  0.3257  0.7269
    51IDQ   C24 1968   3.662   5.858   7.468  0.3133  0.5757 -0.1086
    51IDQ   C25 1969   3.529   5.841   7.546 -0.3279  0.0044  0.7425
    51IDQ   C26 1970   3.502   5.936   7.666  0.2430 -0.8244  0.4691
    51IDQ   C27 1971   3.531   6.083   7.644  0.6214 -0.6417 -0.2556
    51IDQ   C28 1972   3.464   6.165   7.758 -0.0124  0.1059 -0.5291
    51IDQ   C29 1973   3.460   6.315   7.746  0.0654 -0.4942 -0.4685
    51IDQ   C30 1974   4.407   5.917   7.466 -0.8465  0.2073 -0.0131
    51IDQ   C31 1975   4.536   5.893   7.384  0.2086  0.4177 -0.4706
    51IDQ   C32 1976   4.538   5.743   7.355  0.5941  0.1547  0.2472
    51IDQ   C33 1977   4.673   5.698   7.310  0.3104  0.7844 -0.3698
    51IDQ   C34 1978   4.673   5.553   7.258 -0.7486 -0.0827  0.0545
    51IDQ   C35 1979   4.800   5.519   7.174  0.4184  0.0007 -0.3600
    4IDB    C36 1980   3.866   6.257   7.288  0.4555 -0.3414 -0.0006
    4IDB    C37 1981   3.845   6.330   7.408  0.4304 -0.2067 -0.0856
    11RH    C38 1982   4.522   5.544   6.067  0.3289 -0.1101 -0.0005
    4IDB    C39 1983   3.873   6.272   7.533  0.2113 -0.1397 -0.0057
    62IDT   C40 1984   3.847   6.363   7.637  0.1357 -0.1323 -0.0820
    72IDQ   C41 1985   3.811   6.484   7.427  0.5234  0.5452 -0.0516
    62IDT   C42 1986   3.806   6.484   7.585  0.7019  0.0682 -0.0782
    72IDQ   C43 1987   3.683   6.549   7.365 -0.2153 -0.5484  0.6286
    72IDQ   C44 1988   3.942   6.567   7.400  0.0799 -0.4419 -0.0970
    62IDT    S5 1989   3.852   6.366   7.817 -0.3288 -0.3266 -0.0629
    62IDT   C45 1990   3.795   6.539   7.811  0.2975 -0.1162 -0.0500
    62IDT   C46 1991   3.776   6.583   7.683  0.7942  0.0774 -0.0601
    82BTZ   C47 1992   3.773   6.616   7.942 -0.1892 -0.0916  0.0203
    82BTZ   C48 1993   3.663   6.697   7.954 -0.1476 -0.0381  0.0390
    82BTZ   C49 1994   3.634   6.766   8.077 -0.0384  0.0552  0.0130
    82BTZ   C50 1995   3.714   6.754   8.187  0.0290  0.0950 -0.0316
    82BTZ   C51 1996   3.860   6.600   8.054 -0.1218 -0.0529 -0.0262
    82BTZ   C52 1997   3.830   6.670   8.179 -0.0108  0.0418 -0.0526
    92RH    C53 1998   3.685   6.813   8.313  0.2299  0.1338 -0.1890
    82BTZ    N4 1999   3.970   6.524   8.054 -0.1531 -0.0982 -0.0481
    82BTZ    N5 2000   3.916   6.651   8.280  0.0471  0.0729 -0.0957
    82BTZ    S6 2001   4.041   6.539   8.218 -0.0396 -0.0198 -0.1046
    92RH    C54 2002   3.584   6.890   8.354  0.2368  0.0809 -0.0721
    92RH     S7 2003   3.436   6.939   8.257  0.1249  0.0487  0.0803
    92RH    C55 2004   3.576   6.949   8.490  0.3400  0.0390 -0.0478
    92RH     O2 2005   3.660   6.935   8.580  0.4305  0.0476 -0.1310
    92RH     N6 2006   3.459   7.026   8.506  0.3235 -0.0134  0.0841
    92RH    C56 2007   3.372   7.036   8.400  0.2198 -0.0186  0.1687
    92RH    C57 2008   3.446   7.115   8.623  0.0542 -0.1731  0.0999
    92RH    C58 2009   3.371   7.063   8.746  0.2526 -0.0364 -0.0896
    92RH     S8 2010   3.226   7.121   8.394  0.1788 -0.0760  0.3294
    72IDQ   C59 2011   3.973   6.632   7.263  0.2669  0.2712 -0.4664
    72IDQ   C60 2012   4.005   6.557   7.133  0.3177  0.4748 -0.1389
    72IDQ   C61 2013   4.031   6.649   7.013  0.3079  0.4425 -0.7553
    72IDQ   C62 2014   3.892   6.686   6.969 -0.4338 -0.1129  1.2545
    72IDQ   C63 2015   3.902   6.777   6.848  0.1051 -0.5286  0.2557
    72IDQ   C64 2016   3.771   6.822   6.782 -1.0589  0.0067  0.1296
    72IDQ   C65 2017   3.780   6.921   6.661  0.5686  0.2301 -0.5738
    72IDQ   C66 2018   3.563   6.463   7.329 -1.0231  0.2391 -0.2460
    72IDQ   C67 2019   3.442   6.542   7.306  0.2672 -0.1554 -0.4849
    72IDQ   C68 2020   3.422   6.605   7.169  0.4539 -0.3621  0.2493
    72IDQ   C69 2021   3.279   6.644   7.142  0.5257 -0.2651 -0.1551
    72IDQ   C70 2022   3.238   6.726   7.014  0.4690  0.4013  0.0729
    72IDQ   C71 2023   3.086   6.721   6.989 -0.0108  0.1435  0.7869
    72IDQ   C72 2024   3.070   6.755   6.837  0.3871  0.3044  0.0677
    11RH     C1 2025   0.954   2.541   0.244  0.2555  0.1640 -0.0966
    11RH     C2 2026   0.954   2.675   0.307  0.1896  0.1441 -0.0532
    11RH     N1 2027   1.085   2.500   0.209  0.2604  0.2955 -0.2315
    11RH     S1 2028   1.126   2.740   0.315  0.1385  0.2995 -0.1924
    11RH     C3 2029   1.189   2.586   0.235  0.2065  0.3833 -0.3013
    11RH     C4 2030   1.102   2.366   0.141  0.1637  0.0084 -0.6653
    11RH     S2 2031   1.353   2.561   0.203  0.1995  0.5444 -0.4618
    11RH     O1 2032   0.854   2.471   0.225  0.3014  0.0779 -0.0258
    11RH     C5 2033   0.844   2.737   0.349  0.1722  0.0285  0.0701
    21BTZ    C6 2034   0.817   2.868   0.413  0.1199  0.1188 -0.1032
    21BTZ    C7 2035   0.914   2.956   0.453  0.1121  0.1051 -0.0530
    21BTZ    C8 2036   0.680   2.898   0.442  0.1219  0.0613 -0.0319
    21BTZ    C9 2037   0.881   3.078   0.522  0.1059  0.0345  0.0688
    21BTZ   C10 2038   0.752   3.112   0.552  0.1075 -0.0221  0.1404
    21BTZ   C11 2039   0.647   3.023   0.513  0.1156 -0.0104  0.0920
    21BTZ    N2 2040   0.576   2.820   0.409  0.1293  0.0679 -0.0706
    21BTZ    N3 2041   0.517   3.045   0.536  0.1179 -0.0613  0.1528
    21BTZ    S3 2042   0.430   2.904   0.468  0.1284 -0.0189  0.0522
    31IDT   C12 2043   0.728   3.230   0.640 -0.0772  0.2631 -0.2182
    31IDT   C13 2044   0.658   3.345   0.613  0.2311  0.4961 -0.0399
    31IDT   C14 2045   0.662   3.438   0.721  0.5336  0.3445  0.0838
    31IDT   C15 2046   0.735   3.396   0.830  0.4582 -0.0044  0.0008
    31IDT    S4 2047   0.805   3.232   0.805 -0.0061 -0.1694 -0.2426
    4IDB    C16 2048   0.719   3.490   0.941 -0.2558 -0.0187 -0.1685
    4IDB    C17 2049   0.632   3.597   0.902  0.0860  0.3043 -0.0581
    51IDQ   C18 2050   0.596   3.573   0.750  0.9100 -0.6143  0.3148
    4IDB    C19 2051   0.595   3.695   0.993  0.3269  0.2770  0.0713
    51IDQ   C20 2052   0.442   3.582   0.751  0.2418  0.0541  0.0212
    51IDQ   C21 2053   0.646   3.686   0.657  0.8922  0.4037  0.0118
    51IDQ   C22 2054   0.726   3.809   0.696 -0.2684  0.8218  0.0294
    51IDQ   C23 2055   0.341   3.471   0.721 -0.1154  0.0988  0.1144
    51IDQ   C24 2056   0.779   3.892   0.580 -0.0815  0.6582  0.2396
    51IDQ   C25 2057   0.847   4.025   0.631 -0.4914  0.4329 -0.1405
    51IDQ   C26 2058   0.892   4.122   0.524  0.6556  0.0280  0.0793
    51IDQ   C27 2059   0.987   4.080   0.410 -0.3059  0.0483 -0.7069
    51IDQ   C28 2060   1.015   4.200   0.317  0.0461 -0.6448 -0.4380
    51IDQ   C29 2061   1.113   4.169   0.204  0.5237 -0.5464 -0.6296
    51IDQ   C30 2062   0.194   3.506   0.747  0.1078 -0.3221  0.4533
    51IDQ   C31 2063   0.148   3.603   0.635  0.0404 -0.6022 -1.0431
    51IDQ   C32 2064   0.011   3.665   0.647  0.0684  0.1281  0.1805
    51IDQ   C33 2065   0.038   3.792   0.722 -0.4544  0.4332  0.3021
    51IDQ   C34 2066  -0.077   3.889   0.707  0.0628  0.1900 -0.3834
    51IDQ   C35 2067  -0.051   4.023   0.770 -0.3938 -0.0201  0.0287
    4IDB    C36 2068   0.770   3.481   1.071 -0.3590 -0.3730 -0.1498
    4IDB    C37 2069   0.731   3.583   1.163 -0.1094 -0.3956 -0.0169
    11RH    C38 2070   1.102   2.383  -0.006 -0.1561 -0.0969  0.2861
    4IDB    C39 2071   0.646   3.686   1.124  0.2236 -0.0774  0.0899
    62IDT   C40 2072   0.602   3.763   1.238 -0.1790  0.0781 -0.1219
    72IDQ   C41 2073   0.757   3.591   1.309  0.3272 -0.6345 -0.7077
    62IDT   C42 2074   0.661   3.706   1.349 -0.6174 -0.3395 -0.0930
    72IDQ   C43 2075   0.912   3.639   1.345  0.1220  0.2819  0.0989
    72IDQ   C44 2076   0.713   3.462   1.387 -0.1382  0.1746 -0.1344
    62IDT    S5 2077   0.490   3.896   1.282 -0.0196  0.2046 -0.0986
    62IDT   C45 2078   0.532   3.867   1.457 -0.5814 -0.3403 -0.0488
    62IDT   C46 2079   0.622   3.765   1.473 -0.8455 -0.5767 -0.0517
    82BTZ   C47 2080   0.470   3.945   1.560 -0.1408 -0.1947  0.0742
    82BTZ   C48 2081   0.421   3.881   1.671 -0.0656 -0.0939  0.1657
    82BTZ   C49 2082   0.365   3.955   1.781  0.0591  0.0093  0.1611
    82BTZ   C50 2083   0.358   4.091   1.781  0.1085  0.0118  0.0651
    82BTZ   C51 2084   0.465   4.088   1.554 -0.0933 -0.1967 -0.0282
    82BTZ   C52 2085   0.408   4.163   1.667  0.0334 -0.0917 -0.0328
    92RH    C53 2086   0.306   4.170   1.886 -0.2079  0.1126 -0.0994
    82BTZ    N4 2087   0.510   4.161   1.452 -0.1576 -0.2896 -0.1228
    82BTZ    N5 2088   0.407   4.296   1.655  0.0710 -0.1003 -0.1312
    82BTZ    S6 2089   0.480   4.332   1.496 -0.0566 -0.2457 -0.2239
    92RH    C54 2090   0.262   4.140   2.009 -0.1462  0.1001 -0.0805
    92RH     S7 2091   0.239   3.972   2.079 -0.0919  0.0932 -0.0789
    92RH    C55 2092   0.226   4.242   2.110 -0.1114  0.0896 -0.0573
    92RH     O2 2093   0.230   4.365   2.094 -0.1347  0.0912 -0.0527
    92RH     N6 2094   0.183   4.182   2.231 -0.0469  0.0775 -0.0406
    92RH    C56 2095   0.181   4.044   2.238 -0.0258  0.0769 -0.0477
    92RH    C57 2096   0.128   4.260   2.342 -0.4264  0.4062 -0.3391
    92RH    C58 2097  -0.015   4.319   2.336 -0.0125 -0.1010 -0.2423
    92RH     S8 2098   0.136   3.948   2.369  0.0481  0.0636 -0.0314
    72IDQ   C59 2099   0.724   3.463   1.539 -0.2013 -0.1131  0.2393
    72IDQ   C60 2100   0.715   3.321   1.584 -0.3882  0.3707 -1.1016
    72IDQ   C61 2101   0.755   3.326   1.729  0.7048  0.3733 -0.4903
    72IDQ   C62 2102   0.774   3.196   1.806  0.8671 -0.1834  0.0092
    72IDQ   C63 2103   0.651   3.110   1.839 -0.0901  0.3493 -1.1947
    72IDQ   C64 2104   0.686   2.999   1.934 -0.2712 -0.1217  0.9507
    72IDQ   C65 2105   0.561   2.945   1.997  0.5506 -0.1584  0.3369
    72IDQ   C66 2106   1.029   3.555   1.308 -0.8133 -0.1061  0.4818
    72IDQ   C67 2107   1.154   3.619   1.355 -0.1322 -0.0056 -0.7244
    72IDQ   C68 2108   1.263   3.528   1.304 -0.3002 -0.8356 -0.3082
    72IDQ   C69 2109   1.399   3.592   1.342  0.4403 -0.0383  0.0766
    72IDQ   C70 2110   1.505   3.506   1.280 -0.2991 -0.6486  0.1729
    72IDQ   C71 2111   1.644   3.574   1.276  0.0494  0.0810  0.3679
    72IDQ   C72 2112   1.734   3.465   1.223 -1.2488  0.4033  0.5984
    11RH     C1 2113   5.829   1.806   2.843  0.1082  0.1288  0.4376
    11RH     C2 2114   5.977   1.810   2.832  0.0998 -0.0775  0.2264
    11RH     N1 2115   5.769   1.909   2.768  0.1407  0.1449  0.4338
    11RH     S1 2116   6.028   1.949   2.724  0.1349 -0.2370  0.0367
    11RH     C3 2117   5.851   1.995   2.698  0.1590 -0.0233  0.2455
    11RH     C4 2118   5.620   1.928   2.780  0.0727  0.2047  0.0764
    11RH     S2 2119   5.805   2.126   2.602  0.1979 -0.0442  0.1988
    11RH     O1 2120   5.764   1.723   2.909  0.0899  0.2721  0.5998
    11RH     C5 2121   6.058   1.723   2.894  0.0705 -0.1329  0.1869
    21BTZ    C6 2122   6.202   1.694   2.896  0.1453  0.0769 -0.0187
    21BTZ    C7 2123   6.295   1.752   2.816  0.2236 -0.0085  0.0101
    21BTZ    C8 2124   6.245   1.597   2.993  0.0345  0.0792  0.0335
    21BTZ    C9 2125   6.435   1.719   2.825  0.1976 -0.0952  0.0911
    21BTZ   C10 2126   6.481   1.627   2.916  0.0932 -0.0966  0.1431
    21BTZ   C11 2127   6.387   1.563   3.003  0.0080 -0.0090  0.1158
    21BTZ    N2 2128   6.163   1.533   3.077 -0.0488  0.1579  0.0125
    21BTZ    N3 2129   6.420   1.472   3.095 -0.0966 -0.0012  0.1608
    21BTZ    S3 2130   6.267   1.424   3.175 -0.1673  0.1218  0.0986
    31IDT   C12 2131   6.625   1.593   2.914  0.3134  0.4095  0.1807
    31IDT   C13 2132   6.708   1.560   3.018  0.4923  0.8487  0.1822
    31IDT   C14 2133   6.845   1.548   2.979  0.4059  0.5444 -0.0321
    31IDT   C15 2134   6.868   1.571   2.845  0.1610 -0.1270 -0.1980
    31IDT    S4 2135   6.716   1.611   2.757  0.0197 -0.4288 -0.0946
    4IDB    C16 2136   7.009   1.573   2.821 -0.1030  0.2192 -0.2207
    4IDB    C17 2137   7.077   1.533   2.940 -0.0953 -0.0847 -0.3257
    51IDQ   C18 2138   6.975   1.520   3.054  0.3412 -0.3989 -0.2329
    4IDB    C19 2139   7.215   1.519   2.942 -0.1006 -0.1460 -0.3856
    51IDQ   C20 2140   6.996   1.378   3.107  0.0838  0.3909 -0.8403
    51IDQ   C21 2141   6.991   1.624   3.178  0.0212 -0.3488 -0.0780
    51IDQ   C22 2142   7.099   1.740   3.177 -0.3269 -0.3170  0.1477
    51IDQ   C23 2143   6.899   1.261   3.086 -0.2648  0.4594 -0.0129
    51IDQ   C24 2144   7.122   1.822   3.301 -0.2404  0.1169  0.6551
    51IDQ   C25 2145   7.009   1.919   3.349 -0.5174  0.2387  0.0384
    51IDQ   C26 2146   7.031   1.990   3.478  1.0157  0.0252 -0.0869
    51IDQ   C27 2147   7.092   2.132   3.469  0.4247  0.2330 -0.5889
    51IDQ   C28 2148   7.113   2.202   3.599  0.9889  0.4666 -0.0485
    51IDQ   C29 2149   7.178   2.331   3.593  0.4598 -0.7522 -0.2810
    51IDQ   C30 2150   6.946   1.125   3.139  0.0684  0.2144  0.1407
    51IDQ   C31 2151   7.035   1.049   3.041  0.4070  0.0830 -1.2546
    51IDQ   C32 2152   7.041   0.901   3.077  0.0848 -0.0966  0.4134
    51IDQ   C33 2153   7.161   0.834   3.137  0.0658 -0.7459 -0.3312
    51IDQ   C34 2154   7.125   0.687   3.154 -0.5287  0.7850  0.2653
    51IDQ   C35 2155   7.237   0.610   3.218 -0.0097  0.3443 -0.7716
    4IDB    C36 2156   7.079   1.599   2.703 -0.1161  0.4650 -0.1748
    4IDB    C37 2157   7.220   1.584   2.707 -0.1214  0.3981 -0.2373
    11RH    C38 2158   5.563   2.050   2.862 -0.1388  0.2049 -0.1957
    4IDB    C39 2159   7.286   1.545   2.824 -0.1138  0.0999 -0.3397
    62IDT   C40 2160   7.428   1.550   2.807  0.0625  0.0730  0.0038
    72IDQ   C41 2161   7.327   1.630   2.607  0.2040 -0.2471 -0.2125
    62IDT   C42 2162   7.454   1.591   2.678 -0.0486  0.1993  0.0212
    72IDQ   C43 2163   7.320   1.789   2.579  0.2639  0.3903  0.4754
    72IDQ   C44 2164   7.308   1.555   2.463 -0.4737 -1.2154  0.2394
    62IDT    S5 2165   7.578   1.507   2.896  0.1258 -0.1846 -0.2226
    62IDT   C45 2166   7.673   1.550   2.747 -0.0077 -0.1039 -0.2849
    62IDT   C46 2167   7.593   1.591   2.644 -0.0885  0.0995 -0.1420
    82BTZ   C47 2168   7.823   1.550   2.746  0.1990  0.0980  0.0510
    82BTZ   C48 2169   7.882   1.503   2.860  0.2214  0.2234  0.0910
    82BTZ   C49 2170   8.025   1.512   2.880  0.2139  0.3361  0.0972
    82BTZ   C50 2171   8.107   1.567   2.786  0.1841  0.3234  0.0634
    82BTZ   C51 2172   7.905   1.609   2.645  0.1675  0.0795  0.0147
    82BTZ   C52 2173   8.050   1.618   2.665  0.1599  0.1941  0.0209
    92RH    C53 2174   8.255   1.561   2.788 -0.0000  0.4154  0.2630
    82BTZ    N4 2175   7.859   1.658   2.529  0.1437 -0.0376 -0.0258
    82BTZ    N5 2176   8.120   1.674   2.566  0.1300  0.1691 -0.0145
    82BTZ    S6 2177   8.002   1.718   2.440  0.1099 -0.0056 -0.0583
    92RH    C54 2178   8.345   1.513   2.874  0.0270  0.1780  0.1040
    92RH     S7 2179   8.311   1.441   3.040  0.0798 -0.2619 -0.0739
    92RH    C55 2180   8.491   1.510   2.848  0.0177  0.2389  0.0461
    92RH     O2 2181   8.547   1.552   2.745 -0.0154  0.5109  0.1361
    92RH     N6 2182   8.562   1.454   2.956  0.0517 -0.0553 -0.1275
    92RH    C56 2183   8.491   1.411   3.066  0.0871 -0.3443 -0.2159
    92RH    C57 2184   8.713   1.437   2.937  0.2637 -0.4548 -0.3200
    92RH    C58 2185   8.739   1.302   2.873 -0.2907 -0.0485  0.3635
    92RH     S8 2186   8.551   1.341   3.207  0.1316 -0.7254 -0.4222
    72IDQ   C59 2187   7.345   1.405   2.451  0.4936  0.2148 -0.4876
    72IDQ   C60 2188   7.269   1.299   2.541 -0.5128 -0.1008 -0.2123
    72IDQ   C61 2189   7.119   1.283   2.518  0.0064 -0.3725  0.5217
    72IDQ   C62 2190   7.043   1.207   2.624 -0.2699 -0.2746 -0.4257
    72IDQ   C63 2191   6.895   1.190   2.609  0.1441 -0.1207 -0.2417
    72IDQ   C64 2192   6.797   1.302   2.612 -0.7200 -0.0090  0.0059
    72IDQ   C65 2193   6.683   1.264   2.515 -0.3268 -0.0583 -0.3227
    72IDQ   C66 2194   7.374   1.892   2.668 -0.5752 -0.6147 -0.3746
    72IDQ   C67 2195   7.322   2.036   2.652 -0.3874 -0.1419 -0.4593
    72IDQ   C68 2196   7.177   2.066   2.703 -0.1500 -0.0957  0.3751
    72IDQ   C69 2197   7.144   2.037   2.850 -0.1157  0.1669 -0.2507
    72IDQ   C70 2198   7.175   2.136   2.966 -0.9591  0.1909  0.3858
    72IDQ   C71 2199   7.320   2.162   3.003  0.5234  0.1461 -0.4024
    72IDQ   C72 2200   7.326   2.196   3.150  0.4953  0.6426  0.2684
    11RH     C1 2201   3.930   1.332   2.410  0.1006 -0.0985 -0.2722
    11RH     C2 2202   3.790   1.289   2.387  0.0352  0.0568 -0.1603
    11RH     N1 2203   3.967   1.317   2.545  0.2002 -0.1630 -0.3066
    11RH     S1 2204   3.716   1.233   2.546  0.1089  0.1078 -0.1074
    11RH     C3 2205   3.874   1.267   2.634  0.2226 -0.0784 -0.2358
    11RH     C4 2206   4.106   1.347   2.592 -0.1289 -0.0457 -0.5056
    11RH     S2 2207   3.893   1.240   2.799  0.3344 -0.1286 -0.2565
    11RH     O1 2208   4.007   1.375   2.323  0.0734 -0.1660 -0.3303
    11RH     C5 2209   3.730   1.293   2.268 -0.0626  0.1429 -0.1085
    21BTZ    C6 2210   3.596   1.264   2.230  0.1655  0.1592  0.1433
    21BTZ    C7 2211   3.499   1.218   2.315  0.2156  0.2080  0.2276
    21BTZ    C8 2212   3.562   1.286   2.092  0.1020  0.0159  0.1361
    21BTZ    C9 2213   3.365   1.190   2.269  0.2059  0.1192  0.3087
    21BTZ   C10 2214   3.328   1.209   2.138  0.1461 -0.0182  0.3052
    21BTZ   C11 2215   3.426   1.258   2.046  0.0921 -0.0743  0.2184
    21BTZ    N2 2216   3.648   1.330   2.000  0.0495 -0.0437  0.0577
    21BTZ    N3 2217   3.403   1.280   1.916  0.0316 -0.2064  0.2063
    21BTZ    S3 2218   3.557   1.339   1.847 -0.0163 -0.2214  0.0866
    31IDT   C12 2219   3.189   1.178   2.101 -0.4141 -0.1052 -0.2572
    31IDT   C13 2220   3.132   1.169   1.976 -0.6848 -0.2676 -0.1246
    31IDT   C14 2221   2.998   1.119   1.979 -0.5832 -0.5243  0.2038
    31IDT   C15 2222   2.952   1.089   2.106 -0.2352 -0.5592  0.3235
    31IDT    S4 2223   3.076   1.121   2.232 -0.0071 -0.2670  0.0269
    4IDB    C16 2224   2.819   1.035   2.099  0.4350 -0.1480  0.2320
    4IDB    C17 2225   2.773   1.044   1.964  0.5547  0.0634  0.2046
    51IDQ   C18 2226   2.881   1.106   1.884 -0.1564 -0.0576  0.0821
    4IDB    C19 2227   2.651   0.989   1.927  0.5570  0.1811  0.0243
    51IDQ   C20 2228   2.906   1.039   1.747  0.2006 -0.5526 -0.1474
    51IDQ   C21 2229   2.851   1.258   1.827  0.2892  1.2315  0.1922
    51IDQ   C22 2230   2.730   1.345   1.885 -0.0079 -0.5259 -0.5989
    51IDQ   C23 2231   3.044   0.987   1.695  0.1348  0.0589 -0.1799
    51IDQ   C24 2232   2.750   1.419   2.021 -0.0808  0.1837  0.3115
    51IDQ   C25 2233   2.891   1.473   2.053  0.0592  0.4815 -0.3895
    51IDQ   C26 2234   2.923   1.532   2.193 -0.1340  0.3438  0.0165
    51IDQ   C27 2235   2.877   1.442   2.315 -0.2529 -0.0637  0.5589
    51IDQ   C28 2236   2.918   1.478   2.463 -0.2258 -0.5054  0.9985
    51IDQ   C29 2237   2.887   1.621   2.515  0.3409 -0.0602 -0.2221
    51IDQ   C30 2238   3.105   0.872   1.774  0.2460 -0.4382 -0.2904
    51IDQ   C31 2239   3.253   0.843   1.770 -0.2409 -0.2338 -0.2479
    51IDQ   C32 2240   3.346   0.966   1.794 -0.6481  0.5955 -0.2462
    51IDQ   C33 2241   3.493   0.934   1.769 -0.8317  0.6357 -0.1057
    51IDQ   C34 2242   3.567   0.842   1.874  0.7780  0.0839  0.3628
    51IDQ   C35 2243   3.706   0.787   1.829  0.3929  0.4468  0.0724
    4IDB    C36 2244   2.742   0.971   2.198  0.3161 -0.2434  0.0781
    4IDB    C37 2245   2.618   0.915   2.157  0.3203 -0.1206 -0.1052
    11RH    C38 2246   4.197   1.224   2.590  0.0459  0.1486 -0.6079
    4IDB    C39 2247   2.574   0.925   2.025  0.4381  0.0858 -0.1297
    62IDT   C40 2248   2.444   0.860   2.008 -0.3903  0.0636  0.0548
    72IDQ   C41 2249   2.514   0.827   2.233 -0.2742  0.0872  0.2734
    62IDT   C42 2250   2.410   0.794   2.124 -0.5094 -0.0227 -0.0281
    72IDQ   C43 2251   2.431   0.898   2.351  0.3199  0.5601  0.0745
    72IDQ   C44 2252   2.580   0.691   2.289  0.3498 -0.0678 -0.1409
    62IDT    S5 2253   2.334   0.819   1.872 -0.0529 -0.0916 -0.1761
    62IDT   C45 2254   2.243   0.709   1.986 -0.0925 -0.2737 -0.3826
    62IDT   C46 2255   2.297   0.709   2.112 -0.3411 -0.2135 -0.2755
    82BTZ   C47 2256   2.136   0.618   1.937  0.1050 -0.2551 -0.2457
    82BTZ   C48 2257   2.119   0.605   1.801  0.0080 -0.1583 -0.2427
    82BTZ   C49 2258   2.010   0.530   1.745 -0.1740  0.0847 -0.2205
    82BTZ   C50 2259   1.918   0.466   1.824 -0.2587  0.2305 -0.2015
    82BTZ   C51 2260   2.042   0.553   2.024  0.0224 -0.1097 -0.2263
    82BTZ   C52 2261   1.931   0.476   1.966 -0.1627  0.1373 -0.2037
    92RH    C53 2262   1.814   0.383   1.764 -0.1327  0.0997 -0.1099
    82BTZ    N4 2263   2.048   0.558   2.157  0.1029 -0.1838 -0.2271
    82BTZ    N5 2264   1.848   0.419   2.054 -0.2307  0.2617 -0.1864
    82BTZ    S6 2265   1.909   0.462   2.216 -0.0575  0.0642 -0.1984
    92RH    C54 2266   1.783   0.346   1.639 -0.0930  0.0507 -0.1054
    92RH     S7 2267   1.893   0.351   1.492  0.0315 -0.2418 -0.0229
    92RH    C55 2268   1.650   0.294   1.599 -0.1459  0.2331 -0.1689
    92RH     O2 2269   1.553   0.278   1.675 -0.2315  0.4484 -0.2326
    92RH     N6 2270   1.645   0.263   1.462 -0.0864  0.1319 -0.1485
    92RH    C56 2271   1.758   0.284   1.386  0.0077 -0.1092 -0.0763
    92RH    C57 2272   1.510   0.230   1.398 -0.6678 -0.2242 -0.3405
    92RH    C58 2273   1.481   0.082   1.377 -0.1148  0.7982  0.0039
    92RH     S8 2274   1.779   0.256   1.221  0.0928 -0.2724 -0.0380
    72IDQ   C59 2275   2.648   0.590   2.196 -0.0266  0.9913  0.2187
    72IDQ   C60 2276   2.766   0.509   2.259 -1.1892 -0.2776  0.1636
    72IDQ   C61 2277   2.876   0.579   2.339 -0.5567 -0.4567 -0.2252
    72IDQ   C62 2278   2.981   0.649   2.247  0.3491  0.0780 -0.8496
    72IDQ   C63 2279   3.107   0.714   2.308 -0.6589  0.6236 -0.1287
    72IDQ   C64 2280   3.188   0.786   2.196 -0.5734 -0.1061 -0.2164
    72IDQ   C65 2281   3.314   0.841   2.249 -0.2038  0.1226  0.2077
    72IDQ   C66 2282   2.498   0.981   2.459 -0.4709 -0.1393  0.4029
    72IDQ   C67 2283   2.393   1.063   2.533  0.3447 -0.2193 -0.0849
    72IDQ   C68 2284   2.436   1.153   2.651 -0.0005  0.6198 -0.0510
    72IDQ   C69 2285   2.498   1.083   2.775 -0.7091  0.4965  0.3308
    72IDQ   C70 2286   2.455   0.948   2.836  0.4387 -0.6023 -0.8078
    72IDQ   C71 2287   2.490   0.950   2.983 -0.0676 -0.2412  0.1042
    72IDQ   C72 2288   2.462   0.815   3.047  0.2474  0.0896 -0.5519
    11RH     C1 2289   5.140   0.559   5.525 -0.0035  0.0228 -0.1373
    11RH     C2 2290   5.107   0.687   5.592  0.0035  0.0294 -0.1466
    11RH     N1 2291   5.258   0.570   5.447  0.0572 -0.0184 -0.0524
    11RH     S1 2292   5.233   0.814   5.548  0.0893 -0.0189 -0.0429
    11RH     C3 2293   5.323   0.691   5.443  0.1118 -0.0456  0.0076
    11RH     C4 2294   5.294   0.457   5.362 -0.3445  0.0159 -0.3464
    11RH     S2 2295   5.463   0.730   5.359  0.1893 -0.0959  0.1125
    11RH     O1 2296   5.075   0.453   5.535 -0.0553  0.0495 -0.1957
    11RH     C5 2297   5.001   0.704   5.671 -0.0466  0.0657 -0.2207
    21BTZ    C6 2298   4.961   0.816   5.760 -0.1610 -0.1426  0.0573
    21BTZ    C7 2299   5.032   0.932   5.774 -0.0372 -0.2092 -0.0175
    21BTZ    C8 2300   4.836   0.804   5.828 -0.1550  0.0192  0.0983
    21BTZ    C9 2301   4.984   1.042   5.855  0.0979 -0.1209 -0.0558
    21BTZ   C10 2302   4.865   1.034   5.922  0.1089  0.0339 -0.0190
    21BTZ   C11 2303   4.787   0.915   5.911 -0.0178  0.1090  0.0594
    21BTZ    N2 2304   4.757   0.696   5.822 -0.2683  0.0970  0.1714
    21BTZ    N3 2305   4.669   0.896   5.971 -0.0209  0.2590  0.1012
    21BTZ    S3 2306   4.615   0.732   5.924 -0.2029  0.2925  0.1940
    31IDT   C12 2307   4.817   1.153   5.991  0.1793 -0.5220  0.2653
    31IDT   C13 2308   4.734   1.160   6.100  0.2501 -0.6282  0.3256
    31IDT   C14 2309   4.724   1.292   6.155 -0.0416 -0.6005  0.2074
    31IDT   C15 2310   4.798   1.386   6.087 -0.3360 -0.4734  0.0568
    31IDT    S4 2311   4.888   1.315   5.949 -0.2660 -0.3779  0.0528
    4IDB    C16 2312   4.799   1.514   6.166  0.0455 -0.0947  0.3837
    4IDB    C17 2313   4.699   1.499   6.268  0.1097  0.0628  0.4714
    51IDQ   C18 2314   4.643   1.358   6.270 -0.5237 -0.3714  0.4776
    4IDB    C19 2315   4.667   1.604   6.353  0.1876  0.1857  0.3503
    51IDQ   C20 2316   4.677   1.304   6.418  0.5705 -0.6986 -0.3446
    51IDQ   C21 2317   4.490   1.331   6.250 -0.4542 -0.4630  0.2348
    51IDQ   C22 2318   4.397   1.445   6.223  0.1157 -0.1046  0.2595
    51IDQ   C23 2319   4.772   1.194   6.458 -0.0249  0.2880 -0.0998
    51IDQ   C24 2320   4.257   1.397   6.202  0.5116  0.7204  0.2542
    51IDQ   C25 2321   4.153   1.500   6.152 -0.0890  0.3209  0.0874
    51IDQ   C26 2322   4.013   1.449   6.180  0.2275  0.0606 -0.4253
    51IDQ   C27 2323   3.905   1.549   6.148 -0.2549 -0.1638  0.2164
    51IDQ   C28 2324   3.766   1.495   6.161  0.1330 -0.2636 -0.0342
    51IDQ   C29 2325   3.665   1.605   6.174 -0.1712  0.1252 -0.1098
    51IDQ   C30 2326   4.787   1.169   6.606 -0.3089  0.1320 -0.2349
    51IDQ   C31 2327   4.746   1.031   6.664 -0.0301  0.5607  0.0855
    51IDQ   C32 2328   4.830   0.907   6.627  0.4545  0.0780  0.4102
    51IDQ   C33 2329   4.768   0.769   6.663  0.6068 -0.0505 -0.1396
    51IDQ   C34 2330   4.735   0.743   6.815  0.1258  0.1157 -0.0685
    51IDQ   C35 2331   4.667   0.612   6.835  0.2537 -0.1550 -0.3788
    4IDB    C36 2332   4.867   1.636   6.150  0.0589 -0.1303  0.1731
    4IDB    C37 2333   4.833   1.742   6.238  0.1391 -0.0031  0.0517
    11RH    C38 2334   5.245   0.471   5.220  0.1209  0.1077  0.1514
    4IDB    C39 2335   4.736   1.725   6.337  0.2011  0.1502  0.1396
    62IDT   C40 2336   4.706   1.848   6.400  0.0149 -0.3326  0.0888
    72IDQ   C41 2337   4.882   1.886   6.239 -0.0464 -0.1011 -0.3401
    62IDT   C42 2338   4.778   1.950   6.342 -0.3481 -0.2324 -0.1981
    72IDQ   C43 2339   4.871   1.962   6.099  0.7710 -0.0931  0.0930
    72IDQ   C44 2340   5.035   1.902   6.289  0.0807 -0.2401 -0.1869
    62IDT    S5 2341   4.610   1.906   6.541  0.2751 -0.4052  0.2955
    62IDT   C45 2342   4.677   2.073   6.512 -0.1407 -0.2907 -0.0329
    62IDT   C46 2343   4.763   2.077   6.405 -0.4363 -0.2086 -0.2673
    82BTZ   C47 2344   4.651   2.185   6.607 -0.0966  0.2330  0.1345
    82BTZ   C48 2345   4.599   2.152   6.729  0.0070  0.2905  0.1947
    82BTZ   C49 2346   4.573   2.252   6.831  0.0814  0.3397  0.1651
    82BTZ   C50 2347   4.600   2.384   6.809  0.0519  0.3315  0.0751
    82BTZ   C51 2348   4.681   2.323   6.580 -0.1314  0.2220  0.0393
    82BTZ   C52 2349   4.655   2.424   6.683 -0.0558  0.2721  0.0092
    92RH    C53 2350   4.589   2.489   6.909 -0.1156 -0.1299 -0.1142
    82BTZ    N4 2351   4.733   2.367   6.465 -0.2303  0.1680 -0.0260
    82BTZ    N5 2352   4.686   2.550   6.650 -0.0939  0.2583 -0.0802
    82BTZ    S6 2353   4.750   2.544   6.484 -0.2309  0.1792 -0.1307
    92RH    C54 2354   4.560   2.482   7.040 -0.0483 -0.1185 -0.0991
    92RH     S7 2355   4.538   2.330   7.139 -0.0621 -0.1093 -0.0881
    92RH    C55 2356   4.543   2.601   7.126  0.0505 -0.1115 -0.0886
    92RH     O2 2357   4.552   2.720   7.089  0.0826 -0.1152 -0.0925
    92RH     N6 2358   4.514   2.565   7.260  0.1059 -0.0999 -0.0732
    92RH    C56 2359   4.506   2.431   7.290  0.0635 -0.0966 -0.0702
    92RH    C57 2360   4.494   2.663   7.369 -0.6147 -0.4909 -0.3541
    92RH    C58 2361   4.352   2.714   7.398 -0.4550 -0.0526  0.1520
    92RH     S8 2362   4.473   2.361   7.440  0.1135 -0.0834 -0.0530
    72IDQ   C59 2363   5.084   1.820   6.409  0.9675 -0.2936  0.3982
    72IDQ   C60 2364   5.209   1.874   6.471 -0.6724 -0.7403  0.1934
    72IDQ   C61 2365   5.245   1.816   6.607  0.2575  0.3473 -0.0409
    72IDQ   C62 2366   5.333   1.689   6.617 -0.5330  0.3766  0.5339
    72IDQ   C63 2367   5.278   1.553   6.576  0.1941  0.2729  0.6531
    72IDQ   C64 2368   5.155   1.494   6.638  0.6431 -0.4621  0.4147
    72IDQ   C65 2369   5.125   1.367   6.566 -0.5527 -0.5075  0.0663
    72IDQ   C66 2370   4.926   2.105   6.093  0.8604  0.1251 -0.0773
    72IDQ   C67 2371   4.882   2.172   5.965 -0.2837  0.3476 -0.0298
    72IDQ   C68 2372   5.001   2.254   5.904  0.1229 -0.4542 -0.0344
    72IDQ   C69 2373   4.948   2.336   5.785  0.1968  0.3809  0.3557
    72IDQ   C70 2374   5.048   2.423   5.708  0.1097 -0.3389  0.5710
    72IDQ   C71 2375   4.990   2.533   5.610 -0.6106 -0.1060  0.5289
    72IDQ   C72 2376   5.100   2.611   5.541 -0.2956  0.5145  0.2579
    11RH     C1 2377   1.599   4.053   0.279  0.0103 -0.1423  0.0879
    11RH     C2 2378   1.638   3.977   0.158 -0.1059 -0.0511 -0.0081
    11RH     N1 2379   1.469   4.017   0.322 -0.0347 -0.0188  0.0576
    11RH     S1 2380   1.503   3.863   0.109 -0.2669  0.1912 -0.1320
    11RH     C3 2381   1.401   3.921   0.251 -0.1729  0.1601 -0.0510
    11RH     C4 2382   1.403   4.086   0.437  0.1083 -0.4783  0.0927
    11RH     S2 2383   1.246   3.861   0.281 -0.2524  0.3332 -0.1082
    11RH     O1 2384   1.668   4.138   0.337  0.1326 -0.3062  0.1837
    11RH     C5 2385   1.756   3.992   0.097 -0.0913 -0.1373 -0.0017
    21BTZ    C6 2386   1.822   3.923  -0.014  0.2338 -0.0359  0.1486
    21BTZ    C7 2387   1.777   3.805  -0.067  0.2082 -0.0595  0.2228
    21BTZ    C8 2388   1.930   3.991  -0.080  0.1615 -0.0342  0.0321
    21BTZ    C9 2389   1.834   3.749  -0.187  0.1109 -0.0824  0.1869
    21BTZ   C10 2390   1.937   3.810  -0.253  0.0393 -0.0816  0.0765
    21BTZ   C11 2391   1.988   3.934  -0.202  0.0626 -0.0574 -0.0046
    21BTZ    N2 2392   1.983   4.107  -0.038  0.1777 -0.0123 -0.0483
    21BTZ    N3 2393   2.088   4.003  -0.258 -0.0007 -0.0542 -0.1144
    21BTZ    S3 2394   2.112   4.148  -0.155  0.0648 -0.0206 -0.1769
    31IDT   C12 2395   1.992   3.750  -0.373 -0.6771 -0.4438  0.0538
    31IDT   C13 2396   1.999   3.817  -0.492 -0.8194 -0.4506  0.0409
    31IDT   C14 2397   2.048   3.736  -0.599 -0.4413 -0.3110  0.1029
    31IDT   C15 2398   2.078   3.606  -0.562 -0.0093 -0.1972  0.1637
    31IDT    S4 2399   2.046   3.577  -0.387 -0.0483 -0.2585  0.1466
    4IDB    C16 2400   2.129   3.533  -0.681  0.4142 -0.5657 -0.0720
    4IDB    C17 2401   2.132   3.620  -0.795  0.3216 -0.3904  0.0583
    51IDQ   C18 2402   2.081   3.756  -0.750 -0.4456 -0.1892  0.0591
    4IDB    C19 2403   2.178   3.574  -0.918  0.1005 -0.2385 -0.0808
    51IDQ   C20 2404   2.211   3.847  -0.784  0.2499  0.0693 -0.2172
    51IDQ   C21 2405   1.959   3.824  -0.820 -0.0002  0.4966  0.2154
    51IDQ   C22 2406   1.875   3.748  -0.923 -0.8109  0.0676 -0.2752
    51IDQ   C23 2407   2.278   3.922  -0.666  0.3397 -0.4815  0.3163
    51IDQ   C24 2408   1.782   3.842  -0.993  0.7174  0.1993  0.5346
    51IDQ   C25 2409   1.700   3.763  -1.100  0.1941  0.5760  0.0169
    51IDQ   C26 2410   1.585   3.840  -1.169 -0.5273 -0.8865 -0.2750
    51IDQ   C27 2411   1.492   3.759  -1.261 -0.3918  0.1112  0.0789
    51IDQ   C28 2412   1.563   3.682  -1.373 -0.3239  0.6549 -0.9451
    51IDQ   C29 2413   1.462   3.618  -1.471  0.0026 -0.1834  0.4031
    51IDQ   C30 2414   2.362   4.046  -0.693  0.0745 -0.2354  0.5554
    51IDQ   C31 2415   2.293   4.157  -0.777 -0.4356  0.2999  0.0424
    51IDQ   C32 2416   2.169   4.222  -0.716 -0.3568  0.0118  0.3014
    51IDQ   C33 2417   2.116   4.347  -0.788 -0.5487 -0.4327  0.0948
    51IDQ   C34 2418   2.051   4.325  -0.922  0.0367  0.2710  0.4406
    51IDQ   C35 2419   1.979   4.443  -0.986 -0.2508  0.4899  0.6557
    4IDB    C36 2420   2.173   3.400  -0.690  0.2851 -0.5900 -0.3440
    4IDB    C37 2421   2.219   3.355  -0.817  0.0595 -0.4332 -0.4829
    11RH    C38 2422   1.442   4.041   0.577  0.4218  0.0680 -1.0338
    4IDB    C39 2423   2.221   3.441  -0.927 -0.0285 -0.2629 -0.3528
    62IDT   C40 2424   2.267   3.371  -1.043 -0.8790  0.3055 -0.0492
    72IDQ   C41 2425   2.262   3.211  -0.861 -0.0266  0.0332  0.3869
    62IDT   C42 2426   2.284   3.238  -1.013 -1.2019  0.2795  0.0260
    72IDQ   C43 2427   2.164   3.092  -0.832  0.1809 -0.7468 -0.2861
    72IDQ   C44 2428   2.403   3.174  -0.806  0.3972 -0.1797 -0.6352
    62IDT    S5 2429   2.291   3.404  -1.218  0.0222  0.2916  0.0592
    62IDT   C45 2430   2.324   3.227  -1.242 -0.0906  0.2494  0.2077
    62IDT   C46 2431   2.316   3.156  -1.126 -0.7567  0.2478  0.1712
    82BTZ   C47 2432   2.338   3.181  -1.385  0.1277 -0.0845  0.2794
    82BTZ   C48 2433   2.266   3.242  -1.485  0.1392 -0.0017  0.3215
    82BTZ   C49 2434   2.293   3.216  -1.624  0.1902  0.1538  0.3021
    82BTZ   C50 2435   2.392   3.129  -1.663  0.2297  0.2262  0.2402
    82BTZ   C51 2436   2.442   3.089  -1.421  0.1678 -0.0139  0.2140
    82BTZ   C52 2437   2.469   3.062  -1.562  0.2196  0.1441  0.1941
    92RH    C53 2438   2.419   3.108  -1.804 -0.3347 -0.1046  0.0024
    82BTZ    N4 2439   2.518   3.023  -1.333  0.1613 -0.0829  0.1684
    82BTZ    N5 2440   2.567   2.976  -1.588  0.2549  0.2022  0.1327
    82BTZ    S6 2441   2.630   2.923  -1.429  0.2226  0.0541  0.0967
    92RH    C54 2442   2.375   3.157  -1.921 -0.1913 -0.0932 -0.0463
    92RH     S7 2443   2.247   3.286  -1.944  0.1127  0.1868 -0.1772
    92RH    C55 2444   2.427   3.113  -2.053 -0.2602 -0.3138  0.0001
    92RH     O2 2445   2.514   3.026  -2.071 -0.4546 -0.5311  0.0879
    92RH     N6 2446   2.364   3.182  -2.158 -0.0748 -0.2477 -0.0683
    92RH    C56 2447   2.268   3.276  -2.127  0.1342 -0.0010 -0.1640
    92RH    C57 2448   2.411   3.155  -2.297 -0.1778 -0.2279  0.5151
    92RH    C58 2449   2.541   3.230  -2.328 -0.0004 -0.6557  0.2035
    92RH     S8 2450   2.178   3.371  -2.234  0.3805  0.1258 -0.2594
    72IDQ   C59 2451   2.471   3.040  -0.830  0.2798  0.0126  0.5768
    72IDQ   C60 2452   2.610   3.046  -0.892  0.4304  0.3221 -0.1401
    72IDQ   C61 2453   2.678   2.920  -0.949  0.7222  0.5738 -0.1051
    72IDQ   C62 2454   2.709   2.823  -0.836 -0.9736 -0.2100 -0.1029
    72IDQ   C63 2455   2.781   2.702  -0.885  0.2334  0.1449  0.2397
    72IDQ   C64 2456   2.818   2.592  -0.780  0.1567  0.2474  0.6470
    72IDQ   C65 2457   2.907   2.635  -0.668  0.7002  0.3591 -0.3844
    72IDQ   C66 2458   2.128   3.046  -0.689  0.9551  0.0829  0.2764
    72IDQ   C67 2459   2.034   2.928  -0.697  0.4419  0.0126 -1.1309
    72IDQ   C68 2460   1.985   2.879  -0.554  0.1716 -0.3031 -0.2076
    72IDQ   C69 2461   1.882   2.770  -0.562 -0.3556  0.4501 -0.4556
    72IDQ   C70 2462   1.754   2.799  -0.634  0.6647 -0.8607 -0.4147
    72IDQ   C71 2463   1.648   2.692  -0.631  0.4076 -0.3238 -0.2165
    72IDQ   C72 2464   1.517   2.734  -0.704 -0.2984 -0.1797  0.1162
    11RH     C1 2465   3.615   5.156   2.852  0.2816  0.0329  0.1733
    11RH     C2 2466   3.544   5.026   2.839  0.2962  0.0213  0.2079
    11RH     N1 2467   3.737   5.155   2.781  0.2141  0.0764  0.0559
    11RH     S1 2468   3.643   4.912   2.735  0.2203  0.0686  0.0837
    11RH     C3 2469   3.773   5.041   2.713  0.1729  0.1013 -0.0080
    11RH     C4 2470   3.824   5.271   2.795 -0.3740  0.0776 -0.1484
    11RH     S2 2471   3.912   5.014   2.622  0.0910  0.1538 -0.1485
    11RH     O1 2472   3.574   5.254   2.916  0.3223  0.0079  0.2375
    11RH     C5 2473   3.426   5.000   2.896  0.3564 -0.0178  0.3146
    21BTZ    C6 2474   3.336   4.885   2.898  0.1200 -0.0934  0.2098
    21BTZ    C7 2475   3.358   4.768   2.831  0.0166 -0.1543  0.2810
    21BTZ    C8 2476   3.219   4.896   2.980  0.1050  0.0774  0.1653
    21BTZ    C9 2477   3.266   4.657   2.840 -0.1057 -0.0513  0.3121
    21BTZ   C10 2478   3.153   4.663   2.917 -0.1246  0.1125  0.2719
    21BTZ   C11 2479   3.126   4.783   2.989 -0.0194  0.1822  0.1970
    21BTZ    N2 2480   3.186   5.005   3.051  0.1984  0.1509  0.0951
    21BTZ    N3 2481   3.019   4.801   3.067 -0.0259  0.3397  0.1523
    21BTZ    S3 2482   3.033   4.967   3.134  0.1300  0.3616  0.0661
    31IDT   C12 2483   3.056   4.556   2.903  0.1653  0.3361 -0.0433
    31IDT   C13 2484   3.003   4.475   2.999  0.3300  0.4052  0.1081
    31IDT   C14 2485   2.914   4.377   2.946  0.3050  0.3107  0.3215
    31IDT   C15 2486   2.900   4.382   2.809  0.1215  0.1694  0.3341
    31IDT    S4 2487   2.998   4.514   2.736 -0.0352  0.1446  0.0745
    4IDB    C16 2488   2.820   4.273   2.760  0.3106 -0.2096  0.0111
    4IDB    C17 2489   2.780   4.193   2.872  0.3615 -0.3378 -0.0618
    51IDQ   C18 2490   2.841   4.255   3.000 -0.2536  0.5074 -0.2062
    4IDB    C19 2491   2.702   4.079   2.854  0.2452 -0.2459 -0.1454
    51IDQ   C20 2492   2.713   4.277   3.092 -0.6955 -0.1787  0.9412
    51IDQ   C21 2493   2.943   4.166   3.082  0.1022  0.4868  0.3318
    51IDQ   C22 2494   2.948   4.014   3.050  0.1577  0.0219 -0.2486
    51IDQ   C23 2495   2.664   4.412   3.145  0.2072  0.3956  0.0588
    51IDQ   C24 2496   3.007   3.943   3.174  0.0600  0.2942  0.0282
    51IDQ   C25 2497   2.917   3.926   3.296 -0.1544 -0.3290 -0.5584
    51IDQ   C26 2498   2.783   3.845   3.295 -1.1433 -0.1058  1.1633
    51IDQ   C27 2499   2.684   3.885   3.396  0.7002  0.0719  0.0150
    51IDQ   C28 2500   2.626   4.026   3.382  0.2974 -1.2867  0.3344
    51IDQ   C29 2501   2.522   4.079   3.480  0.4794 -0.0657  0.1796
    51IDQ   C30 2502   2.593   4.489   3.033 -0.3967  0.0861  0.6779
    51IDQ   C31 2503   2.539   4.625   3.085 -0.0951 -0.4909 -0.1743
    51IDQ   C32 2504   2.618   4.749   3.056  0.1919 -0.0943  0.0973
    51IDQ   C33 2505   2.610   4.792   2.909  0.3661 -0.3609 -0.6933
    51IDQ   C34 2506   2.740   4.849   2.854 -0.1825 -0.1990 -0.4861
    51IDQ   C35 2507   2.752   4.804   2.712 -0.5613 -0.5179  0.1547
    4IDB    C36 2508   2.782   4.239   2.629  0.1419  0.0126  0.0006
    4IDB    C37 2509   2.703   4.122   2.613  0.0248  0.1038 -0.0852
    11RH    C38 2510   3.810   5.366   2.688 -0.3382 -1.0272  0.6875
    4IDB    C39 2511   2.664   4.045   2.723  0.0765 -0.0237 -0.1558
    62IDT   C40 2512   2.597   3.926   2.683  0.1061 -0.1269  0.2539
    72IDQ   C41 2513   2.637   4.059   2.483 -0.2288  0.2143 -0.8454
    62IDT   C42 2514   2.568   3.934   2.549 -0.3608  0.3210  0.3741
    72IDQ   C43 2515   2.744   4.024   2.376  0.4718 -0.8184  0.0654
    72IDQ   C44 2516   2.523   4.147   2.417 -0.4898 -0.2151  0.7811
    62IDT    S5 2517   2.539   3.773   2.756  0.4417 -0.4114 -0.0721
    62IDT   C45 2518   2.475   3.724   2.593 -0.0933  0.1158 -0.0265
    62IDT   C46 2519   2.499   3.819   2.498 -0.4743  0.4589  0.2158
    82BTZ   C47 2520   2.419   3.584   2.580  0.1565  0.0296 -0.3903
    82BTZ   C48 2521   2.438   3.502   2.688  0.2704 -0.0226 -0.4492
    82BTZ   C49 2522   2.383   3.369   2.693  0.1661  0.0222 -0.4014
    82BTZ   C50 2523   2.309   3.318   2.590 -0.0520  0.1192 -0.2948
    82BTZ   C51 2524   2.342   3.535   2.469 -0.0721  0.1314 -0.2784
    82BTZ   C52 2525   2.286   3.399   2.475 -0.1782  0.1770 -0.2298
    92RH    C53 2526   2.277   3.175   2.579 -0.2680 -0.3906  0.2306
    82BTZ    N4 2527   2.317   3.604   2.358 -0.2003  0.1900 -0.2127
    82BTZ    N5 2528   2.216   3.360   2.368 -0.3916  0.2720 -0.1251
    82BTZ    S6 2529   2.218   3.498   2.254 -0.4676  0.3081 -0.0834
    92RH    C54 2530   2.316   3.063   2.642 -0.1278 -0.3808  0.1614
    92RH     S7 2531   2.441   3.050   2.776  0.0453 -0.3360  0.0041
    92RH    C55 2532   2.261   2.929   2.611 -0.0905 -0.4055  0.2035
    92RH     O2 2533   2.175   2.904   2.526 -0.1827 -0.4377  0.3058
    92RH     N6 2534   2.320   2.830   2.692  0.0658 -0.3880  0.1120
    92RH    C56 2535   2.415   2.868   2.784  0.1584 -0.3522  0.0017
    92RH    C57 2536   2.272   2.692   2.681  0.2897  0.6832 -0.9461
    92RH    C58 2537   2.143   2.657   2.759 -0.7807 -0.2933 -0.0455
    92RH     S8 2538   2.500   2.770   2.892  0.3471 -0.3252 -0.1216
    72IDQ   C59 2539   2.447   4.253   2.497 -0.0034  0.3544  0.4129
    72IDQ   C60 2540   2.309   4.302   2.442  0.5757 -0.1247  0.1768
    72IDQ   C61 2541   2.288   4.369   2.309  0.2064 -0.1238 -0.0331
    72IDQ   C62 2542   2.372   4.491   2.281 -0.5848  0.2660 -0.5853
    72IDQ   C63 2543   2.365   4.610   2.391  0.8322  0.2333  0.6612
    72IDQ   C64 2544   2.424   4.729   2.323  0.2946  0.6617  0.2794
    72IDQ   C65 2545   2.421   4.852   2.408 -0.1928  0.1613  0.2020
    72IDQ   C66 2546   2.843   3.917   2.399 -0.5673 -0.8832 -0.5995
    72IDQ   C67 2547   2.981   3.953   2.472 -0.5289  0.4164  0.4369
    72IDQ   C68 2548   3.056   4.071   2.411 -0.0704 -0.3843 -0.3402
    72IDQ   C69 2549   3.191   4.108   2.480  0.1060 -0.0624  0.5928
    72IDQ   C70 2550   3.175   4.170   2.625 -0.5064 -0.1426 -0.5796
    72IDQ   C71 2551   3.316   4.201   2.701  0.5504 -0.3330  0.1321
    72IDQ   C72 2552   3.286   4.294   2.816 -0.1392 -0.2801  0.1330
    11RH     C1 2553   6.097   6.070   5.854 -0.0368  0.0775  0.0608
    11RH     C2 2554   5.956   6.027   5.837 -0.0346  0.0048  0.2222
    11RH     N1 2555   6.105   6.190   5.926 -0.0250  0.1742 -0.1015
    11RH     S1 2556   5.844   6.148   5.917 -0.0176  0.0684  0.1502
    11RH     C3 2557   5.989   6.250   5.969 -0.0139  0.1880 -0.0898
    11RH     C4 2558   6.234   6.251   5.950 -0.4405 -0.5696  0.0753
    11RH     S2 2559   5.972   6.393   6.056  0.0012  0.2950 -0.2613
    11RH     O1 2560   6.196   6.009   5.811 -0.0473  0.0578  0.0639
    11RH     C5 2561   5.920   5.915   5.772 -0.0443 -0.0920  0.3927
    21BTZ    C6 2562   5.789   5.852   5.743 -0.2217  0.0290  0.2224
    21BTZ    C7 2563   5.667   5.905   5.775 -0.2431  0.0508  0.1023
    21BTZ    C8 2564   5.794   5.721   5.684 -0.1935  0.0740  0.1247
    21BTZ    C9 2565   5.544   5.834   5.750 -0.2379  0.1179 -0.1185
    21BTZ   C10 2566   5.544   5.709   5.694 -0.2114  0.1626 -0.2190
    21BTZ   C11 2567   5.669   5.649   5.659 -0.1882  0.1421 -0.0999
    21BTZ    N2 2568   5.907   5.658   5.649 -0.1711  0.0585  0.2249
    21BTZ    N3 2569   5.682   5.528   5.604 -0.1614  0.1813 -0.1800
    21BTZ    S3 2570   5.857   5.501   5.581 -0.1415  0.1318  0.0328
    31IDT   C12 2571   5.414   5.644   5.659 -0.0487 -0.4916 -0.4356
    31IDT   C13 2572   5.376   5.513   5.673 -0.1159 -0.5517 -1.1039
    31IDT   C14 2573   5.235   5.494   5.655 -0.1208 -0.3934 -1.2386
    31IDT   C15 2574   5.166   5.610   5.627 -0.0574 -0.2121 -0.6754
    31IDT    S4 2575   5.274   5.753   5.621  0.0139 -0.2278  0.0761
    4IDB    C16 2576   5.027   5.580   5.615 -0.0074 -0.3212  0.0264
    4IDB    C17 2577   5.003   5.446   5.659 -0.1233 -0.1808  0.3915
    51IDQ   C18 2578   5.136   5.379   5.665 -0.1975  0.1612 -0.0756
    4IDB    C19 2579   4.873   5.400   5.679 -0.1643 -0.0224  0.4972
    51IDQ   C20 2580   5.130   5.292   5.798  0.1859  0.0875  0.1785
    51IDQ   C21 2581   5.156   5.283   5.539 -0.4445  0.6400  0.0892
    51IDQ   C22 2582   5.058   5.256   5.427  0.6187 -0.0852 -0.5359
    51IDQ   C23 2583   5.199   5.340   5.925  0.8160 -0.1416 -0.0758
    51IDQ   C24 2584   5.052   5.354   5.310  0.1585  0.3360 -0.4361
    51IDQ   C25 2585   5.179   5.365   5.234 -0.2352  0.5796 -0.4600
    51IDQ   C26 2586   5.252   5.238   5.170 -0.3325  0.7862 -0.1677
    51IDQ   C27 2587   5.390   5.263   5.122  0.0158  0.1864 -0.1400
    51IDQ   C28 2588   5.449   5.154   5.039 -0.1358 -0.8980 -0.4301
    51IDQ   C29 2589   5.591   5.190   4.978  0.1816 -0.1773 -0.1233
    51IDQ   C30 2590   5.151   5.264   6.050  0.4132  0.0770  0.2521
    51IDQ   C31 2591   5.018   5.318   6.097  0.0793  0.6528 -1.1262
    51IDQ   C32 2592   4.935   5.229   6.195  0.2890  0.8450 -0.2930
    51IDQ   C33 2593   4.882   5.091   6.148 -0.5876  0.1003 -0.6195
    51IDQ   C34 2594   4.798   5.085   6.018 -0.3426  0.0547  0.4367
    51IDQ   C35 2595   4.648   5.113   6.029  0.1034  0.4546  0.4260
    4IDB    C36 2596   4.921   5.668   5.589  0.0685 -0.3043 -0.2365
    4IDB    C37 2597   4.789   5.619   5.610  0.0253 -0.1417 -0.1234
    11RH    C38 2598   6.309   6.231   6.082  0.5398 -0.5617  0.0048
    4IDB    C39 2599   4.767   5.488   5.653 -0.0884 -0.0056  0.2344
    62IDT   C40 2600   4.626   5.468   5.668  0.3720  0.0332 -0.2004
    72IDQ   C41 2601   4.659   5.698   5.593 -0.2641 -0.3442  0.1292
    62IDT   C42 2602   4.563   5.588   5.641  0.5997  0.1851 -0.0687
    72IDQ   C43 2603   4.626   5.751   5.444 -0.4336  0.8447 -0.3682
    72IDQ   C44 2604   4.629   5.821   5.681 -0.0414  0.3087  0.0433
    62IDT    S5 2605   4.510   5.339   5.713  0.1334  0.2319 -0.2453
    62IDT   C45 2606   4.375   5.460   5.692  0.3653  0.5241 -0.0749
    62IDT   C46 2607   4.421   5.583   5.655  0.5962  0.4628  0.0025
    82BTZ   C47 2608   4.232   5.417   5.699  0.0352 -0.1924 -0.1099
    82BTZ   C48 2609   4.201   5.286   5.668  0.0137 -0.2433  0.1270
    82BTZ   C49 2610   4.070   5.232   5.691  0.0418 -0.2197  0.3519
    82BTZ   C50 2611   3.969   5.308   5.744  0.0911 -0.1451  0.3398
    82BTZ   C51 2612   4.129   5.500   5.754  0.0868 -0.1137 -0.1326
    82BTZ   C52 2613   3.995   5.445   5.777  0.1153 -0.0895  0.0960
    92RH    C53 2614   3.838   5.255   5.769 -0.5324  0.1532 -0.2134
    82BTZ    N4 2615   4.147   5.628   5.788  0.1117 -0.0588 -0.3525
    82BTZ    N5 2616   3.905   5.528   5.829  0.1631 -0.0153  0.0598
    82BTZ    S6 2617   3.989   5.685   5.851  0.1740  0.0277 -0.2752
    92RH    C54 2618   3.784   5.133   5.757 -0.3062  0.0484 -0.1789
    92RH     S7 2619   3.855   4.989   5.669  0.0962  0.0721  0.1041
    92RH    C55 2620   3.653   5.095   5.817 -0.3499 -0.1080 -0.3722
    92RH     O2 2621   3.579   5.171   5.882 -0.5958 -0.1597 -0.5846
    92RH     N6 2622   3.620   4.961   5.789 -0.0729 -0.1941 -0.2855
    92RH    C56 2623   3.709   4.886   5.715  0.1872 -0.1259 -0.0465
    92RH    C57 2624   3.489   4.907   5.838 -0.3091  0.2764 -0.2061
    92RH    C58 2625   3.377   4.890   5.738 -0.3226  0.3536  0.3672
    92RH     S8 2626   3.694   4.724   5.669  0.5434 -0.2027  0.1006
    72IDQ   C59 2627   4.712   5.845   5.808 -0.4585 -0.7487  0.2075
    72IDQ   C60 2628   4.666   5.971   5.871 -0.1426 -0.3579 -0.6420
    72IDQ   C61 2629   4.765   6.038   5.974 -0.0739  0.5741  0.0617
    72IDQ   C62 2630   4.813   5.958   6.101 -0.8423 -0.3941  0.6239
    72IDQ   C63 2631   4.703   5.907   6.199  0.3577 -0.2441  0.1498
    72IDQ   C64 2632   4.742   5.842   6.331  0.5796  0.5940 -0.1607
    72IDQ   C65 2633   4.619   5.771   6.389  0.2386 -0.9868  0.2587
    72IDQ   C66 2634   4.672   5.657   5.328  0.1541 -0.4488 -0.5159
    72IDQ   C67 2635   4.625   5.715   5.191  0.1339 -0.1790 -0.1112
    72IDQ   C68 2636   4.615   5.608   5.088  0.4110  0.4002  0.1133
    72IDQ   C69 2637   4.744   5.541   5.030  0.0886  0.4163 -0.4872
    72IDQ   C70 2638   4.726   5.441   4.912 -0.2806 -0.7533  0.2230
    72IDQ   C71 2639   4.857   5.372   4.869  0.4159  0.0352 -0.3753
    72IDQ   C72 2640   4.850   5.278   4.750 -0.4181  0.2010  0.2409
    11RH     C1 2641   4.929   2.790   1.649  0.1811  0.0103 -0.3122
    11RH     C2 2642   4.879   2.901   1.564  0.1078  0.1144 -0.1333
    11RH     N1 2643   4.833   2.687   1.662  0.1932 -0.0066 -0.3577
    11RH     S1 2644   4.709   2.863   1.507  0.0595  0.1836 -0.0364
    11RH     C3 2645   4.712   2.702   1.597  0.1385  0.0715 -0.2370
    11RH     C4 2646   4.870   2.572   1.746 -0.6767  1.1342  0.2078
    11RH     S2 2647   4.582   2.595   1.597  0.1389  0.0710 -0.2585
    11RH     O1 2648   5.041   2.786   1.703  0.2272 -0.0554 -0.4123
    11RH     C5 2649   4.950   3.011   1.536  0.0827  0.1498 -0.0585
    21BTZ    C6 2650   4.923   3.132   1.461  0.0406 -0.1111 -0.0871
    21BTZ    C7 2651   4.806   3.140   1.391  0.0504 -0.1196 -0.1047
    21BTZ    C8 2652   5.012   3.245   1.460  0.0480 -0.1169 -0.1014
    21BTZ    C9 2653   4.769   3.259   1.318  0.0678 -0.1343 -0.1372
    21BTZ   C10 2654   4.850   3.369   1.314  0.0754 -0.1405 -0.1519
    21BTZ   C11 2655   4.975   3.365   1.385  0.0657 -0.1319 -0.1343
    21BTZ    N2 2656   5.129   3.249   1.523  0.0397 -0.1096 -0.0866
    21BTZ    N3 2657   5.062   3.466   1.388  0.0716 -0.1367 -0.1461
    21BTZ    S3 2658   5.199   3.410   1.489  0.0546 -0.1218 -0.1148
    31IDT   C12 2659   4.799   3.486   1.240  0.2684  0.1824  0.1866
    31IDT   C13 2660   4.839   3.616   1.242  0.5976  0.0939 -0.2822
    31IDT   C14 2661   4.759   3.701   1.160  0.6334  0.0505 -0.3619
    31IDT   C15 2662   4.657   3.635   1.095  0.3326  0.1057  0.0446
    31IDT    S4 2663   4.654   3.460   1.133 -0.0224  0.2177  0.5647
    4IDB    C16 2664   4.582   3.728   1.016 -0.2833  0.0587 -0.4769
    4IDB    C17 2665   4.629   3.861   1.035  0.1340 -0.0917 -0.4373
    51IDQ   C18 2666   4.742   3.857   1.150  0.5232 -0.7421  0.4341
    4IDB    C19 2667   4.583   3.966   0.956  0.0666  0.1646 -0.0674
    51IDQ   C20 2668   4.860   3.949   1.098  0.7792 -0.1789  0.5455
    51IDQ   C21 2669   4.706   3.915   1.293  0.0848 -0.4991  0.4719
    51IDQ   C22 2670   4.567   3.967   1.322 -0.0207  0.0457  0.4726
    51IDQ   C23 2671   4.985   3.875   1.053  0.6217 -0.1738  0.4185
    51IDQ   C24 2672   4.509   3.947   1.465 -0.4488 -0.3479 -0.2273
    51IDQ   C25 2673   4.511   3.807   1.520  0.7076  0.6682  0.3229
    51IDQ   C26 2674   4.485   3.771   1.661  0.4034 -0.2554 -0.6602
    51IDQ   C27 2675   4.349   3.821   1.700  0.7061 -0.2394  0.1843
    51IDQ   C28 2676   4.342   3.956   1.780 -1.0075  0.6563 -0.8497
    51IDQ   C29 2677   4.206   3.997   1.834  0.0306  0.7195 -0.2078
    51IDQ   C30 2678   5.100   3.970   1.039  0.1203  0.3666  0.1898
    51IDQ   C31 2679   5.235   3.915   0.987  0.3023  0.6790  0.0651
    51IDQ   C32 2680   5.229   3.869   0.844 -0.5607  0.0152 -0.1485
    51IDQ   C33 2681   5.185   3.962   0.730 -0.1029 -0.0409 -0.2825
    51IDQ   C34 2682   5.253   4.093   0.713 -0.6279 -0.1324 -0.0595
    51IDQ   C35 2683   5.200   4.169   0.591 -0.9205  0.3246 -0.0429
    4IDB    C36 2684   4.488   3.698   0.917 -0.7735  0.4689 -0.1445
    4IDB    C37 2685   4.441   3.806   0.837 -0.8352  0.7262  0.2310
    11RH    C38 2686   4.839   2.579   1.898  0.0877  0.1393 -0.1199
    4IDB    C39 2687   4.488   3.935   0.857 -0.4235  0.5747  0.2650
    62IDT   C40 2688   4.412   4.028   0.782  0.0340 -0.0053 -0.3126
    72IDQ   C41 2689   4.348   3.802   0.714 -0.4131 -1.4368 -0.3470
    62IDT   C42 2690   4.324   3.962   0.700  0.3165  0.0601 -0.6743
    72IDQ   C43 2691   4.216   3.723   0.742  0.5608 -0.5451 -0.3365
    72IDQ   C44 2692   4.415   3.779   0.577 -0.0990  1.0849 -0.5254
    62IDT    S5 2693   4.400   4.206   0.764 -0.1136  0.0181  0.0116
    62IDT   C45 2694   4.269   4.181   0.641  0.2310  0.1198 -0.3779
    62IDT   C46 2695   4.243   4.048   0.620  0.4283  0.1308 -0.7117
    82BTZ   C47 2696   4.213   4.295   0.565  0.0839 -0.2469 -0.3275
    82BTZ   C48 2697   4.280   4.414   0.564  0.1934 -0.3076 -0.2971
    82BTZ   C49 2698   4.239   4.524   0.480  0.2720 -0.2360 -0.2428
    82BTZ   C50 2699   4.130   4.514   0.397  0.2410 -0.1036 -0.2191
    82BTZ   C51 2700   4.099   4.279   0.479  0.0474 -0.1085 -0.3045
    82BTZ   C52 2701   4.057   4.390   0.394  0.1273 -0.0358 -0.2493
    92RH    C53 2702   4.089   4.620   0.301 -0.0745 -0.2187 -0.1425
    82BTZ    N4 2703   4.026   4.167   0.471 -0.0570 -0.0386 -0.3301
    82BTZ    N5 2704   3.950   4.368   0.317  0.0871  0.0926 -0.2306
    82BTZ    S6 2705   3.898   4.201   0.351 -0.0576  0.1270 -0.2838
    92RH    C54 2706   4.133   4.742   0.268 -0.0865 -0.2035 -0.1018
    92RH     S7 2707   4.281   4.827   0.336 -0.1034 -0.2054 -0.0629
    92RH    C55 2708   4.065   4.829   0.169 -0.0886 -0.1820 -0.0814
    92RH     O2 2709   3.962   4.801   0.106 -0.0794 -0.1757 -0.0991
    92RH     N6 2710   4.133   4.952   0.155 -0.1027 -0.1692 -0.0382
    92RH    C56 2711   4.246   4.974   0.230 -0.1122 -0.1777 -0.0215
    92RH    C57 2712   4.072   5.064   0.078  0.7952 -0.2180  0.0541
    92RH    C58 2713   4.130   5.106  -0.059  0.8638  0.7731  0.5362
    92RH     S8 2714   4.345   5.111   0.232 -0.1293 -0.1659  0.0285
    72IDQ   C59 2715   4.504   3.658   0.561 -0.7160  0.3455 -0.1075
    72IDQ   C60 2716   4.578   3.646   0.429  0.4005 -0.1522  0.0921
    72IDQ   C61 2717   4.499   3.651   0.300 -0.1605  0.7880  0.0898
    72IDQ   C62 2718   4.585   3.622   0.184 -0.2712  0.6020  0.4692
    72IDQ   C63 2719   4.497   3.596   0.068  0.1985 -0.1782  0.1638
    72IDQ   C64 2720   4.581   3.573  -0.053 -0.5705 -0.3466  0.1203
    72IDQ   C65 2721   4.517   3.588  -0.189  0.5145  0.3416  0.4904
    72IDQ   C66 2722   4.110   3.707   0.628  0.5278  0.0630 -0.1006
    72IDQ   C67 2723   3.969   3.641   0.657 -0.1421  0.0342  0.4223
    72IDQ   C68 2724   3.870   3.727   0.738  0.0870  0.0746  0.1655
    72IDQ   C69 2725   3.814   3.856   0.676  0.5689  0.3202  0.3328
    72IDQ   C70 2726   3.696   3.913   0.753 -0.6423 -0.8580 -0.4405
    72IDQ   C71 2727   3.638   4.051   0.712  0.1118  0.1689 -0.2201
    72IDQ   C72 2728   3.609   4.066   0.559  0.0195  0.1286 -0.2506
    11RH     C1 2729   0.526   0.487   5.886 -0.0561 -0.2070 -0.0808
    11RH     C2 2730   0.662   0.470   5.943 -0.1175 -0.2048  0.0659
    11RH     N1 2731   0.440   0.383   5.926 -0.1432 -0.1193 -0.0396
    11RH     S1 2732   0.667   0.318   6.046 -0.2858 -0.0875  0.2483
    11RH     C3 2733   0.490   0.284   6.009 -0.2668 -0.0471  0.1221
    11RH     C4 2734   0.293   0.373   5.891 -0.3684 -0.0461  0.6910
    11RH     S2 2735   0.408   0.150   6.071 -0.3883  0.0633  0.2030
    11RH     O1 2736   0.490   0.580   5.811  0.0572 -0.2761 -0.2232
    11RH     C5 2737   0.762   0.555   5.921 -0.0560 -0.2787  0.0607
    21BTZ    C6 2738   0.901   0.558   5.963  0.1222 -0.1459 -0.1709
    21BTZ    C7 2739   0.963   0.466   6.043  0.2159 -0.1159 -0.2091
    21BTZ    C8 2740   0.974   0.675   5.923  0.0154 -0.0724 -0.1519
    21BTZ    C9 2741   1.099   0.484   6.088  0.2097 -0.0131 -0.2302
    21BTZ   C10 2742   1.173   0.594   6.052  0.1096  0.0596 -0.2132
    21BTZ   C11 2743   1.112   0.693   5.969  0.0090  0.0321 -0.1733
    21BTZ    N2 2744   0.924   0.772   5.846 -0.0818 -0.0924 -0.1150
    21BTZ    N3 2745   1.174   0.804   5.928 -0.0934  0.0961 -0.1537
    21BTZ    S3 2746   1.055   0.893   5.827 -0.1879  0.0240 -0.1059
    31IDT   C12 2747   1.310   0.601   6.103  0.1741  0.6656  0.1919
    31IDT   C13 2748   1.416   0.649   6.030  0.3249  0.0916  0.0242
    31IDT   C14 2749   1.542   0.608   6.081  0.1892 -0.7700 -0.2955
    31IDT   C15 2750   1.535   0.529   6.194 -0.0653 -0.8584 -0.3734
    31IDT    S4 2751   1.365   0.500   6.244 -0.1537  0.1520 -0.0450
    4IDB    C16 2752   1.668   0.497   6.239 -0.1955  0.2293 -0.1643
    4IDB    C17 2753   1.762   0.546   6.144 -0.2243  0.3469 -0.1320
    51IDQ   C18 2754   1.690   0.624   6.030 -0.2527 -0.6022 -0.7206
    4IDB    C19 2755   1.899   0.532   6.164 -0.2208  0.1791 -0.2664
    51IDQ   C20 2756   1.758   0.766   6.008 -0.6114 -0.4509 -0.4148
    51IDQ   C21 2757   1.700   0.560   5.894  0.8229  0.5425 -0.5049
    51IDQ   C22 2758   1.778   0.434   5.863 -0.0594 -0.0131  0.0807
    51IDQ   C23 2759   1.693   0.905   6.020 -0.0604 -0.0013 -0.6434
    51IDQ   C24 2760   1.738   0.373   5.727 -0.4273  0.8574 -0.0601
    51IDQ   C25 2761   1.823   0.250   5.697 -1.4900  0.0586  0.4006
    51IDQ   C26 2762   1.815   0.200   5.549 -0.0368  0.4062 -0.1091
    51IDQ   C27 2763   1.943   0.114   5.522  0.2837  0.3521  0.3227
    51IDQ   C28 2764   1.954   0.026   5.398  0.1034  0.3241 -0.5437
    51IDQ   C29 2765   2.082  -0.058   5.397 -0.0299  0.9017  0.0921
    51IDQ   C30 2766   1.625   0.913   6.158  0.2125 -0.4191 -0.3311
    51IDQ   C31 2767   1.532   1.037   6.165 -0.3359  0.6342 -0.0318
    51IDQ   C32 2768   1.396   1.020   6.090 -0.1635 -0.0831  0.2961
    51IDQ   C33 2769   1.314   1.140   6.107  0.7707 -0.6713 -0.1673
    51IDQ   C34 2770   1.165   1.122   6.071 -0.2230  0.2559 -0.6320
    51IDQ   C35 2771   1.084   1.244   6.104 -0.2256  0.3188 -0.1844
    4IDB    C36 2772   1.711   0.432   6.356 -0.1629 -0.0586 -0.3321
    4IDB    C37 2773   1.851   0.419   6.376 -0.1599 -0.2268 -0.4678
    11RH    C38 2774   0.199   0.455   5.983 -0.8951 -0.1830  0.0746
    4IDB    C39 2775   1.942   0.468   6.281 -0.1883 -0.1088 -0.4343
    62IDT   C40 2776   2.081   0.445   6.328  0.1711  0.1110 -0.2334
    72IDQ   C41 2777   1.923   0.356   6.497  0.2036 -0.0187  0.1127
    62IDT   C42 2778   2.072   0.383   6.451  0.0457  0.1163 -0.2394
    72IDQ   C43 2779   1.889   0.202   6.510  0.0889 -0.4248 -0.0636
    72IDQ   C44 2780   1.884   0.425   6.633  0.2760  0.0251 -0.4282
    62IDT    S5 2781   2.251   0.458   6.272  0.2024 -0.1829 -0.2098
    62IDT   C45 2782   2.304   0.375   6.425  0.0362 -0.2882 -0.2093
    62IDT   C46 2783   2.198   0.343   6.506 -0.0307 -0.1093 -0.2258
    82BTZ   C47 2784   2.452   0.349   6.445 -0.0025 -0.1096 -0.2805
    82BTZ   C48 2785   2.542   0.452   6.438 -0.0232 -0.0931 -0.3037
    82BTZ   C49 2786   2.683   0.432   6.463 -0.0343 -0.0396 -0.1942
    82BTZ   C50 2787   2.734   0.309   6.494 -0.0247 -0.0026 -0.0617
    82BTZ   C51 2788   2.501   0.218   6.477  0.0082 -0.0723 -0.1435
    82BTZ   C52 2789   2.644   0.197   6.502 -0.0031 -0.0179 -0.0323
    92RH    C53 2790   2.880   0.284   6.515 -0.1078  0.0759 -0.2255
    82BTZ    N4 2791   2.423   0.109   6.487  0.0283 -0.0836 -0.1081
    82BTZ    N5 2792   2.681   0.072   6.531  0.0079  0.0146  0.0926
    82BTZ    S6 2793   2.532  -0.026   6.529  0.0337 -0.0239  0.0727
    92RH    C54 2794   2.988   0.364   6.514 -0.1204  0.0941 -0.1642
    92RH     S7 2795   2.989   0.547   6.509 -0.1496  0.0987 -0.0049
    92RH    C55 2796   3.127   0.312   6.516 -0.1123  0.1139 -0.2183
    92RH     O2 2797   3.160   0.193   6.520 -0.0932  0.1161 -0.3244
    92RH     N6 2798   3.221   0.418   6.514 -0.1289  0.1306 -0.1331
    92RH    C56 2799   3.174   0.547   6.511 -0.1495  0.1266 -0.0175
    92RH    C57 2800   3.370   0.394   6.517  0.5653  0.4118  0.0978
    92RH    C58 2801   3.429   0.365   6.656  0.9007  0.4039 -0.0142
    92RH     S8 2802   3.264   0.690   6.508 -0.1721  0.1436  0.0999
    72IDQ   C59 2803   1.959   0.542   6.684 -0.7950  0.2862 -0.4171
    72IDQ   C60 2804   2.065   0.516   6.794  0.2664 -0.0761 -0.7639
    72IDQ   C61 2805   2.032   0.435   6.925 -0.5594 -0.0869 -0.0733
    72IDQ   C62 2806   2.146   0.373   7.000 -0.4645  0.6076 -0.1780
    72IDQ   C63 2807   2.232   0.268   6.927 -0.7299  0.5067  0.0652
    72IDQ   C64 2808   2.169   0.135   6.890  0.0974  0.0818  0.2355
    72IDQ   C65 2809   2.260   0.056   6.796 -0.5506  0.0132  0.1509
    72IDQ   C66 2810   1.957   0.100   6.417 -0.4999 -0.6725 -0.1594
    72IDQ   C67 2811   1.924  -0.050   6.427  0.6298  0.2279  0.0931
    72IDQ   C68 2812   1.962  -0.113   6.559 -0.5750  0.2377 -0.0832
    72IDQ   C69 2813   1.956  -0.263   6.559 -0.8398  0.2901  0.1424
    72IDQ   C70 2814   2.008  -0.359   6.446 -0.2222 -0.5471  0.4724
    72IDQ   C71 2815   2.161  -0.336   6.421  0.2966  0.1189  0.1787
    72IDQ   C72 2816   2.191  -0.420   6.300 -0.2475  0.1857  0.6607
    11RH     C1 2817   5.269   3.176   5.893  0.1757 -0.0210 -0.0334
    11RH     C2 2818   5.407   3.228   5.890  0.1384  0.0758 -0.0877
    11RH     N1 2819   5.259   3.058   5.970  0.2744  0.0114  0.0284
    11RH     S1 2820   5.517   3.119   5.989  0.2354  0.2029 -0.0540
    11RH     C3 2821   5.374   3.009   6.029  0.3208  0.1222  0.0302
    11RH     C4 2822   5.126   2.979   5.973  0.1431 -0.9822  0.5093
    11RH     S2 2823   5.390   2.872   6.126  0.4370  0.1820  0.0968
    11RH     O1 2824   5.171   3.227   5.835  0.1280 -0.1189 -0.0398
    11RH     C5 2825   5.443   3.339   5.824  0.0470  0.0678 -0.1509
    21BTZ    C6 2826   5.572   3.409   5.807 -0.1434  0.0794  0.3342
    21BTZ    C7 2827   5.690   3.367   5.863 -0.1922 -0.0910  0.3101
    21BTZ    C8 2828   5.567   3.538   5.746  0.0478  0.0618  0.2805
    21BTZ    C9 2829   5.809   3.449   5.861 -0.0566 -0.2859  0.2325
    21BTZ   C10 2830   5.809   3.573   5.803  0.1275 -0.3101  0.1791
    21BTZ   C11 2831   5.688   3.622   5.744  0.1856 -0.1363  0.2016
    21BTZ    N2 2832   5.458   3.590   5.689  0.1123  0.2166  0.2971
    21BTZ    N3 2833   5.675   3.741   5.685  0.3608 -0.1408  0.1549
    21BTZ    S3 2834   5.506   3.752   5.628  0.3571  0.1135  0.2108
    31IDT   C12 2835   5.939   3.646   5.808 -0.1702 -0.6422 -0.3417
    31IDT   C13 2836   5.968   3.757   5.732 -0.2367 -0.6849 -0.4302
    31IDT   C14 2837   6.105   3.795   5.739 -0.2959 -0.4849 -0.3073
    31IDT   C15 2838   6.183   3.713   5.818 -0.2749 -0.2889 -0.1250
    31IDT    S4 2839   6.086   3.581   5.892 -0.1776 -0.3428 -0.0942
    4IDB    C16 2840   6.318   3.763   5.825 -0.4301 -0.2728 -0.3015
    4IDB    C17 2841   6.342   3.858   5.722 -0.2609 -0.3157 -0.3035
    51IDQ   C18 2842   6.203   3.898   5.664  0.0662 -0.3898 -0.7333
    4IDB    C19 2843   6.471   3.900   5.691 -0.2181 -0.2387 -0.0272
    51IDQ   C20 2844   6.178   4.051   5.697  0.6050 -0.0890 -0.1854
    51IDQ   C21 2845   6.179   3.876   5.512 -0.0684  0.1932  0.7272
    51IDQ   C22 2846   6.287   3.797   5.429 -0.0104 -0.1052 -0.1389
    51IDQ   C23 2847   6.050   4.109   5.774 -0.2750  0.1833  0.1315
    51IDQ   C24 2848   6.260   3.791   5.280  0.6049  0.2704  0.3079
    51IDQ   C25 2849   6.285   3.921   5.200  0.2980 -0.4197 -1.0204
    51IDQ   C26 2850   6.302   3.898   5.056  0.0995 -0.3099  0.0842
    51IDQ   C27 2851   6.424   3.815   5.019 -0.2773  0.1902 -0.5899
    51IDQ   C28 2852   6.457   3.799   4.876  0.1456  0.0265  0.2103
    51IDQ   C29 2853   6.595   3.731   4.853  0.6771  0.3384 -0.0338
    51IDQ   C30 2854   6.086   4.259   5.789  0.2256  0.3271  0.0902
    51IDQ   C31 2855   5.970   4.340   5.848 -0.4297  0.5573 -0.6073
    51IDQ   C32 2856   6.017   4.480   5.894  0.3050  0.2300  0.4081
    51IDQ   C33 2857   6.059   4.581   5.786  0.4004 -0.4803  0.1098
    51IDQ   C34 2858   5.958   4.645   5.695 -0.2711 -0.4116 -0.0889
    51IDQ   C35 2859   5.947   4.561   5.567  0.1428 -0.3669 -0.1770
    4IDB    C36 2860   6.424   3.707   5.898 -0.5580 -0.1518 -0.0213
    4IDB    C37 2861   6.556   3.751   5.865 -0.5120 -0.0744  0.2587
    11RH    C38 2862   5.137   2.855   5.883 -0.5437  0.0451  0.1477
    4IDB    C39 2863   6.577   3.845   5.764 -0.3462 -0.1177  0.2529
    62IDT   C40 2864   6.718   3.882   5.761 -0.0986 -0.2474  0.2678
    72IDQ   C41 2865   6.695   3.701   5.916  0.3293  0.7019  0.2110
    62IDT   C42 2866   6.790   3.804   5.849 -0.0879  0.0197  0.4981
    72IDQ   C43 2867   6.731   3.556   5.841  0.3091 -0.1922  0.0332
    72IDQ   C44 2868   6.683   3.677   6.068 -0.8269  0.2023  0.3651
    62IDT    S5 2869   6.820   4.008   5.685 -0.1456 -0.3735 -0.0076
    62IDT   C45 2870   6.961   3.946   5.781 -0.1484 -0.0424  0.2140
    62IDT   C46 2871   6.927   3.840   5.860 -0.1161  0.1360  0.4680
    82BTZ   C47 2872   7.099   3.992   5.755 -0.0139 -0.0772  0.1377
    82BTZ   C48 2873   7.138   4.013   5.625 -0.0481  0.1845  0.1682
    82BTZ   C49 2874   7.274   4.046   5.591 -0.1069  0.4842  0.2186
    82BTZ   C50 2875   7.371   4.058   5.687 -0.1316  0.5219  0.2388
    82BTZ   C51 2876   7.197   4.004   5.859 -0.0377 -0.0498  0.1570
    82BTZ   C52 2877   7.335   4.037   5.824 -0.0976  0.2549  0.2084
    92RH    C53 2878   7.512   4.094   5.657 -0.3083 -0.0703 -0.1915
    82BTZ    N4 2879   7.171   3.986   5.989 -0.0088 -0.2877  0.1312
    82BTZ    N5 2880   7.421   4.047   5.926 -0.1167  0.2620  0.2240
    82BTZ    S6 2881   7.326   4.012   6.074 -0.0578 -0.1288  0.1723
    92RH    C54 2882   7.581   4.123   5.546 -0.1475 -0.0900 -0.0964
    92RH     S7 2883   7.515   4.142   5.376  0.0628  0.1126 -0.1587
    92RH    C55 2884   7.728   4.146   5.545 -0.1148 -0.2865  0.0794
    92RH     O2 2885   7.803   4.141   5.644 -0.2297 -0.4528  0.1585
    92RH     N6 2886   7.775   4.175   5.415  0.0669 -0.2630  0.1493
    92RH    C56 2887   7.683   4.178   5.312  0.1837 -0.0719  0.0509
    92RH    C57 2888   7.918   4.209   5.398 -0.1696 -0.3060  0.1165
    92RH    C58 2889   7.951   4.362   5.397  0.3002  0.7011 -0.0352
    92RH     S8 2890   7.713   4.210   5.149  0.4051 -0.0032  0.1034
    72IDQ   C59 2891   6.805   3.680   6.158  0.3047  0.0336  0.2144
    72IDQ   C60 2892   6.931   3.581   6.147  0.2988 -0.3940 -0.7531
    72IDQ   C61 2893   6.888   3.434   6.177  0.1356 -0.1855  0.9029
    72IDQ   C62 2894   6.994   3.331   6.135 -0.1468 -0.7073  0.1822
    72IDQ   C63 2895   6.962   3.186   6.168 -0.1844 -0.2846 -0.3583
    72IDQ   C64 2896   6.913   3.112   6.051 -0.2865  0.5459 -0.2831
    72IDQ   C65 2897   6.892   2.970   6.101 -0.0633  0.4251  0.0639
    72IDQ   C66 2898   6.625   3.449   5.856 -0.7140  0.0927 -0.7338
    72IDQ   C67 2899   6.668   3.313   5.810  0.1206  0.6226  0.4232
    72IDQ   C68 2900   6.574   3.195   5.827  0.3745 -0.1611 -0.2531
    72IDQ   C69 2901   6.597   3.091   5.726  0.1097 -0.3648  0.3076
    72IDQ   C70 2902   6.500   2.970   5.719  0.5862 -0.7573  0.4614
    72IDQ   C71 2903   6.524   2.866   5.823  0.4586 -0.2517  0.1108
    72IDQ   C72 2904   6.417   2.753   5.821  0.4586 -0.6375 -0.3926
    11RH     C1 2905   5.414   2.191   5.663  0.1389 -0.1502  0.0527
    11RH     C2 2906   5.480   2.300   5.586  0.0480 -0.1335 -0.0025
    11RH     N1 2907   5.489   2.156   5.777  0.2078 -0.0827  0.0288
    11RH     S1 2908   5.636   2.349   5.670  0.0589 -0.0301 -0.0825
    11RH     C3 2909   5.606   2.224   5.802  0.1831 -0.0140 -0.0390
    11RH     C4 2910   5.433   2.052   5.863 -0.2119 -0.0065  0.0904
    11RH     S2 2911   5.713   2.201   5.931  0.2513  0.0739 -0.0801
    11RH     O1 2912   5.307   2.137   5.632  0.1549 -0.2146  0.1129
    11RH     C5 2913   5.430   2.351   5.473 -0.0287 -0.1873  0.0067
    21BTZ    C6 2914   5.467   2.461   5.377 -0.0982  0.2710  0.2977
    21BTZ    C7 2915   5.574   2.542   5.404  0.0160  0.2009  0.0616
    21BTZ    C8 2916   5.383   2.493   5.265 -0.0491  0.0618  0.2002
    21BTZ    C9 2917   5.603   2.658   5.323  0.1832 -0.0765 -0.2800
    21BTZ   C10 2918   5.526   2.692   5.215  0.2357 -0.2834 -0.3851
    21BTZ   C11 2919   5.413   2.610   5.183  0.1208 -0.2202 -0.1471
    21BTZ    N2 2920   5.276   2.421   5.229 -0.1491  0.1047  0.4071
    21BTZ    N3 2921   5.330   2.633   5.081  0.1572 -0.4039 -0.2191
    21BTZ    S3 2922   5.207   2.503   5.085 -0.0279 -0.2204  0.1617
    31IDT   C12 2923   5.550   2.819   5.145 -0.2403  0.5251 -0.0785
    31IDT   C13 2924   5.514   2.852   5.017 -0.2337  0.6578 -0.0457
    31IDT   C14 2925   5.566   2.979   4.977  0.1580  0.4936 -0.0737
    31IDT   C15 2926   5.641   3.043   5.073  0.4513  0.2352 -0.1281
    31IDT    S4 2927   5.652   2.947   5.224  0.2529  0.1792 -0.1479
    4IDB    C16 2928   5.686   3.166   5.018  0.2515 -0.2380 -0.2068
    4IDB    C17 2929   5.629   3.182   4.889  0.0336 -0.1777 -0.1037
    51IDQ   C18 2930   5.548   3.058   4.847  0.1312 -0.2732  0.5200
    4IDB    C19 2931   5.652   3.297   4.814 -0.0799 -0.1493 -0.0959
    51IDQ   C20 2932   5.399   3.102   4.802  0.0135 -0.5535  0.2059
    51IDQ   C21 2933   5.608   2.974   4.736  0.0864  0.5650  0.5602
    51IDQ   C22 2934   5.742   3.016   4.664  0.1499  0.4139 -0.3636
    51IDQ   C23 2935   5.271   3.055   4.873  0.3078 -0.0735  0.6918
    51IDQ   C24 2936   5.767   2.946   4.533  0.1746 -0.0152  0.6719
    51IDQ   C25 2937   5.778   2.793   4.533  0.0260  0.5253 -0.3102
    51IDQ   C26 2938   5.809   2.725   4.401  0.0598 -0.0922  0.3579
    51IDQ   C27 2939   5.748   2.586   4.379 -0.0346  0.0509  0.3722
    51IDQ   C28 2940   5.804   2.509   4.260 -0.0950 -0.3356  0.1322
    51IDQ   C29 2941   5.737   2.367   4.250 -0.1089 -0.5266  0.0765
    51IDQ   C30 2942   5.244   3.117   5.008  0.3418 -0.0053  0.4256
    51IDQ   C31 2943   5.117   3.063   5.085 -0.1398 -0.0653 -0.2301
    51IDQ   C32 2944   5.107   2.917   5.107 -0.2931  0.6453  0.6345
    51IDQ   C33 2945   4.967   2.882   5.154  0.2222  0.3446  0.1667
    51IDQ   C34 2946   4.934   2.740   5.120  0.2247 -0.1566  0.1495
    51IDQ   C35 2947   4.803   2.708   5.190  0.1426  0.0803  0.0417
    4IDB    C36 2948   5.768   3.266   5.075  0.3575 -0.2704 -0.3028
    4IDB    C37 2949   5.791   3.382   4.997  0.2390 -0.2406 -0.2933
    11RH    C38 2950   5.335   2.118   5.954 -0.4421  0.0975 -0.4824
    4IDB    C39 2951   5.734   3.397   4.870  0.0264 -0.1817 -0.1921
    62IDT   C40 2952   5.780   3.524   4.815 -0.0531  0.1435  0.3190
    72IDQ   C41 2953   5.871   3.514   5.031 -0.1766 -0.3693 -0.2118
    62IDT   C42 2954   5.868   3.591   4.898 -0.4122  0.7077  0.2596
    72IDQ   C43 2955   6.013   3.486   5.089 -0.3587  0.0659  0.4066
    72IDQ   C44 2956   5.796   3.580   5.150 -0.2072 -0.5467  0.0428
    62IDT    S5 2957   5.763   3.605   4.656 -0.0477 -0.4335  0.0188
    62IDT   C45 2958   5.882   3.731   4.712 -0.5563  0.1468 -0.1810
    62IDT   C46 2959   5.926   3.708   4.839 -0.6974  0.7103 -0.0230
    82BTZ   C47 2960   5.924   3.843   4.624  0.1201 -0.1448 -0.1146
    82BTZ   C48 2961   5.880   3.840   4.494  0.1796 -0.2111 -0.1330
    82BTZ   C49 2962   5.899   3.951   4.405  0.1601 -0.2304 -0.1616
    82BTZ   C50 2963   5.962   4.066   4.446  0.0811 -0.1835 -0.1718
    82BTZ   C51 2964   5.990   3.961   4.671  0.0367 -0.0938 -0.1240
    82BTZ   C52 2965   6.010   4.074   4.581  0.0168 -0.1135 -0.1532
    92RH    C53 2966   5.990   4.188   4.360  0.3230  0.2316 -0.0730
    82BTZ    N4 2967   6.037   3.976   4.796 -0.0265 -0.0277 -0.1079
    82BTZ    N5 2968   6.072   4.181   4.632 -0.0623 -0.0633 -0.1605
    82BTZ    S6 2969   6.109   4.139   4.802 -0.1162  0.0131 -0.1300
    92RH    C54 2970   5.971   4.228   4.234  0.2733  0.1026 -0.1068
    92RH     S7 2971   5.881   4.137   4.102  0.1862 -0.0140  0.0319
    92RH    C55 2972   6.023   4.356   4.180  0.2817  0.0325 -0.2677
    92RH     O2 2973   6.088   4.440   4.244  0.3346  0.0837 -0.3879
    92RH     N6 2974   5.989   4.372   4.044  0.2212 -0.1029 -0.2694
    92RH    C56 2975   5.916   4.273   3.982  0.1653 -0.1497 -0.1295
    92RH    C57 2976   6.024   4.495   3.974 -0.4707 -0.2485 -0.9350
    92RH    C58 2977   6.153   4.518   3.893 -0.0313 -0.2002 -0.9250
    92RH     S8 2978   5.863   4.268   3.822  0.0877 -0.3057 -0.0995
    72IDQ   C59 2979   5.838   3.715   5.199  0.8661 -1.0101  0.4095
    72IDQ   C60 2980   5.773   3.760   5.330 -0.0875  0.4909  0.3327
    72IDQ   C61 2981   5.797   3.908   5.337 -0.4869 -0.8229 -0.8520
    72IDQ   C62 2982   5.746   3.963   5.471  0.3112 -0.4729  0.2316
    72IDQ   C63 2983   5.753   4.114   5.480  0.7658 -0.4922  0.3231
    72IDQ   C64 2984   5.710   4.154   5.616 -0.2394 -0.3081 -0.7208
    72IDQ   C65 2985   5.689   4.305   5.620 -0.1271 -0.3441  0.3332
    72IDQ   C66 2986   6.118   3.414   4.997  0.3777  0.1893 -0.0622
    72IDQ   C67 2987   6.260   3.389   5.050  0.2089 -0.1333 -0.1735
    72IDQ   C68 2988   6.277   3.299   5.173 -0.2156 -0.3842 -0.0589
    72IDQ   C69 2989   6.235   3.155   5.159  0.2580  0.5752 -0.7182
    72IDQ   C70 2990   6.280   3.064   5.283 -0.0058 -0.3467 -0.2070
    72IDQ   C71 2991   6.269   2.913   5.253  0.3782 -0.0046  0.1036
    72IDQ   C72 2992   6.268   2.826   5.376  0.2176  0.3208  0.0954
    11RH     C1 2993   0.283   5.033   1.124 -0.0115  0.2726 -0.5531
    11RH     C2 2994   0.154   5.019   1.195  0.1506  0.1353 -0.2831
    11RH     N1 2995   0.342   5.159   1.146  0.0306  0.2362 -0.4532
    11RH     S1 2996   0.118   5.174   1.287  0.3480 -0.0325  0.0846
    11RH     C3 2997   0.275   5.249   1.226  0.2068  0.0865 -0.1362
    11RH     C4 2998   0.472   5.195   1.081 -0.6614 -0.1274  0.0342
    11RH     S2 2999   0.323   5.406   1.268  0.2919  0.0136  0.0429
    11RH     O1 3000   0.336   4.945   1.053 -0.1663  0.4041 -0.8336
    11RH     C5 3001   0.079   4.909   1.191  0.1476  0.1385 -0.3132
    21BTZ    C6 3002  -0.053   4.868   1.249 -0.1790 -0.2254 -0.0858
    21BTZ    C7 3003  -0.122   4.946   1.339 -0.2294 -0.1205 -0.2146
    21BTZ    C8 3004  -0.104   4.738   1.219 -0.1649 -0.2593  0.0344
    21BTZ    C9 3005  -0.243   4.899   1.403 -0.2679 -0.0442 -0.2319
    21BTZ   C10 3006  -0.295   4.775   1.376 -0.2562 -0.0728 -0.1202
    21BTZ   C11 3007  -0.226   4.690   1.283 -0.2040 -0.1817  0.0168
    21BTZ    N2 3008  -0.046   4.653   1.133 -0.1172 -0.3592  0.1651
    21BTZ    N3 3009  -0.267   4.568   1.250 -0.1880 -0.2192  0.1335
    21BTZ    S3 3010  -0.148   4.506   1.132 -0.1203 -0.3582  0.2737
    31IDT   C12 3011  -0.419   4.740   1.446  0.1278  0.0990 -0.1645
    31IDT   C13 3012  -0.519   4.656   1.405  0.1981 -0.0788  0.0220
    31IDT   C14 3013  -0.633   4.658   1.492  0.1924  0.0266  0.0121
    31IDT   C15 3014  -0.620   4.744   1.599  0.1183  0.2845 -0.1816
    31IDT    S4 3015  -0.461   4.828   1.599  0.0488  0.4154 -0.3682
    4IDB    C16 3016  -0.741   4.739   1.678  0.0691 -0.5462 -0.0977
    4IDB    C17 3017  -0.835   4.652   1.615 -0.1502 -0.3538 -0.0376
    51IDQ   C18 3018  -0.771   4.582   1.498 -0.5087 -0.7750  0.1354
    4IDB    C19 3019  -0.960   4.629   1.671 -0.1909 -0.0405  0.0054
    51IDQ   C20 3020  -0.768   4.424   1.522 -0.0381 -0.0199 -0.3913
    51IDQ   C21 3021  -0.847   4.612   1.361  0.4376 -1.0784 -0.6579
    51IDQ   C22 3022  -0.958   4.711   1.340  0.1330 -0.5201  0.3712
    51IDQ   C23 3023  -0.639   4.337   1.522  0.2591  0.1067 -0.2862
    51IDQ   C24 3024  -0.906   4.852   1.314 -0.8769  0.3979  0.1389
    51IDQ   C25 3025  -0.996   4.975   1.327  0.0606 -0.0555 -0.3763
    51IDQ   C26 3026  -1.046   5.001   1.472 -0.4686  0.2831  0.2304
    51IDQ   C27 3027  -0.940   5.042   1.574 -1.0881 -0.4229 -0.1314
    51IDQ   C28 3028  -0.843   5.166   1.544  0.3430 -0.3428 -0.2084
    51IDQ   C29 3029  -0.913   5.300   1.524 -0.5991 -0.7901 -0.5735
    51IDQ   C30 3030  -0.547   4.341   1.641 -0.4345  0.0785 -0.4430
    51IDQ   C31 3031  -0.460   4.216   1.655  0.0986  0.3317 -0.3931
    51IDQ   C32 3032  -0.352   4.241   1.755  0.2474  0.3471  0.0754
    51IDQ   C33 3033  -0.247   4.133   1.760 -0.1588  0.3077 -0.3558
    51IDQ   C34 3034  -0.149   4.158   1.870 -0.6678 -0.2265 -0.3093
    51IDQ   C35 3035  -0.054   4.280   1.854  0.2801  0.2377  0.0126
    4IDB    C36 3036  -0.772   4.803   1.799  0.2502 -0.4253 -0.1153
    4IDB    C37 3037  -0.900   4.778   1.855  0.2055 -0.1044 -0.0708
    11RH    C38 3038   0.593   5.160   1.173  0.1120 -0.2027  0.4528
    4IDB    C39 3039  -0.991   4.693   1.792 -0.0099  0.0806 -0.0122
    62IDT   C40 3040  -1.115   4.689   1.869  0.3653 -0.0129  0.3401
    72IDQ   C41 3041  -0.964   4.834   1.982 -0.0038  0.4489 -0.9895
    62IDT   C42 3042  -1.101   4.773   1.978  0.0366  0.2981  0.1466
    72IDQ   C43 3043  -0.957   4.994   1.988 -0.1598 -0.1693  0.2832
    72IDQ   C44 3044  -0.907   4.767   2.117  0.5965 -0.4315  0.1116
    62IDT    S5 3045  -1.280   4.618   1.859  0.4508 -0.1868  0.1472
    62IDT   C45 3046  -1.324   4.710   2.010  0.0164  0.1888 -0.2020
    62IDT   C46 3047  -1.219   4.785   2.058 -0.1611  0.4127 -0.1601
    82BTZ   C47 3048  -1.460   4.692   2.065  0.2142  0.0794 -0.0977
    82BTZ   C48 3049  -1.536   4.589   2.014  0.2227  0.1208 -0.1949
    82BTZ   C49 3050  -1.675   4.574   2.049  0.1968  0.1364 -0.2916
    82BTZ   C50 3051  -1.738   4.660   2.134  0.1623  0.1106 -0.2909
    82BTZ   C51 3052  -1.522   4.785   2.154  0.1785  0.0510 -0.0928
    82BTZ   C52 3053  -1.663   4.769   2.190  0.1521  0.0669 -0.1911
    92RH    C53 3054  -1.883   4.656   2.166  0.0186  0.4394  0.0473
    82BTZ    N4 3055  -1.458   4.889   2.210  0.1669  0.0100 -0.0028
    82BTZ    N5 3056  -1.714   4.860   2.273  0.1192  0.0387 -0.1801
    82BTZ    S6 3057  -1.580   4.972   2.312  0.1209 -0.0104 -0.0408
    92RH    C54 3058  -1.981   4.577   2.121  0.1066  0.3458  0.0185
    92RH     S7 3059  -1.969   4.454   1.986  0.2892  0.2876  0.0869
    92RH    C55 3060  -2.119   4.579   2.176  0.0677  0.2726 -0.0767
    92RH     O2 3061  -2.159   4.652   2.268 -0.0482  0.2888 -0.1398
    92RH     N6 3062  -2.202   4.486   2.109  0.1809  0.1796 -0.0880
    92RH    C56 3063  -2.147   4.410   2.008  0.3053  0.1694 -0.0135
    92RH    C57 3064  -2.353   4.498   2.127 -0.0726  0.1652 -0.4902
    92RH    C58 3065  -2.416   4.404   2.230  0.1214 -0.6186 -0.7693
    92RH     S8 3066  -2.224   4.293   1.914  0.4547  0.0675 -0.0087
    72IDQ   C59 3067  -0.775   4.806   2.168  0.0836 -0.3592 -0.0252
    72IDQ   C60 3068  -0.751   4.753   2.310 -0.7890 -0.0160  0.4790
    72IDQ   C61 3069  -0.620   4.801   2.376 -0.2429 -0.2768 -0.4250
    72IDQ   C62 3070  -0.575   4.723   2.506  0.0743  0.1087 -0.3452
    72IDQ   C63 3071  -0.457   4.794   2.576  0.3809 -0.2031  0.3922
    72IDQ   C64 3072  -0.380   4.714   2.680  0.7691 -0.0709  0.2969
    72IDQ   C65 3073  -0.258   4.786   2.732  0.4652  0.3164 -0.0562
    72IDQ   C66 3074  -1.052   5.079   1.907 -0.1298 -0.0187  0.6104
    72IDQ   C67 3075  -1.043   5.226   1.931 -0.3320 -0.2862  0.0592
    72IDQ   C68 3076  -1.159   5.298   1.870  0.1684  0.0762  0.1627
    72IDQ   C69 3077  -1.180   5.448   1.897 -0.5506  0.2106 -0.3930
    72IDQ   C70 3078  -1.205   5.486   2.042 -0.0545  0.0657  0.5627
    72IDQ   C71 3079  -1.218   5.639   2.059 -0.1597 -0.3854 -1.3101
    72IDQ   C72 3080  -1.226   5.684   2.208  0.0641 -0.3545 -0.1245
    11RH     C1 3081   6.059   5.851   4.914 -0.2459  0.3424  0.0445
    11RH     C2 3082   6.166   5.916   4.994 -0.0926  0.1729 -0.0216
    11RH     N1 3083   6.052   5.904   4.783 -0.0953  0.2023 -0.0218
    11RH     S1 3084   6.250   6.043   4.892  0.2398 -0.1597 -0.1662
    11RH     C3 3085   6.140   6.004   4.749  0.1602 -0.0587 -0.1326
    11RH     C4 3086   5.973   5.831   4.678  0.1622  0.2634 -0.7072
    11RH     S2 3087   6.153   6.084   4.601  0.3799 -0.2680 -0.2286
    11RH     O1 3088   5.984   5.761   4.954 -0.4777  0.5778  0.1450
    11RH     C5 3089   6.193   5.884   5.120 -0.1894  0.2574  0.0213
    21BTZ    C6 3090   6.305   5.920   5.209 -0.0903 -0.3480  0.0852
    21BTZ    C7 3091   6.416   5.992   5.173 -0.0097 -0.5283 -0.0316
    21BTZ    C8 3092   6.286   5.888   5.348 -0.0485 -0.2298  0.1183
    21BTZ    C9 3093   6.512   6.037   5.270  0.1154 -0.6013 -0.1214
    21BTZ   C10 3094   6.498   6.009   5.404  0.1595 -0.4937 -0.0941
    21BTZ   C11 3095   6.384   5.933   5.447  0.0784 -0.3041  0.0271
    21BTZ    N2 3096   6.182   5.818   5.395 -0.1184 -0.0520  0.2291
    21BTZ    N3 3097   6.359   5.900   5.574  0.1107 -0.1857  0.0645
    21BTZ    S3 3098   6.206   5.807   5.572 -0.0227  0.0301  0.2214
    31IDT   C12 3099   6.598   6.057   5.501 -0.0099 -0.1140 -0.1275
    31IDT   C13 3100   6.575   6.088   5.632 -0.0947 -0.0504 -0.1570
    31IDT   C14 3101   6.684   6.158   5.693 -0.1401 -0.0069 -0.1252
    31IDT   C15 3102   6.790   6.181   5.608 -0.0905 -0.0373 -0.0713
    31IDT    S4 3103   6.760   6.115   5.443  0.0186 -0.1241 -0.0566
    4IDB    C16 3104   6.897   6.244   5.689 -0.5519  0.5563  0.1091
    4IDB    C17 3105   6.850   6.255   5.823 -0.3204  0.1456  0.2282
    51IDQ   C18 3106   6.705   6.218   5.829 -0.3724  0.7793  0.1292
    4IDB    C19 3107   6.932   6.306   5.924 -0.2200  0.0417  0.1994
    51IDQ   C20 3108   6.686   6.120   5.955  0.4782 -0.3875  0.2415
    51IDQ   C21 3109   6.600   6.334   5.841  0.1131  0.3058 -0.4662
    51IDQ   C22 3110   6.636   6.483   5.829 -0.6045 -0.8704 -0.4784
    51IDQ   C23 3111   6.643   5.970   5.935  0.0081  0.1735 -0.1412
    51IDQ   C24 3112   6.682   6.553   5.701 -0.3162 -0.3466 -0.5280
    51IDQ   C25 3113   6.607   6.520   5.577  0.4489  0.0938 -0.2259
    51IDQ   C26 3114   6.662   6.580   5.450  0.3198  0.9382  0.1766
    51IDQ   C27 3115   6.574   6.564   5.324 -0.2514  0.3624  0.1807
    51IDQ   C28 3116   6.537   6.418   5.289 -0.2227 -0.0640  0.2098
    51IDQ   C29 3117   6.469   6.417   5.153 -0.0932 -0.2423 -0.3477
    51IDQ   C30 3118   6.625   5.890   6.056  0.6431  0.2014 -0.7597
    51IDQ   C31 3119   6.623   5.737   6.056  0.2247 -0.1458  0.3427
    51IDQ   C32 3120   6.484   5.675   6.039  0.1897 -0.2046  0.0023
    51IDQ   C33 3121   6.502   5.525   6.027 -0.2152 -0.1886 -0.2265
    51IDQ   C34 3122   6.383   5.436   6.050  0.4209 -0.5017  0.5168
    51IDQ   C35 3123   6.430   5.293   6.036 -0.1332 -0.1153 -0.0222
    4IDB    C36 3124   7.027   6.284   5.654 -0.6850  0.8675 -0.0405
    4IDB    C37 3125   7.109   6.336   5.758 -0.5795  0.7557 -0.0676
    11RH    C38 3126   5.833   5.882   4.655  0.2875 -0.1597 -0.5607
    4IDB    C39 3127   7.062   6.346   5.889 -0.3531  0.3527  0.0498
    62IDT   C40 3128   7.159   6.406   5.969 -0.4041  0.0411  0.3648
    72IDQ   C41 3129   7.248   6.403   5.749 -0.0575  0.2324 -0.0234
    62IDT   C42 3130   7.270   6.441   5.896 -0.7790  0.6145  0.0548
    72IDQ   C43 3131   7.244   6.530   5.646 -0.4126  0.0422 -0.6142
    72IDQ   C44 3132   7.346   6.288   5.709 -0.0897 -0.5660  0.6604
    62IDT    S5 3133   7.174   6.455   6.142  0.0799 -0.4521  0.4677
    62IDT   C45 3134   7.338   6.523   6.103 -0.2670  0.1734  0.0665
    62IDT   C46 3135   7.371   6.507   5.971 -0.7020  0.6899 -0.1142
    82BTZ   C47 3136   7.402   6.598   6.207  0.1966  0.1438 -0.3571
    82BTZ   C48 3137   7.338   6.604   6.328  0.0375  0.0361 -0.4345
    82BTZ   C49 3138   7.393   6.677   6.440 -0.1006 -0.0746 -0.2916
    82BTZ   C50 3139   7.512   6.745   6.429 -0.0793 -0.0773 -0.0714
    82BTZ   C51 3140   7.526   6.666   6.192  0.2252  0.1457 -0.1277
    82BTZ   C52 3141   7.583   6.741   6.305  0.0849  0.0332  0.0175
    92RH    C53 3142   7.568   6.826   6.542 -0.2219  0.2929  0.0708
    82BTZ    N4 3143   7.598   6.668   6.079  0.3744  0.2450 -0.0329
    82BTZ    N5 3144   7.699   6.803   6.282  0.1214  0.0420  0.2292
    82BTZ    S6 3145   7.743   6.767   6.113  0.3411  0.1978  0.2520
    92RH    C54 3146   7.524   6.843   6.667 -0.1231  0.0865  0.1343
    92RH     S7 3147   7.384   6.756   6.748  0.1793 -0.3224  0.2259
    92RH    C55 3148   7.586   6.939   6.763 -0.2488  0.1615  0.1404
    92RH     O2 3149   7.682   7.013   6.739 -0.4562  0.4188  0.0886
    92RH     N6 3150   7.520   6.936   6.888 -0.1024 -0.0996  0.2139
    92RH    C56 3151   7.413   6.850   6.904  0.1252 -0.3746  0.2675
    92RH    C57 3152   7.569   7.024   6.996 -0.2428  0.3876 -0.1845
    92RH    C58 3153   7.695   6.970   7.068 -0.4142 -0.2351 -0.1252
    92RH     S8 3154   7.319   6.828   7.042  0.3338 -0.7170  0.3585
    72IDQ   C59 3155   7.488   6.315   5.672  0.0689  0.2313  0.5081
    72IDQ   C60 3156   7.572   6.189   5.685  0.0070 -0.2177  0.0834
    72IDQ   C61 3157   7.719   6.211   5.647  0.1064  0.2140  0.0694
    72IDQ   C62 3158   7.788   6.322   5.735 -0.1792  0.0974  0.0021
    72IDQ   C63 3159   7.811   6.275   5.882 -0.2584 -0.3718 -0.0833
    72IDQ   C64 3160   7.900   6.384   5.946 -0.0680  0.4761 -0.5278
    72IDQ   C65 3161   7.934   6.364   6.094 -0.3131  0.4534 -0.6930
    72IDQ   C66 3162   7.144   6.644   5.659  0.7251 -0.0896  0.5854
    72IDQ   C67 3163   7.176   6.758   5.560  0.3496  0.3374 -0.1030
    72IDQ   C68 3164   7.285   6.851   5.625  0.3617  0.2803 -0.2759
    72IDQ   C69 3165   7.344   6.955   5.529 -0.0640 -0.0605  0.5974
    72IDQ   C70 3166   7.466   7.028   5.591 -0.4508  0.1478  0.7410
    72IDQ   C71 3167   7.513   7.139   5.507  0.3640 -0.5473 -0.7764
    72IDQ   C72 3168   7.645   7.198   5.566 -0.0260  0.3884  0.4142
    11RH     C1 3169   3.354   2.210   0.114 -0.0077  0.2225 -0.0434
    11RH     C2 3170   3.219   2.217   0.053 -0.0105  0.0569 -0.0565
    11RH     N1 3171   3.348   2.176   0.251  0.0089  0.4223  0.0079
    11RH     S1 3172   3.092   2.178   0.180  0.0091  0.1745 -0.0003
    11RH     C3 3173   3.224   2.154   0.307  0.0199  0.4368  0.0376
    11RH     C4 3174   3.473   2.156   0.330  0.1673 -0.6586  0.0383
    11RH     S2 3175   3.189   2.113   0.467  0.0401  0.6545  0.0994
    11RH     O1 3176   3.461   2.232   0.055 -0.0185  0.1940 -0.0731
    11RH     C5 3177   3.197   2.247  -0.075 -0.0251 -0.1462 -0.1028
    21BTZ    C6 3178   3.084   2.260  -0.165 -0.1468  0.4974 -0.0329
    21BTZ    C7 3179   2.955   2.245  -0.120 -0.1302  0.4649  0.0038
    21BTZ    C8 3180   3.105   2.295  -0.302 -0.1922  0.4303 -0.0571
    21BTZ    C9 3181   2.842   2.263  -0.208 -0.1571  0.3656  0.0185
    21BTZ   C10 3182   2.858   2.296  -0.340 -0.2008  0.2988 -0.0036
    21BTZ   C11 3183   2.990   2.313  -0.391 -0.2196  0.3293 -0.0422
    21BTZ    N2 3184   3.226   2.313  -0.357 -0.2123  0.4532 -0.0931
    21BTZ    N3 3185   3.018   2.346  -0.518 -0.2617  0.2711 -0.0662
    21BTZ    S3 3186   3.196   2.355  -0.529 -0.2681  0.3445 -0.1100
    31IDT   C12 3187   2.743   2.334  -0.422  0.2129 -0.4469  0.0537
    31IDT   C13 3188   2.662   2.439  -0.390  0.1072 -0.6179  0.3496
    31IDT   C14 3189   2.565   2.468  -0.491  0.1214 -0.3899  0.4002
    31IDT   C15 3190   2.572   2.385  -0.601  0.2377 -0.0446  0.1438
    31IDT    S4 3191   2.703   2.263  -0.585  0.3393  0.0194 -0.1848
    4IDB    C16 3192   2.476   2.431  -0.703 -0.0517  0.0117  0.1568
    4IDB    C17 3193   2.417   2.553  -0.659 -0.0914  0.0403  0.0226
    51IDQ   C18 3194   2.444   2.562  -0.507  0.2803  0.6022 -0.0117
    4IDB    C19 3195   2.346   2.633  -0.747 -0.1422 -0.0937 -0.0580
    51IDQ   C20 3196   2.476   2.714  -0.480 -0.2514 -0.2073  0.4752
    51IDQ   C21 3197   2.324   2.512  -0.412 -0.1881  0.4014  0.7661
    51IDQ   C22 3198   2.190   2.459  -0.471 -0.5602  0.2388 -0.3421
    51IDQ   C23 3199   2.620   2.769  -0.468  0.7728 -0.2356  0.0420
    51IDQ   C24 3200   2.093   2.411  -0.359 -0.4127  0.2735  0.5126
    51IDQ   C25 3201   1.962   2.353  -0.419 -0.1523 -0.1997  0.2368
    51IDQ   C26 3202   1.840   2.318  -0.332  0.3039 -0.0793  0.5913
    51IDQ   C27 3203   1.799   2.425  -0.232  0.1659  0.0771  0.1744
    51IDQ   C28 3204   1.665   2.385  -0.159  0.3283 -0.5238  0.7115
    51IDQ   C29 3205   1.593   2.501  -0.092  0.3260 -0.0014 -1.1000
    51IDQ   C30 3206   2.623   2.928  -0.476  0.0021  0.3272  0.3057
    51IDQ   C31 3207   2.767   2.979  -0.469 -0.0194 -0.4180 -0.4809
    51IDQ   C32 3208   2.800   3.132  -0.467 -0.0859  0.8682 -0.0674
    51IDQ   C33 3209   2.753   3.224  -0.356  0.3423 -0.9623 -0.2217
    51IDQ   C34 3210   2.779   3.168  -0.216 -0.0862  0.1117  0.4783
    51IDQ   C35 3211   2.709   3.233  -0.095 -0.6903  0.3069 -0.0121
    4IDB    C36 3212   2.464   2.387  -0.835 -0.0626 -0.1521  0.2109
    4IDB    C37 3213   2.391   2.471  -0.924 -0.1147 -0.2874  0.1268
    11RH    C38 3214   3.520   2.014   0.341  0.2532 -0.0441  0.2965
    4IDB    C39 3215   2.334   2.590  -0.880 -0.1531 -0.2574 -0.0040
    62IDT   C40 3216   2.269   2.652  -0.991  0.0202  0.2104  0.3459
    72IDQ   C41 3217   2.366   2.447  -1.071 -0.6826 -0.3710  0.8623
    62IDT   C42 3218   2.279   2.571  -1.103  0.0958  0.1009  0.4314
    72IDQ   C43 3219   2.276   2.318  -1.113 -0.0277 -0.6111  0.0779
    72IDQ   C44 3220   2.506   2.439  -1.154  0.2734  0.1713 -0.1742
    62IDT    S5 3221   2.174   2.801  -1.024 -0.1318  0.0802  0.1905
    62IDT   C45 3222   2.153   2.744  -1.196 -0.0827 -0.1254  0.2524
    62IDT   C46 3223   2.213   2.623  -1.218  0.0377 -0.0890  0.3786
    82BTZ   C47 3224   2.077   2.828  -1.288  0.0026 -0.0462  0.2727
    82BTZ   C48 3225   2.114   2.829  -1.420  0.2757  0.0138  0.3496
    82BTZ   C49 3226   2.044   2.908  -1.518  0.6087  0.2205  0.2763
    82BTZ   C50 3227   1.937   2.986  -1.485  0.6681  0.3669  0.1263
    82BTZ   C51 3228   1.965   2.909  -1.248  0.0518  0.1016  0.1154
    82BTZ   C52 3229   1.894   2.989  -1.348  0.3903  0.3117  0.0409
    92RH    C53 3230   1.863   3.062  -1.585 -0.1320 -0.0582  0.0292
    82BTZ    N4 3231   1.919   2.917  -1.123 -0.1943  0.0617  0.0285
    82BTZ    N5 3232   1.791   3.061  -1.303  0.4163  0.4407 -0.1057
    82BTZ    S6 3233   1.780   3.029  -1.128  0.0006  0.2958 -0.1561
    92RH    C54 3234   1.869   3.072  -1.719 -0.0009 -0.0345  0.0372
    92RH     S7 3235   1.965   2.964  -1.832 -0.0568 -0.1457  0.0951
    92RH    C55 3236   1.797   3.175  -1.797  0.2173  0.0898 -0.0007
    92RH     O2 3237   1.724   3.263  -1.749  0.3030  0.1850 -0.0439
    92RH     N6 3238   1.822   3.162  -1.935  0.3199  0.0881  0.0177
    92RH    C56 3239   1.905   3.061  -1.977  0.2106 -0.0225  0.0660
    92RH    C57 3240   1.765   3.264  -2.035 -0.2490 -0.0938 -0.2697
    92RH    C58 3241   1.859   3.386  -2.053  0.6415 -0.2390 -0.4004
    92RH     S8 3242   1.951   3.024  -2.136  0.2960 -0.0494  0.0968
    72IDQ   C59 3243   2.602   2.560  -1.154  0.3955  0.3302  0.0746
    72IDQ   C60 3244   2.699   2.539  -1.268 -0.6823 -0.3258 -0.1630
    72IDQ   C61 3245   2.829   2.628  -1.258  0.7035  0.3646  0.1549
    72IDQ   C62 3246   2.925   2.607  -1.373 -0.2347 -0.2264 -0.5479
    72IDQ   C63 3247   2.875   2.633  -1.515 -0.2671 -0.8517 -0.0086
    72IDQ   C64 3248   2.978   2.606  -1.627  1.1371  0.1072  0.1063
    72IDQ   C65 3249   2.921   2.639  -1.768 -0.3607 -0.7997  0.2341
    72IDQ   C66 3250   2.194   2.247  -1.000 -0.2736  0.4404 -0.1171
    72IDQ   C67 3251   2.087   2.153  -1.036 -0.0650  0.3867  0.4394
    72IDQ   C68 3252   2.049   2.068  -0.911 -0.5867 -0.1035 -0.4203
    72IDQ   C69 3253   1.962   1.953  -0.937  1.3152 -0.4490  1.1141
    72IDQ   C70 3254   1.955   1.850  -0.826  0.0922 -0.0550 -0.1680
    72IDQ   C71 3255   1.886   1.721  -0.867  0.1518  0.0086 -0.4451
    72IDQ   C72 3256   1.908   1.612  -0.766  0.2341  0.5858 -0.6584
    11RH     C1 3257   3.260   0.131   6.176 -0.0441  0.4094 -0.1559
    11RH     C2 3258   3.401   0.108   6.216 -0.1026  0.2031 -0.0671
    11RH     N1 3259   3.187   0.010   6.170 -0.2207  0.5168 -0.1905
    11RH     S1 3260   3.428  -0.072   6.243 -0.3861  0.1634 -0.0350
    11RH     C3 3261   3.253  -0.107   6.201 -0.4136  0.4216 -0.1405
    11RH     C4 3262   3.044   0.005   6.129 -0.3774 -1.1178 -0.6335
    11RH     S2 3263   3.189  -0.263   6.202 -0.6468  0.5152 -0.1664
    11RH     O1 3264   3.210   0.242   6.150  0.1359  0.4826 -0.1962
    11RH     C5 3265   3.491   0.206   6.229  0.0354  0.0703 -0.0197
    21BTZ    C6 3266   3.636   0.209   6.267  0.2234  0.1792  0.6358
    21BTZ    C7 3267   3.710   0.101   6.307  0.3045  0.2644  0.7141
    21BTZ    C8 3268   3.699   0.337   6.259  0.1783  0.1867  0.3566
    21BTZ    C9 3269   3.849   0.114   6.343  0.3449  0.3606  0.5230
    21BTZ   C10 3270   3.914   0.235   6.338  0.3043  0.3715  0.2541
    21BTZ   C11 3271   3.841   0.350   6.295  0.2195  0.2845  0.1624
    21BTZ    N2 3272   3.638   0.449   6.221  0.0992  0.1092  0.2559
    21BTZ    N3 3273   3.893   0.473   6.286  0.1734  0.2856 -0.0942
    21BTZ    S3 3274   3.760   0.579   6.229  0.0734  0.1589 -0.0985
    31IDT   C12 3275   4.051   0.246   6.395 -0.2114 -0.2695 -0.0198
    31IDT   C13 3276   4.125   0.356   6.429 -0.2043 -0.1577 -0.3899
    31IDT   C14 3277   4.240   0.323   6.507 -0.0163  0.0637 -0.5716
    31IDT   C15 3278   4.255   0.189   6.533  0.1208  0.1220 -0.3418
    31IDT    S4 3279   4.122   0.092   6.460  0.0215 -0.1010  0.1269
    4IDB    C16 3280   4.369   0.168   6.615  0.4345  0.5236 -0.4288
    4IDB    C17 3281   4.430   0.292   6.651  0.8465  0.3478 -0.5109
    51IDQ   C18 3282   4.359   0.403   6.573 -0.4103 -0.6289  0.2411
    4IDB    C19 3283   4.536   0.296   6.740  0.7410  0.0717 -0.3716
    51IDQ   C20 3284   4.331   0.517   6.677 -0.6863 -0.3786 -0.1430
    51IDQ   C21 3285   4.449   0.478   6.468 -0.2316  0.8248  0.4538
    51IDQ   C22 3286   4.579   0.419   6.416  0.0737  0.0356 -0.0005
    51IDQ   C23 3287   4.201   0.518   6.760  0.1351 -0.0205  0.0485
    51IDQ   C24 3288   4.614   0.490   6.286  0.1765 -0.1004 -0.4682
    51IDQ   C25 3289   4.735   0.431   6.208  0.1021  0.2478 -0.0337
    51IDQ   C26 3290   4.869   0.448   6.286  0.0709 -0.4066 -0.0360
    51IDQ   C27 3291   4.931   0.591   6.297  0.3414  0.8236 -0.6876
    51IDQ   C28 3292   4.965   0.653   6.165  0.5379  0.2700  0.8690
    51IDQ   C29 3293   5.089   0.740   6.165  0.2912 -1.1953 -0.6271
    51IDQ   C30 3294   4.179   0.644   6.850 -0.0309  0.5294 -0.0040
    51IDQ   C31 3295   4.168   0.781   6.784  0.2754 -0.1863  0.0908
    51IDQ   C32 3296   4.070   0.803   6.669  0.3111  0.2201  0.5964
    51IDQ   C33 3297   4.094   0.930   6.593 -0.0916 -0.5195 -0.2576
    51IDQ   C34 3298   3.989   0.969   6.486 -0.2446  0.4540 -0.4399
    51IDQ   C35 3299   4.005   1.096   6.402 -0.0837 -0.5698 -1.0953
    4IDB    C36 3300   4.414   0.046   6.669 -0.0883  0.4237 -0.2056
    4IDB    C37 3301   4.522   0.052   6.760 -0.1886  0.1409 -0.0658
    11RH    C38 3302   2.954  -0.018   6.253  0.2653  0.1290  0.6439
    4IDB    C39 3303   4.581   0.174   6.794  0.2180 -0.0283 -0.1484
    62IDT   C40 3304   4.679   0.158   6.895 -0.3479  0.1191  0.5754
    72IDQ   C41 3305   4.595  -0.062   6.829 -0.4671 -0.6241 -0.1374
    62IDT   C42 3306   4.681   0.025   6.931 -0.6335  0.2245  0.9837
    72IDQ   C43 3307   4.686  -0.143   6.727 -0.1431 -1.2214  0.2000
    72IDQ   C44 3308   4.507  -0.153   6.926 -0.0907  0.4876  0.4735
    62IDT    S5 3309   4.798   0.254   6.989  0.4558  0.0176 -0.2973
    62IDT   C45 3310   4.845   0.102   7.077  0.3585  0.1283 -0.0522
    62IDT   C46 3311   4.774  -0.007   7.035 -0.2346  0.2297  0.6294
    82BTZ   C47 3312   4.957   0.110   7.176  0.1588  0.3083  0.3292
    82BTZ   C48 3313   5.026   0.228   7.190  0.0687  0.3286  0.5987
    82BTZ   C49 3314   5.131   0.242   7.288 -0.0862  0.2533  0.7781
    82BTZ   C50 3315   5.167   0.139   7.371 -0.1506  0.1579  0.6879
    82BTZ   C51 3316   4.991  -0.001   7.260  0.0966  0.2095  0.2250
    82BTZ   C52 3317   5.098   0.014   7.359 -0.0608  0.1330  0.4074
    92RH    C53 3318   5.267   0.153   7.477 -0.1495  0.0528  0.2861
    82BTZ    N4 3319   4.931  -0.120   7.255  0.1731  0.1808 -0.0334
    82BTZ    N5 3320   5.124  -0.094   7.434 -0.1110  0.0428  0.2956
    82BTZ    S6 3321   5.011  -0.221   7.379  0.0444  0.0520 -0.0549
    92RH    C54 3322   5.345   0.252   7.521 -0.1532  0.0795  0.2324
    92RH     S7 3323   5.316   0.432   7.500 -0.0574  0.0652 -0.0403
    92RH    C55 3324   5.471   0.230   7.595 -0.2387  0.1264  0.3918
    92RH     O2 3325   5.519   0.120   7.625 -0.3153  0.1461  0.5899
    92RH     N6 3326   5.533   0.353   7.629 -0.2226  0.1467  0.2904
    92RH    C56 3327   5.472   0.470   7.591 -0.1348  0.1218  0.0694
    92RH    C57 3328   5.660   0.346   7.704 -0.1568 -0.1990 -0.4446
    92RH    C58 3329   5.786   0.326   7.623 -0.0401  0.4177  0.0110
    92RH     S8 3330   5.524   0.628   7.619 -0.0978  0.1380 -0.0894
    72IDQ   C59 3331   4.384  -0.227   6.877  0.3539 -0.3054  0.5383
    72IDQ   C60 3332   4.309  -0.320   6.979  0.1475 -0.3324 -0.0864
    72IDQ   C61 3333   4.348  -0.464   7.007  0.1812  0.3464  0.4127
    72IDQ   C62 3334   4.401  -0.543   6.887  0.3184 -0.3374 -0.0891
    72IDQ   C63 3335   4.456  -0.678   6.924 -0.3180  0.4214 -0.8997
    72IDQ   C64 3336   4.498  -0.749   6.796 -0.2455 -0.0629 -0.3350
    72IDQ   C65 3337   4.527  -0.896   6.818 -0.3633 -0.4794  0.1115
    72IDQ   C66 3338   4.769  -0.250   6.782  0.0056  0.1619  0.0551
    72IDQ   C67 3339   4.859  -0.328   6.685 -0.1261  0.0710 -0.1546
    72IDQ   C68 3340   4.789  -0.397   6.569  0.1614 -0.0423 -0.6422
    72IDQ   C69 3341   4.875  -0.507   6.510  0.4938 -0.8328  0.5303
    72IDQ   C70 3342   4.997  -0.459   6.437 -0.7008 -0.1609 -0.1271
    72IDQ   C71 3343   5.091  -0.579   6.416 -0.0945 -0.0713 -0.6371
    72IDQ   C72 3344   5.222  -0.548   6.351 -0.0313  0.5081 -0.1506
    11RH     C1 3345   0.335   2.340   1.638 -0.1342  0.2453  0.4842
    11RH     C2 3346   0.197   2.302   1.676 -0.1838  0.0389  0.1048
    11RH     N1 3347   0.425   2.322   1.745 -0.3462  0.0808  0.6355
    11RH     S1 3348   0.194   2.244   1.850 -0.5061 -0.3582 -0.0285
    11RH     C3 3349   0.376   2.273   1.865 -0.5597 -0.2323  0.4236
    11RH     C4 3350   0.576   2.342   1.722  0.5790  0.3049 -0.0191
    11RH     S2 3351   0.461   2.243   2.007 -0.8355 -0.4799  0.5378
    11RH     O1 3352   0.370   2.383   1.527  0.0663  0.5278  0.6543
    11RH     C5 3353   0.093   2.310   1.593 -0.0139  0.1369 -0.1003
    21BTZ    C6 3354  -0.051   2.285   1.603  0.0804  0.1188  0.1809
    21BTZ    C7 3355  -0.112   2.258   1.722  0.0550  0.1809  0.1820
    21BTZ    C8 3356  -0.132   2.296   1.485  0.1203 -0.0727  0.1359
    21BTZ    C9 3357  -0.255   2.240   1.732  0.0671  0.0589  0.1392
    21BTZ   C10 3358  -0.336   2.249   1.623  0.1046 -0.1249  0.0955
    21BTZ   C11 3359  -0.277   2.277   1.495  0.1326 -0.1966  0.0925
    21BTZ    N2 3360  -0.084   2.322   1.363  0.1476 -0.1494  0.1303
    21BTZ    N3 3361  -0.346   2.288   1.381  0.1700 -0.3729  0.0519
    21BTZ    S3 3362  -0.226   2.324   1.253  0.1914 -0.3883  0.0680
    31IDT   C12 3363  -0.480   2.218   1.645  0.0519  0.0940 -0.1565
    31IDT   C13 3364  -0.593   2.270   1.587  0.0622  0.2020 -0.0804
    31IDT   C14 3365  -0.713   2.209   1.635  0.0541  0.1004 -0.2255
    31IDT   C15 3366  -0.692   2.111   1.730  0.0378 -0.0853 -0.4127
    31IDT    S4 3367  -0.518   2.088   1.766  0.0311 -0.1463 -0.4198
    4IDB    C16 3368  -0.824   2.060   1.771 -0.0360  0.0782 -0.3884
    4IDB    C17 3369  -0.929   2.112   1.690 -0.1098 -0.1578 -0.4461
    51IDQ   C18 3370  -0.859   2.217   1.597  0.0367  0.3827 -0.2738
    4IDB    C19 3371  -1.060   2.068   1.706 -0.0558 -0.2871 -0.3614
    51IDQ   C20 3372  -0.907   2.154   1.456 -0.8936 -0.8411  0.4124
    51IDQ   C21 3373  -0.905   2.368   1.598  0.2863 -0.5472 -0.1771
    51IDQ   C22 3374  -1.027   2.413   1.678  0.1378  0.3065  0.7259
    51IDQ   C23 3375  -0.803   2.090   1.356  0.0228 -0.0419  0.0159
    51IDQ   C24 3376  -1.069   2.554   1.671  0.7407 -0.6684  0.4193
    51IDQ   C25 3377  -0.966   2.660   1.732  0.3458  0.4068  0.1927
    51IDQ   C26 3378  -1.005   2.803   1.737 -0.5148 -0.3338  0.9271
    51IDQ   C27 3379  -0.891   2.906   1.767  0.0475 -0.4979 -0.1035
    51IDQ   C28 3380  -0.834   2.976   1.650  0.1787 -0.5675  0.1684
    51IDQ   C29 3381  -0.751   3.105   1.686  0.0681  0.0968  0.3027
    51IDQ   C30 3382  -0.732   2.200   1.275 -0.4192  0.0111  0.0283
    51IDQ   C31 3383  -0.801   2.247   1.150  0.3645  0.6274  0.3194
    51IDQ   C32 3384  -0.721   2.355   1.084  0.7588 -0.2119  0.2029
    51IDQ   C33 3385  -0.784   2.419   0.957 -0.9258  0.5410 -0.2115
    51IDQ   C34 3386  -0.682   2.534   0.922  0.8854 -0.0141 -0.1471
    51IDQ   C35 3387  -0.711   2.592   0.781  0.7992 -0.4106  0.4648
    4IDB    C36 3388  -0.848   1.962   1.868  0.0930  0.1867 -0.2449
    4IDB    C37 3389  -0.983   1.918   1.883  0.1465  0.0519 -0.1600
    11RH    C38 3390   0.635   2.487   1.727 -0.0314 -0.1505  0.6254
    4IDB    C39 3391  -1.085   1.969   1.803  0.0730 -0.1786 -0.2178
    62IDT   C40 3392  -1.208   1.909   1.844 -0.0779  0.1012  0.1110
    72IDQ   C41 3393  -1.037   1.799   1.969 -0.1180  0.3129  0.5124
    62IDT   C42 3394  -1.187   1.812   1.939 -0.1370 -0.3194 -0.3003
    72IDQ   C43 3395  -0.980   1.802   2.118  0.5009 -0.5720  0.2467
    72IDQ   C44 3396  -1.010   1.657   1.895  0.5035  0.5548 -0.4792
    62IDT    S5 3397  -1.384   1.939   1.817 -0.0605  0.2729  0.1890
    62IDT   C45 3398  -1.420   1.812   1.942 -0.1379 -0.2589 -0.3655
    62IDT   C46 3399  -1.306   1.757   1.994 -0.1709 -0.5236 -0.5702
    82BTZ   C47 3400  -1.565   1.774   1.970  0.0970  0.1011  0.2666
    82BTZ   C48 3401  -1.585   1.649   2.020  0.0807  0.1896  0.4812
    82BTZ   C49 3402  -1.717   1.603   2.058  0.0987  0.3306  0.7233
    82BTZ   C50 3403  -1.828   1.682   2.044  0.1328  0.3829  0.7503
    82BTZ   C51 3404  -1.678   1.861   1.954  0.1328  0.1511  0.2852
    82BTZ   C52 3405  -1.811   1.815   1.991  0.1510  0.2944  0.5312
    92RH    C53 3406  -1.957   1.634   2.081 -0.1709 -0.0685  0.0611
    82BTZ    N4 3407  -1.670   1.986   1.905  0.1518  0.0749  0.0897
    82BTZ    N5 3408  -1.911   1.901   1.974  0.1845  0.3334  0.5335
    82BTZ    S6 3409  -1.838   2.050   1.906  0.1942  0.1855  0.2146
    92RH    C54 3410  -1.997   1.520   2.139 -0.0954 -0.0504  0.1496
    92RH     S7 3411  -1.889   1.384   2.199 -0.0153 -0.0210  0.0731
    92RH    C55 3412  -2.139   1.486   2.163 -0.0648 -0.0515  0.3295
    92RH     O2 3413  -2.236   1.558   2.134 -0.1044 -0.0690  0.4181
    92RH     N6 3414  -2.152   1.360   2.225  0.0167 -0.0299  0.3909
    92RH    C56 3415  -2.037   1.289   2.253  0.0548 -0.0117  0.2823
    92RH    C57 3416  -2.291   1.312   2.263 -0.4509 -0.2451 -0.4479
    92RH    C58 3417  -2.350   1.218   2.160  0.4577  0.2836 -0.3465
    92RH     S8 3418  -2.025   1.137   2.326  0.1509  0.0157  0.3235
    72IDQ   C59 3419  -0.871   1.590   1.892  0.5344  0.3612  0.0789
    72IDQ   C60 3420  -0.867   1.464   1.806  0.1147 -0.0548  0.4556
    72IDQ   C61 3421  -0.739   1.370   1.806 -0.5306 -1.0358 -0.7716
    72IDQ   C62 3422  -0.611   1.429   1.749 -0.2817  0.3356 -0.0527
    72IDQ   C63 3423  -0.511   1.309   1.750 -0.0429 -0.1430 -0.2666
    72IDQ   C64 3424  -0.380   1.345   1.687 -0.7084  0.4073  0.1742
    72IDQ   C65 3425  -0.290   1.221   1.685 -0.3670 -0.0510  0.1161
    72IDQ   C66 3426  -1.063   1.736   2.232  1.1959  0.2028  0.6151
    72IDQ   C67 3427  -0.989   1.756   2.365  0.8562 -0.1933 -0.3536
    72IDQ   C68 3428  -0.908   1.635   2.412  0.1907  0.2753 -0.1892
    72IDQ   C69 3429  -0.763   1.665   2.457 -0.0221 -0.3386  0.1139
    72IDQ   C70 3430  -0.672   1.735   2.354 -0.3419  0.3430 -0.7608
    72IDQ   C71 3431  -0.621   1.662   2.233  0.5404 -0.2453  0.0484
    72IDQ   C72 3432  -0.537   1.757   2.149  0.3796  0.3276 -0.0724
    11RH     C1 3433   2.026   6.266   1.478  0.1433 -0.1930  0.1740
    11RH     C2 3434   2.114   6.314   1.587  0.1138 -0.0533  0.1363
    11RH     N1 3435   1.918   6.190   1.528  0.0301  0.0211  0.2573
    11RH     S1 3436   2.049   6.256   1.749 -0.0607  0.3504  0.2128
    11RH     C3 3437   1.909   6.171   1.664 -0.0864  0.3153  0.2910
    11RH     C4 3438   1.821   6.134   1.433 -0.2667  0.0272 -0.8385
    11RH     S2 3439   1.791   6.085   1.749 -0.2342  0.6117  0.3880
    11RH     O1 3440   2.042   6.287   1.357  0.2525 -0.4629  0.1385
    11RH     C5 3441   2.223   6.388   1.566  0.2039 -0.2067  0.0580
    21BTZ    C6 3442   2.326   6.438   1.653 -0.0168 -0.0136 -0.1532
    21BTZ    C7 3443   2.338   6.419   1.788 -0.0585  0.0319 -0.1431
    21BTZ    C8 3444   2.421   6.523   1.587  0.0569 -0.1066 -0.1673
    21BTZ    C9 3445   2.442   6.482   1.864 -0.0302 -0.0114 -0.1463
    21BTZ   C10 3446   2.535   6.564   1.806  0.0398 -0.1000 -0.1596
    21BTZ   C11 3447   2.528   6.587   1.665  0.0857 -0.1507 -0.1705
    21BTZ    N2 3448   2.420   6.550   1.456  0.1028 -0.1581 -0.1779
    21BTZ    N3 3449   2.612   6.665   1.597  0.1546 -0.2375 -0.1838
    21BTZ    S3 3450   2.559   6.659   1.426  0.1864 -0.2672 -0.1929
    31IDT   C12 3451   2.638   6.628   1.894  0.2696  0.0244 -0.0115
    31IDT   C13 3452   2.743   6.706   1.855  0.3737  0.0826  0.3796
    31IDT   C14 3453   2.825   6.748   1.965  0.1280 -0.1364  0.6491
    31IDT   C15 3454   2.782   6.702   2.088 -0.1645 -0.3620  0.4657
    31IDT    S4 3455   2.634   6.601   2.074 -0.1511 -0.3146 -0.0675
    4IDB    C16 3456   2.867   6.760   2.194  0.1644 -0.1509 -0.1791
    4IDB    C17 3457   2.972   6.833   2.130 -0.2315  0.3073 -0.3181
    51IDQ   C18 3458   2.952   6.831   1.982 -0.0807 -0.0686  0.8652
    4IDB    C19 3459   3.067   6.901   2.205 -0.0649  0.1984 -0.4287
    51IDQ   C20 3460   2.939   6.985   1.952 -0.5071  0.4395  0.6591
    51IDQ   C21 3461   3.066   6.756   1.891 -0.4145 -0.4202  0.3590
    51IDQ   C22 3462   3.175   6.686   1.964  0.4185 -0.1722 -0.1584
    51IDQ   C23 3463   2.815   7.031   1.876 -0.1243 -0.2675  0.1384
    51IDQ   C24 3464   3.288   6.640   1.873 -0.0469  0.0316 -0.6058
    51IDQ   C25 3465   3.413   6.581   1.949  0.2749 -0.6751  0.4593
    51IDQ   C26 3466   3.530   6.536   1.853 -0.1072 -0.3723 -0.6041
    51IDQ   C27 3467   3.493   6.458   1.735  0.4408  0.7105 -0.0680
    51IDQ   C28 3468   3.610   6.407   1.660 -0.0929  0.4686 -0.5894
    51IDQ   C29 3469   3.568   6.365   1.512  1.0224 -0.2098 -0.3922
    51IDQ   C30 3470   2.799   7.176   1.836  1.5167  0.2981 -0.0397
    51IDQ   C31 3471   2.656   7.216   1.791 -0.4237  0.1567  0.1438
    51IDQ   C32 3472   2.598   7.127   1.678 -0.2184 -0.3219 -0.3590
    51IDQ   C33 3473   2.454   7.153   1.643  0.7106 -0.2078  0.0043
    51IDQ   C34 3474   2.404   7.061   1.530  0.1899 -0.2584 -0.0774
    51IDQ   C35 3475   2.257   7.038   1.543 -0.3832 -0.4024 -0.4919
    4IDB    C36 3476   2.856   6.754   2.333  0.7326 -0.7242 -0.1497
    4IDB    C37 3477   2.954   6.824   2.409  0.8951 -0.8273 -0.2640
    11RH    C38 3478   1.866   6.010   1.367  0.3210 -0.6167  0.4389
    4IDB    C39 3479   3.056   6.895   2.345  0.5033 -0.3749 -0.3994
    62IDT   C40 3480   3.146   6.952   2.440 -0.0953  0.1605  0.5256
    72IDQ   C41 3481   2.970   6.836   2.559  0.2387 -0.5257 -0.3082
    62IDT   C42 3482   3.102   6.925   2.568  0.1665  0.4045  0.6696
    72IDQ   C43 3483   2.987   6.694   2.630  0.1339 -0.5913 -0.0231
    72IDQ   C44 3484   2.842   6.911   2.627 -0.2249 -0.0040  0.0243
    62IDT    S5 3485   3.299   7.046   2.440  0.0304 -0.0359  0.0312
    62IDT   C45 3486   3.295   7.044   2.622  0.4509  0.2355  0.0461
    62IDT   C46 3487   3.186   6.977   2.671  0.4757  0.4472  0.3989
    82BTZ   C47 3488   3.418   7.079   2.694  0.3158  0.1795  0.0809
    82BTZ   C48 3489   3.532   7.090   2.619  0.3784  0.0570  0.1588
    82BTZ   C49 3490   3.656   7.138   2.676  0.4217 -0.1866  0.2732
    82BTZ   C50 3491   3.666   7.175   2.807  0.4023 -0.3074  0.3093
    82BTZ   C51 3492   3.423   7.118   2.832  0.2931  0.0608  0.1147
    82BTZ   C52 3493   3.549   7.166   2.890  0.3371 -0.1868  0.2308
    92RH    C53 3494   3.797   7.204   2.875  0.1167  0.0200  0.2869
    82BTZ    N4 3495   3.318   7.112   2.915  0.2332  0.1613  0.0465
    82BTZ    N5 3496   3.545   7.200   3.019  0.3126 -0.2854  0.2560
    82BTZ    S6 3497   3.378   7.170   3.074  0.2304 -0.0612  0.1296
    92RH    C54 3498   3.923   7.204   2.833  0.1067  0.1757  0.2565
    92RH     S7 3499   3.984   7.155   2.666  0.1290  0.2360  0.2467
    92RH    C55 3500   4.038   7.246   2.917  0.0746  0.3278  0.2252
    92RH     O2 3501   4.030   7.285   3.035  0.0539  0.3295  0.2233
    92RH     N6 3502   4.160   7.237   2.847  0.0704  0.4750  0.1971
    92RH    C56 3503   4.158   7.192   2.717  0.0951  0.4593  0.2019
    92RH    C57 3504   4.287   7.275   2.915  0.3693  0.5933 -0.4561
    92RH    C58 3505   4.344   7.169   3.015 -0.2017 -0.2307  0.7924
    92RH     S8 3506   4.288   7.172   2.612  0.0961  0.6137  0.1727
    72IDQ   C59 3507   2.838   6.953   2.770 -0.1889 -0.1517 -0.8168
    72IDQ   C60 3508   2.904   7.089   2.802  0.3784  0.7723 -0.6267
    72IDQ   C61 3509   2.911   7.119   2.951  0.6815 -0.2127  0.0966
    72IDQ   C62 3510   2.981   7.248   2.985 -0.4734  0.0292  0.1762
    72IDQ   C63 3511   2.963   7.292   3.130 -0.2485  0.4156 -0.1167
    72IDQ   C64 3512   2.842   7.376   3.171 -0.0308  0.8266  0.3862
    72IDQ   C65 3513   2.845   7.405   3.316 -0.8417 -0.0327  0.5938
    72IDQ   C66 3514   3.085   6.589   2.578 -0.5459 -0.3259  0.2262
    72IDQ   C67 3515   3.115   6.467   2.664  0.3149  0.0704  0.1667
    72IDQ   C68 3516   3.142   6.476   2.813 -0.3374 -0.7690 -0.2451
    72IDQ   C69 3517   3.265   6.567   2.845 -0.3075  0.1226 -0.2224
    72IDQ   C70 3518   3.276   6.579   2.997  0.0629 -1.0293 -0.7772
    72IDQ   C71 3519   3.348   6.696   3.060 -0.9869 -0.9354  0.0761
    72IDQ   C72 3520   3.348   6.695   3.212 -0.0661  0.5945  0.0037
    11RH     C1 3521   5.543   3.374   4.096  0.0292 -0.0082 -0.0088
    11RH     C2 3522   5.473   3.282   4.003  0.0415  0.0211 -0.0471
    11RH     N1 3523   5.490   3.504   4.091 -0.0928 -0.0504  0.1607
    11RH     S1 3524   5.341   3.374   3.914 -0.1080 -0.0087  0.1427
    11RH     C3 3525   5.385   3.528   4.004 -0.1795 -0.0585  0.2631
    11RH     C4 3526   5.562   3.619   4.148  0.1551 -0.2959  0.1164
    11RH     S2 3527   5.304   3.674   3.979 -0.3297 -0.1055  0.4683
    11RH     O1 3528   5.637   3.342   4.171  0.1134  0.0020 -0.1105
    11RH     C5 3529   5.504   3.153   3.989  0.1473  0.0627 -0.1986
    21BTZ    C6 3530   5.439   3.049   3.913 -0.2314  0.0611  0.1523
    21BTZ    C7 3531   5.325   3.056   3.838 -0.1943  0.1537  0.1047
    21BTZ    C8 3532   5.502   2.921   3.930 -0.2841  0.0271  0.0925
    21BTZ    C9 3533   5.267   2.940   3.777 -0.2073  0.2168 -0.0032
    21BTZ   C10 3534   5.323   2.816   3.790 -0.2572  0.1876 -0.0633
    21BTZ   C11 3535   5.443   2.803   3.867 -0.2973  0.0914 -0.0171
    21BTZ    N2 3536   5.614   2.901   4.001 -0.3235 -0.0615  0.1302
    21BTZ    N3 3537   5.507   2.687   3.887 -0.3474  0.0546 -0.0678
    21BTZ    S3 3538   5.649   2.726   3.990 -0.3804 -0.0665  0.0247
    31IDT   C12 3539   5.266   2.704   3.708  0.1842 -0.3381  0.5083
    31IDT   C13 3540   5.334   2.606   3.640  0.0141 -0.5333  0.6208
    31IDT   C14 3541   5.246   2.512   3.577 -0.1616 -0.0844  0.1845
    31IDT   C15 3542   5.112   2.538   3.596 -0.1269  0.4546 -0.2621
    31IDT    S4 3543   5.086   2.685   3.696  0.1336  0.4353 -0.1642
    4IDB    C16 3544   5.035   2.426   3.542  0.3124  0.2555 -0.2658
    4IDB    C17 3545   5.128   2.332   3.489  0.2891  0.0127  0.1197
    51IDQ   C18 3546   5.268   2.391   3.486  0.5415  0.5892  0.1003
    4IDB    C19 3547   5.087   2.205   3.451  0.1403  0.0773  0.0648
    51IDQ   C20 3548   5.375   2.279   3.532  0.3922  0.1604  0.1328
    51IDQ   C21 3549   5.321   2.441   3.351 -0.5667 -0.6376  0.0722
    51IDQ   C22 3550   5.246   2.415   3.218 -0.2093 -0.8569  0.0265
    51IDQ   C23 3551   5.454   2.291   3.662 -0.7434  0.3082  0.0268
    51IDQ   C24 3552   5.324   2.464   3.100 -0.0695  0.1155  0.5180
    51IDQ   C25 3553   5.339   2.614   3.077 -0.3858 -0.7065  0.1307
    51IDQ   C26 3554   5.379   2.649   2.933  0.3856 -0.9698  0.3711
    51IDQ   C27 3555   5.424   2.802   2.912  0.1585  0.6030 -0.0743
    51IDQ   C28 3556   5.420   2.860   2.768 -0.2731  0.0390 -0.4991
    51IDQ   C29 3557   5.286   2.849   2.694 -0.3132 -0.8461  0.2465
    51IDQ   C30 3558   5.561   2.179   3.696  0.6952  0.4491 -0.6787
    51IDQ   C31 3559   5.642   2.129   3.582 -0.3475 -0.3177 -0.0715
    51IDQ   C32 3560   5.754   2.027   3.618  0.4670 -0.2457  0.2421
    51IDQ   C33 3561   5.865   2.073   3.719  0.2296 -0.9007 -0.0741
    51IDQ   C34 3562   5.990   1.994   3.761  0.4581 -0.7485 -0.4769
    51IDQ   C35 3563   5.969   1.855   3.817  0.0674  0.2341 -0.2039
    4IDB    C36 3564   4.899   2.394   3.557  0.1860  0.5663 -0.7113
    4IDB    C37 3565   4.859   2.264   3.517  0.0345  0.6279 -0.7608
    11RH    C38 3566   5.537   3.647   4.294 -0.2916  0.5396  0.2624
    4IDB    C39 3567   4.951   2.172   3.465  0.0138  0.3881 -0.3806
    62IDT   C40 3568   4.886   2.045   3.447  0.3535  0.2513  0.1452
    72IDQ   C41 3569   4.725   2.199   3.531  0.0297 -0.3297 -0.8495
    62IDT   C42 3570   4.753   2.061   3.480  0.4321  0.6939  0.2690
    72IDQ   C43 3571   4.621   2.264   3.435  0.1553  0.3303 -0.5066
    72IDQ   C44 3572   4.678   2.194   3.690  0.4643 -0.1518 -0.4387
    62IDT    S5 3573   4.923   1.878   3.393 -0.2438  0.1139  0.1476
    62IDT   C45 3574   4.749   1.835   3.421 -0.3614  0.6899  0.3244
    62IDT   C46 3575   4.675   1.942   3.466  0.0281  0.9423  0.3705
    82BTZ   C47 3576   4.707   1.696   3.393 -0.2141  0.3918 -0.0093
    82BTZ   C48 3577   4.807   1.607   3.363 -0.0775  0.5040  0.1054
    82BTZ   C49 3578   4.777   1.471   3.325  0.1251  0.4401  0.1741
    82BTZ   C50 3579   4.648   1.424   3.316  0.1905  0.2640  0.1280
    82BTZ   C51 3580   4.571   1.652   3.386 -0.1528  0.2062 -0.0615
    82BTZ   C52 3581   4.541   1.514   3.347  0.0530  0.1412  0.0083
    92RH    C53 3582   4.620   1.285   3.286 -0.1056  0.0552  0.2016
    82BTZ    N4 3583   4.466   1.730   3.412 -0.2722  0.0839 -0.1724
    82BTZ    N5 3584   4.412   1.481   3.342  0.0993 -0.0333 -0.0465
    82BTZ    S6 3585   4.321   1.628   3.389 -0.1230 -0.1238 -0.1926
    92RH    C54 3586   4.691   1.174   3.261 -0.0947  0.0787  0.1262
    92RH     S7 3587   4.872   1.154   3.277 -0.0975  0.0740  0.1539
    92RH    C55 3588   4.630   1.046   3.217 -0.0780  0.1132  0.0046
    92RH     O2 3589   4.509   1.027   3.197 -0.0724  0.1243 -0.0411
    92RH     N6 3590   4.728   0.946   3.199 -0.0691  0.1326 -0.0553
    92RH    C56 3591   4.859   0.978   3.223 -0.0768  0.1179  0.0035
    92RH    C57 3592   4.691   0.820   3.133 -0.0904  0.4620 -0.2485
    92RH    C58 3593   4.642   0.713   3.231  0.2099  0.4816  0.2402
    92RH     S8 3594   4.994   0.878   3.210 -0.0691  0.1354 -0.0474
    72IDQ   C59 3595   4.767   2.124   3.795 -0.2517 -0.0459  0.2569
    72IDQ   C60 3596   4.725   2.138   3.940  0.3413  0.5313 -0.0142
    72IDQ   C61 3597   4.739   2.271   4.014  0.8134  0.0659 -0.0176
    72IDQ   C62 3598   4.877   2.319   4.032  0.0272 -0.4645 -0.6474
    72IDQ   C63 3599   4.964   2.247   4.139 -0.0171 -0.0351  0.2948
    72IDQ   C64 3600   5.081   2.321   4.196 -1.6185  0.7675 -0.2987
    72IDQ   C65 3601   5.169   2.219   4.280 -0.1981 -0.7634 -0.4242
    72IDQ   C66 3602   4.472   2.261   3.456  0.1111 -0.3409 -0.1063
    72IDQ   C67 3603   4.384   2.301   3.335 -0.3042 -0.4055 -0.1845
    72IDQ   C68 3604   4.240   2.332   3.368  0.0624 -0.3556  0.2829
    72IDQ   C69 3605   4.161   2.395   3.255  0.5474 -0.5400 -0.4717
    72IDQ   C70 3606   4.015   2.418   3.287  0.5561 -0.2989  0.0013
    72IDQ   C71 3607   3.946   2.513   3.194  0.5630 -0.3823 -0.5010
    72IDQ   C72 3608   3.798   2.530   3.220  0.4602 -0.0435  0.3562
    11RH     C1 3609   0.844   4.231   2.656  0.1074  0.1868 -0.1930
    11RH     C2 3610   0.955   4.146   2.707 -0.0606 -0.0545 -0.2230
    11RH     N1 3611   0.765   4.281   2.762  0.0873  0.1392 -0.1853
    11RH     S1 3612   0.949   4.138   2.890 -0.2342 -0.3281 -0.2391
    11RH     C3 3613   0.800   4.247   2.891 -0.0764 -0.1105 -0.2055
    11RH     C4 3614   0.646   4.359   2.730  0.1912  0.0211  0.0150
    11RH     S2 3615   0.723   4.293   3.034 -0.1351 -0.2182 -0.2018
    11RH     O1 3616   0.820   4.256   2.537  0.2497  0.4053 -0.1763
    11RH     C5 3617   1.044   4.086   2.627 -0.0776 -0.0629 -0.2357
    21BTZ    C6 3618   1.171   4.017   2.660 -0.1418 -0.1019 -0.1316
    21BTZ    C7 3619   1.224   4.009   2.786 -0.2076  0.0896 -0.0915
    21BTZ    C8 3620   1.247   3.965   2.550 -0.0340 -0.1661 -0.0266
    21BTZ    C9 3621   1.353   3.950   2.811 -0.1712  0.2269  0.0528
    21BTZ   C10 3622   1.429   3.898   2.709 -0.0691  0.1724  0.1568
    21BTZ   C11 3623   1.378   3.904   2.575  0.0029 -0.0265  0.1200
    21BTZ    N2 3624   1.206   3.967   2.423  0.0376 -0.3488 -0.0527
    21BTZ    N3 3625   1.443   3.857   2.468  0.1042 -0.0971  0.2118
    21BTZ    S3 3626   1.337   3.889   2.328  0.1577 -0.3502  0.1127
    31IDT   C12 3627   1.548   3.820   2.750 -0.5167 -0.2818  0.3402
    31IDT   C13 3628   1.618   3.731   2.673 -0.8019 -0.4618  0.2829
    31IDT   C14 3629   1.712   3.654   2.748 -0.6085 -0.3720  0.1363
    31IDT   C15 3630   1.713   3.684   2.883 -0.1757 -0.1235  0.0809
    31IDT    S4 3631   1.595   3.812   2.925  0.0223  0.0173  0.2115
    4IDB    C16 3632   1.801   3.591   2.946  0.2324  0.2583 -0.4844
    4IDB    C17 3633   1.847   3.493   2.853  0.2842  0.0844 -0.2762
    51IDQ   C18 3634   1.797   3.533   2.711 -0.1852 -0.4670 -1.1557
    4IDB    C19 3635   1.927   3.387   2.895  0.1264  0.0706 -0.0055
    51IDQ   C20 3636   1.927   3.554   2.622  0.2157 -0.4053  0.7591
    51IDQ   C21 3637   1.702   3.429   2.647  0.0180  0.2887 -0.0629
    51IDQ   C22 3638   1.682   3.278   2.703  0.5848 -0.0015 -0.0670
    51IDQ   C23 3639   1.979   3.699   2.586  0.3617  0.1403  0.9309
    51IDQ   C24 3640   1.571   3.276   2.807  0.9154 -0.0702 -0.5178
    51IDQ   C25 3641   1.522   3.141   2.870 -0.3457 -0.2068  0.2360
    51IDQ   C26 3642   1.491   3.026   2.780  0.5162 -0.3851  0.3508
    51IDQ   C27 3643   1.542   2.890   2.816  0.5620 -0.1016  0.0694
    51IDQ   C28 3644   1.690   2.870   2.857  0.3975 -0.4284 -0.5006
    51IDQ   C29 3645   1.715   2.721   2.883  0.2358 -0.1153  0.2190
    51IDQ   C30 3646   2.034   3.788   2.693  0.5825  0.2872 -0.2041
    51IDQ   C31 3647   2.144   3.726   2.780  0.3182  0.6887  0.1464
    51IDQ   C32 3648   2.197   3.822   2.876 -0.1013 -0.0647 -0.2788
    51IDQ   C33 3649   2.242   3.728   2.988  0.2473 -0.2183  0.1801
    51IDQ   C34 3650   2.345   3.792   3.087  0.5738  0.4645  0.0034
    51IDQ   C35 3651   2.390   3.695   3.200  0.0895 -0.6497  0.1576
    4IDB    C36 3652   1.835   3.584   3.082  0.0212  0.4204 -0.4225
    4IDB    C37 3653   1.916   3.475   3.123 -0.1379  0.4036 -0.1447
    11RH    C38 3654   0.670   4.507   2.704  0.7199 -0.5856  0.5408
    4IDB    C39 3655   1.961   3.380   3.031 -0.0847  0.2327  0.0564
    62IDT   C40 3656   2.052   3.284   3.099 -0.1273 -0.1428  0.1889
    72IDQ   C41 3657   1.975   3.441   3.266  0.2381  0.1125 -0.0117
    62IDT   C42 3658   2.065   3.325   3.231 -0.0588 -0.5000  0.2940
    72IDQ   C43 3659   1.863   3.400   3.372  0.1875  0.6139  0.3796
    72IDQ   C44 3660   2.082   3.543   3.325  0.4098 -0.6738  0.0999
    62IDT    S5 3661   2.147   3.136   3.065 -0.2803 -0.1481 -0.2227
    62IDT   C45 3662   2.201   3.136   3.239 -0.2416 -0.6578 -0.2316
    62IDT   C46 3663   2.149   3.241   3.310 -0.1231 -0.7917  0.0564
    82BTZ   C47 3664   2.291   3.031   3.292 -0.2704  0.1087 -0.0175
    82BTZ   C48 3665   2.374   3.063   3.396 -0.4106  0.1008  0.0967
    82BTZ   C49 3666   2.457   2.965   3.460 -0.4685  0.1037  0.1776
    82BTZ   C50 3667   2.458   2.834   3.419 -0.3861  0.1144  0.1442
    82BTZ   C51 3668   2.288   2.896   3.245 -0.1798  0.1202 -0.0566
    82BTZ   C52 3669   2.373   2.795   3.310 -0.2386  0.1230  0.0255
    92RH    C53 3670   2.542   2.733   3.485  0.0394 -0.0523 -0.1184
    82BTZ    N4 3671   2.212   2.852   3.145 -0.0417  0.1287 -0.1656
    82BTZ    N5 3672   2.365   2.671   3.261 -0.1478  0.1338 -0.0173
    82BTZ    S6 3673   2.246   2.678   3.128  0.0204  0.1410 -0.1677
    92RH    C54 3674   2.617   2.731   3.595 -0.0015  0.0266 -0.0886
    92RH     S7 3675   2.646   2.870   3.712 -0.1529  0.0715 -0.1043
    92RH    C55 3676   2.691   2.611   3.642  0.0726  0.0919 -0.0368
    92RH     O2 3677   2.692   2.500   3.585  0.1791  0.0815 -0.0151
    92RH     N6 3678   2.762   2.637   3.761  0.0066  0.1694 -0.0142
    92RH    C56 3679   2.754   2.763   3.816 -0.1112  0.1742 -0.0417
    92RH    C57 3680   2.832   2.524   3.824  0.5584 -0.3978  0.1797
    92RH    C58 3681   2.963   2.487   3.763 -0.9911 -0.1859 -0.7299
    92RH     S8 3682   2.828   2.819   3.956 -0.2086  0.2586 -0.0236
    72IDQ   C59 3683   2.035   3.685   3.363 -0.2498  0.0638 -0.2716
    72IDQ   C60 3684   2.121   3.758   3.474 -0.0885  0.4252  0.0362
    72IDQ   C61 3685   2.147   3.697   3.605 -0.2999  0.2452 -0.7796
    72IDQ   C62 3686   2.228   3.798   3.693 -0.2844  0.0735  0.7531
    72IDQ   C63 3687   2.281   3.748   3.826 -0.4188  0.1484 -0.3945
    72IDQ   C64 3688   2.339   3.855   3.916  0.0165 -0.2935 -0.1055
    72IDQ   C65 3689   2.411   3.796   4.029  0.3775 -0.0738  0.2311
    72IDQ   C66 3690   1.752   3.494   3.408 -0.5790  0.2647  0.5830
    72IDQ   C67 3691   1.647   3.434   3.510  0.3055  0.2254 -0.0869
    72IDQ   C68 3692   1.574   3.538   3.593 -1.2606  0.2292 -0.8299
    72IDQ   C69 3693   1.654   3.629   3.686  0.2058  0.3632  0.1121
    72IDQ   C70 3694   1.734   3.553   3.785 -0.1945  0.4482 -0.1371
    72IDQ   C71 3695   1.659   3.494   3.905  0.0642 -0.3179  0.4572
    72IDQ   C72 3696   1.604   3.586   4.013 -0.4884  0.1967 -0.0759
    11RH     C1 3697   6.204   4.597   0.860  0.1150 -0.1352 -0.0215
    11RH     C2 3698   6.331   4.673   0.849  0.1234 -0.1541 -0.0550
    11RH     N1 3699   6.105   4.671   0.929  0.1548 -0.1337  0.0338
    11RH     S1 3700   6.312   4.837   0.931  0.1834 -0.1690 -0.0115
    11RH     C3 3701   6.138   4.797   0.975  0.1943 -0.1491  0.0488
    11RH     C4 3702   5.978   4.613   0.964 -0.2281  0.3218 -0.0745
    11RH     S2 3703   6.039   4.905   1.060  0.2460 -0.1512  0.1116
    11RH     O1 3704   6.184   4.483   0.815  0.0780 -0.1217 -0.0389
    11RH     C5 3705   6.440   4.626   0.788  0.0913 -0.1594 -0.1087
    21BTZ    C6 3706   6.572   4.689   0.764 -0.1440  0.0508 -0.3953
    21BTZ    C7 3707   6.603   4.814   0.813 -0.0646  0.0033 -0.3239
    21BTZ    C8 3708   6.671   4.618   0.689 -0.1026 -0.0749 -0.2220
    21BTZ    C9 3709   6.732   4.874   0.791  0.0587 -0.1687 -0.0803
    21BTZ   C10 3710   6.830   4.810   0.720  0.1022 -0.2933  0.0914
    21BTZ   C11 3711   6.803   4.680   0.667  0.0225 -0.2497  0.0256
    21BTZ    N2 3712   6.653   4.497   0.637 -0.1715 -0.0441 -0.2698
    21BTZ    N3 3713   6.890   4.607   0.597  0.0542 -0.3597  0.1767
    21BTZ    S3 3714   6.807   4.455   0.555 -0.0771 -0.2417  0.0054
    31IDT   C12 3715   6.956   4.882   0.696 -0.1402 -0.1762 -0.3876
    31IDT   C13 3716   7.078   4.828   0.663  0.0091 -0.2260  0.2316
    31IDT   C14 3717   7.185   4.923   0.669  0.0355 -0.2865  0.8432
    31IDT   C15 3718   7.145   5.050   0.706 -0.0931 -0.2831  0.6948
    31IDT    S4 3719   6.968   5.059   0.737 -0.2592 -0.2021 -0.2397
    4IDB    C16 3720   7.261   5.141   0.717  0.0817 -0.1590  0.4111
    4IDB    C17 3721   7.375   5.071   0.666  0.0099 -0.2313  0.3488
    51IDQ   C18 3722   7.337   4.924   0.640  0.1725 -0.4796 -0.5860
    4IDB    C19 3723   7.492   5.140   0.633 -0.0625 -0.2667  0.0111
    51IDQ   C20 3724   7.381   4.892   0.490 -0.0780  0.4484 -0.1272
    51IDQ   C21 3725   7.411   4.817   0.726  0.5647  0.1092  0.0166
    51IDQ   C22 3726   7.481   4.844   0.857  0.4391 -0.1634 -0.4156
    51IDQ   C23 3727   7.293   4.863   0.372  0.2196 -0.1752 -0.2025
    51IDQ   C24 3728   7.386   4.916   0.958 -0.6232  0.0731 -0.2968
    51IDQ   C25 3729   7.267   4.831   1.002 -0.3497 -0.5290 -0.6438
    51IDQ   C26 3730   7.281   4.699   1.074  0.3120  0.1761  0.3545
    51IDQ   C27 3731   7.157   4.615   1.091 -0.3378 -0.7593 -0.0262
    51IDQ   C28 3732   7.069   4.593   0.970 -0.5417  0.1472 -0.9023
    51IDQ   C29 3733   6.931   4.538   1.008  0.4217  0.0603  0.3236
    51IDQ   C30 3734   7.359   4.829   0.238 -0.0520 -0.6097 -0.3154
    51IDQ   C31 3735   7.437   4.948   0.175 -0.0359  0.8017  0.0885
    51IDQ   C32 3736   7.509   4.917   0.043 -0.3410 -0.0971 -0.0330
    51IDQ   C33 3737   7.423   4.866  -0.073 -0.4268  0.6898 -0.3093
    51IDQ   C34 3738   7.516   4.842  -0.187 -0.5618 -0.2075  0.3780
    51IDQ   C35 3739   7.445   4.775  -0.304  0.1775  0.3056  0.5446
    4IDB    C36 3740   7.264   5.280   0.735  0.0814 -0.1215  0.1341
    4IDB    C37 3741   7.384   5.348   0.701  0.0069 -0.1584 -0.2093
    11RH    C38 3742   5.864   4.623   0.865  0.4081  0.0845 -0.6706
    4IDB    C39 3743   7.494   5.279   0.651 -0.0628 -0.2290 -0.2659
    62IDT   C40 3744   7.594   5.374   0.615 -0.5029  0.4869 -0.5544
    72IDQ   C41 3745   7.424   5.497   0.731 -0.3134  1.0914  0.4802
    62IDT   C42 3746   7.561   5.499   0.665 -0.3013  0.6074 -0.7198
    72IDQ   C43 3747   7.430   5.528   0.887  0.1911  0.2118  0.4720
    72IDQ   C44 3748   7.329   5.597   0.662  0.2596 -0.2830  0.2482
    62IDT    S5 3749   7.749   5.377   0.524 -0.1342 -0.0296  0.0404
    62IDT   C45 3750   7.761   5.555   0.560  0.2939 -0.0568  0.0337
    62IDT   C46 3751   7.655   5.601   0.634  0.1494  0.3003 -0.3875
    82BTZ   C47 3752   7.853   5.632   0.480  0.1801 -0.1317 -0.2166
    82BTZ   C48 3753   7.877   5.595   0.350  0.2757 -0.0924 -0.2104
    82BTZ   C49 3754   7.963   5.672   0.264  0.2433  0.0001 -0.1604
    82BTZ   C50 3755   8.025   5.786   0.307  0.1152  0.0533 -0.1167
    82BTZ   C51 3756   7.916   5.751   0.530  0.0445 -0.0787 -0.1720
    82BTZ   C52 3757   8.003   5.830   0.442  0.0115  0.0154 -0.1212
    92RH    C53 3758   8.106   5.870   0.216  0.2341 -0.0938 -0.1218
    82BTZ    N4 3759   7.900   5.798   0.654 -0.0574 -0.1093 -0.1731
    82BTZ    N5 3760   8.058   5.939   0.495 -0.1169  0.0603 -0.0815
    82BTZ    S6 3761   7.999   5.947   0.664 -0.2028 -0.0175 -0.1079
    92RH    C54 3762   8.144   5.857   0.088  0.2054 -0.0569 -0.1338
    92RH     S7 3763   8.118   5.712  -0.020  0.0251  0.0399 -0.2228
    92RH    C55 3764   8.214   5.964   0.013  0.3196 -0.0905 -0.0747
    92RH     O2 3765   8.246   6.075   0.059  0.4528 -0.1554 -0.0084
    92RH     N6 3766   8.242   5.924  -0.119  0.2585 -0.0393 -0.1030
    92RH    C56 3767   8.202   5.799  -0.160  0.1093  0.0314 -0.1775
    92RH    C57 3768   8.307   6.014  -0.215  0.2558 -0.5382 -0.6177
    92RH    C58 3769   8.222   6.120  -0.298 -0.0738  0.0789  0.1919
    92RH     S8 3770   8.223   5.727  -0.311  0.0100  0.1026 -0.2248
    72IDQ   C59 3771   7.204   5.652   0.727 -0.1389 -0.2238  0.0859
    72IDQ   C60 3772   7.133   5.763   0.647  0.2650 -0.1554  0.0034
    72IDQ   C61 3773   7.204   5.880   0.573  0.5698  0.6386  0.2239
    72IDQ   C62 3774   7.299   5.953   0.659  0.9555 -0.6477  0.3849
    72IDQ   C63 3775   7.431   5.995   0.594  0.3813  0.1233  0.4723
    72IDQ   C64 3776   7.515   6.076   0.694 -0.1627  0.2537  0.5003
    72IDQ   C65 3777   7.658   6.097   0.642 -0.4532  0.0610  0.5710
    72IDQ   C66 3778   7.501   5.438   0.989  0.3011 -0.0480 -0.4357
    72IDQ   C67 3779   7.471   5.503   1.129  0.2000 -0.3019  0.2701
    72IDQ   C68 3780   7.530   5.423   1.247  0.1676 -0.2763  0.2272
    72IDQ   C69 3781   7.529   5.496   1.379 -0.1314  0.0440 -0.7448
    72IDQ   C70 3782   7.381   5.521   1.430  0.4312  0.6167 -0.0988
    72IDQ   C71 3783   7.352   5.563   1.572  0.1160 -0.5243  0.1262
    72IDQ   C72 3784   7.202   5.560   1.605  0.1189  0.1549  0.4340
    11RH     C1 3785   4.884   4.023   0.403 -0.2714  0.2590 -0.2627
    11RH     C2 3786   4.819   4.124   0.490 -0.1148  0.1024  0.0381
    11RH     N1 3787   4.898   3.899   0.469  0.0290  0.1961 -0.4414
    11RH     S1 3788   4.780   4.049   0.653  0.4172 -0.1172  0.0663
    11RH     C3 3789   4.852   3.888   0.599  0.4070  0.0083 -0.3206
    11RH     C4 3790   4.949   3.780   0.394 -0.6554  0.4610 -0.5219
    11RH     S2 3791   4.857   3.752   0.699  0.8150 -0.1017 -0.4850
    11RH     O1 3792   4.922   4.042   0.287 -0.6205  0.4253 -0.3522
    11RH     C5 3793   4.794   4.249   0.452 -0.3379  0.1240  0.2506
    21BTZ    C6 3794   4.732   4.368   0.516 -0.0019  0.0999  0.0295
    21BTZ    C7 3795   4.688   4.367   0.645 -0.0365  0.1050  0.0177
    21BTZ    C8 3796   4.719   4.489   0.440  0.0125  0.0949  0.0193
    21BTZ    C9 3797   4.629   4.483   0.706 -0.0583  0.1057 -0.0046
    21BTZ   C10 3798   4.614   4.601   0.638 -0.0456  0.1013 -0.0150
    21BTZ   C11 3799   4.660   4.607   0.502 -0.0097  0.0956 -0.0033
    21BTZ    N2 3800   4.759   4.502   0.313  0.0457  0.0898  0.0291
    21BTZ    N3 3801   4.651   4.716   0.425  0.0058  0.0910 -0.0117
    21BTZ    S3 3802   4.721   4.671   0.267  0.0502  0.0852  0.0094
    31IDT   C12 3803   4.557   4.714   0.713  0.0723  0.7170 -0.2721
    31IDT   C13 3804   4.459   4.802   0.674  0.0299  0.7738 -0.0434
    31IDT   C14 3805   4.406   4.878   0.783 -0.2254  0.2463  0.2072
    31IDT   C15 3806   4.462   4.848   0.905 -0.3792 -0.2148  0.1715
    31IDT    S4 3807   4.588   4.721   0.892 -0.2109 -0.0154 -0.1858
    4IDB    C16 3808   4.389   4.926   1.002 -0.3807 -0.0420  0.0819
    4IDB    C17 3809   4.288   5.005   0.940 -0.0205  0.4058  0.0548
    51IDQ   C18 3810   4.301   4.989   0.787 -0.1525 -0.8283 -0.5217
    4IDB    C19 3811   4.204   5.086   1.015 -0.1151  0.2671  0.0983
    51IDQ   C20 3812   4.151   4.950   0.746  0.1650  0.4020 -0.1783
    51IDQ   C21 3813   4.349   5.125   0.716  0.6227  0.0044 -0.1804
    51IDQ   C22 3814   4.389   5.260   0.779  0.4698  0.1241 -0.2481
    51IDQ   C23 3815   4.107   4.805   0.714  0.2171  0.2869 -0.1059
    51IDQ   C24 3816   4.504   5.253   0.877 -0.4412  0.0815 -0.2491
    51IDQ   C25 3817   4.551   5.394   0.925  0.2443  0.3063 -0.5225
    51IDQ   C26 3818   4.668   5.397   1.021 -0.0281 -0.2419  0.3322
    51IDQ   C27 3819   4.707   5.541   1.049  0.0436  0.3952 -0.2651
    51IDQ   C28 3820   4.836   5.560   1.118 -0.4272  0.3667  0.0308
    51IDQ   C29 3821   4.897   5.694   1.074 -0.7071 -0.0851 -0.2598
    51IDQ   C30 3822   3.961   4.788   0.692 -0.1366 -0.6040  0.7988
    51IDQ   C31 3823   3.902   4.655   0.656  0.0809 -0.5889  0.0338
    51IDQ   C32 3824   3.919   4.553   0.762  0.6674  0.7014  0.2205
    51IDQ   C33 3825   3.861   4.417   0.719 -0.1769 -0.5339 -0.6528
    51IDQ   C34 3826   3.840   4.312   0.827  0.2487 -0.2317  0.3884
    51IDQ   C35 3827   3.969   4.264   0.892  0.4895  0.6115  0.3767
    4IDB    C36 3828   4.407   4.927   1.141 -0.8405 -0.6347  0.1531
    4IDB    C37 3829   4.320   5.010   1.217 -0.9308 -0.7682  0.1967
    11RH    C38 3830   5.106   3.759   0.401 -0.4506  0.0090 -0.0041
    4IDB    C39 3831   4.221   5.087   1.154 -0.5748 -0.3256  0.1695
    62IDT   C40 3832   4.154   5.171   1.252  0.1854  0.8691 -0.4511
    72IDQ   C41 3833   4.316   5.031   1.366  0.3979  0.0269 -0.4623
    62IDT   C42 3834   4.214   5.144   1.373 -0.2152  0.1024 -0.4095
    72IDQ   C43 3835   4.451   5.070   1.437 -0.2610  0.5647  0.4922
    72IDQ   C44 3836   4.240   4.922   1.445 -0.1088  0.0990 -0.0056
    62IDT    S5 3837   4.028   5.298   1.267  0.0676  0.7076 -0.0377
    62IDT   C45 3838   4.065   5.308   1.445 -0.5469 -0.4441  0.1801
    62IDT   C46 3839   4.164   5.222   1.482 -0.6297 -0.6411 -0.0527
    82BTZ   C47 3840   4.007   5.411   1.528 -0.1331 -0.1856  0.1519
    82BTZ   C48 3841   4.044   5.543   1.520 -0.1657 -0.1842  0.0212
    82BTZ   C49 3842   3.990   5.642   1.610 -0.2587 -0.0920 -0.1349
    82BTZ   C50 3843   3.900   5.610   1.707 -0.3193 -0.0016 -0.1600
    82BTZ   C51 3844   3.913   5.372   1.628 -0.1938 -0.0927  0.1318
    82BTZ   C52 3845   3.858   5.473   1.720 -0.2885  0.0010 -0.0269
    92RH    C53 3846   3.855   5.709   1.809  0.1304 -0.1337  0.2535
    82BTZ    N4 3847   3.870   5.247   1.646 -0.1701 -0.0844  0.2499
    82BTZ    N5 3848   3.771   5.429   1.811 -0.3409  0.0846 -0.0362
    82BTZ    S6 3849   3.755   5.253   1.783 -0.2700  0.0463  0.1615
    92RH    C54 3850   3.881   5.838   1.832 -0.0360 -0.1090  0.3040
    92RH     S7 3851   4.001   5.944   1.743 -0.3787  0.1596  0.1544
    92RH    C55 3852   3.813   5.917   1.938  0.0355 -0.3022  0.4959
    92RH     O2 3853   3.726   5.875   2.016  0.2532 -0.5059  0.6300
    92RH     N6 3854   3.860   6.050   1.941 -0.1776 -0.2267  0.5097
    92RH    C56 3855   3.957   6.088   1.850 -0.4111  0.0033  0.3525
    92RH    C57 3856   3.820   6.143   2.050  0.4392 -0.4429  0.4178
    92RH    C58 3857   3.701   6.239   2.013 -0.5166  0.7573 -0.2214
    92RH     S8 3858   4.029   6.239   1.832 -0.6927  0.1365  0.3317
    72IDQ   C59 3859   4.291   4.781   1.439 -0.1393 -0.0593 -0.2635
    72IDQ   C60 3860   4.211   4.680   1.517  0.0571 -0.5294  0.0179
    72IDQ   C61 3861   4.202   4.693   1.669  0.0327 -0.6125  0.0894
    72IDQ   C62 3862   4.133   4.585   1.757  0.2816 -0.4976 -0.1909
    72IDQ   C63 3863   3.982   4.572   1.760  0.8459 -0.6294  0.6127
    72IDQ   C64 3864   3.949   4.442   1.836  0.0007 -0.2011  0.3087
    72IDQ   C65 3865   3.802   4.427   1.876 -0.8087  0.4602 -0.0024
    72IDQ   C66 3866   4.541   5.166   1.358  0.5883  0.0310  0.2916
    72IDQ   C67 3867   4.684   5.147   1.401  0.2529  0.2316 -0.5266
    72IDQ   C68 3868   4.788   5.217   1.311 -0.1050  0.6206 -0.0946
    72IDQ   C69 3869   4.930   5.190   1.350 -0.0399  0.0236  0.3642
    72IDQ   C70 3870   5.034   5.264   1.269 -0.0577 -0.1012  0.0359
    72IDQ   C71 3871   5.167   5.256   1.336  0.8472  0.6825 -0.4040
    72IDQ   C72 3872   5.293   5.290   1.255  0.6046  0.2158  0.5731
    11RH     C1 3873   2.004   4.123   3.521 -0.0232 -0.0708 -0.1754
    11RH     C2 3874   1.941   4.055   3.637  0.0733 -0.0893 -0.1335
    11RH     N1 3875   1.936   4.093   3.401 -0.0307 -0.1760 -0.1455
    11RH     S1 3876   1.797   3.957   3.580  0.1481 -0.2441 -0.0576
    11RH     C3 3877   1.827   4.010   3.406  0.0481 -0.2767 -0.0849
    11RH     C4 3878   1.985   4.157   3.278 -0.4941 -0.2188 -0.2986
    11RH     S2 3879   1.729   3.960   3.278  0.0580 -0.4123 -0.0390
    11RH     O1 3880   2.104   4.197   3.526 -0.0904  0.0240 -0.2300
    11RH     C5 3881   1.986   4.067   3.763  0.0992 -0.0041 -0.1504
    21BTZ    C6 3882   1.941   4.014   3.892 -0.0081 -0.2677  0.2766
    21BTZ    C7 3883   1.825   3.944   3.907 -0.0698 -0.1351  0.4246
    21BTZ    C8 3884   2.010   4.060   4.009  0.0888 -0.1762  0.1839
    21BTZ    C9 3885   1.771   3.914   4.038 -0.0395  0.0924  0.4888
    21BTZ   C10 3886   1.834   3.956   4.153  0.0524  0.1871  0.4049
    21BTZ   C11 3887   1.955   4.031   4.141  0.1196  0.0552  0.2490
    21BTZ    N2 3888   2.124   4.130   4.006  0.1554 -0.2885  0.0384
    21BTZ    N3 3889   2.025   4.077   4.246  0.2110  0.1286  0.1560
    21BTZ    S3 3890   2.167   4.162   4.177  0.2626 -0.0997 -0.0229
    31IDT   C12 3891   1.759   3.924   4.282 -0.2134  0.1704  0.5810
    31IDT   C13 3892   1.803   3.957   4.407 -0.4013 -0.2907  0.7755
    31IDT   C14 3893   1.710   3.923   4.510 -0.5368 -0.7142  0.5156
    31IDT   C15 3894   1.595   3.863   4.464 -0.4532 -0.5790  0.1219
    31IDT    S4 3895   1.595   3.845   4.285 -0.1940  0.1013  0.0493
    4IDB    C16 3896   1.505   3.843   4.571  0.4933  0.2183  0.2106
    4IDB    C17 3897   1.563   3.893   4.692  0.5802 -0.2801  0.3805
    51IDQ   C18 3898   1.705   3.930   4.666  0.2754 -0.0556 -0.4274
    4IDB    C19 3899   1.490   3.895   4.811  0.5075 -0.3508  0.3370
    51IDQ   C20 3900   1.742   4.076   4.723  0.8565 -1.1600 -0.1766
    51IDQ   C21 3901   1.821   3.844   4.730 -0.5047 -0.1117  0.2125
    51IDQ   C22 3902   1.806   3.712   4.809 -0.2165 -0.4799 -1.2403
    51IDQ   C23 3903   1.745   4.203   4.639 -0.0623  0.0138 -0.6732
    51IDQ   C24 3904   1.935   3.641   4.859 -0.4165 -0.4012 -0.7482
    51IDQ   C25 3905   1.923   3.519   4.955 -0.0001 -0.4006  0.5371
    51IDQ   C26 3906   1.907   3.547   5.102  0.3695  0.0352 -0.5076
    51IDQ   C27 3907   1.932   3.433   5.200  0.5983  0.0860  0.0659
    51IDQ   C28 3908   1.909   3.486   5.340  0.1236  0.2787 -0.0206
    51IDQ   C29 3909   1.911   3.376   5.448  0.2047 -0.5084  0.6703
    51IDQ   C30 3910   1.614   4.256   4.584  0.4959  0.1309 -0.2293
    51IDQ   C31 3911   1.500   4.307   4.670  0.8223 -0.0831  0.2946
    51IDQ   C32 3912   1.545   4.419   4.767 -0.2156 -0.6241  0.2991
    51IDQ   C33 3913   1.440   4.526   4.808 -0.3218 -0.2783 -0.5769
    51IDQ   C34 3914   1.330   4.487   4.907  0.4016  0.1687 -0.2707
    51IDQ   C35 3915   1.235   4.594   4.957 -0.2003  1.0875 -0.8184
    4IDB    C36 3916   1.374   3.794   4.569  0.3322  0.6517 -0.0050
    4IDB    C37 3917   1.301   3.797   4.691  0.2598  0.5721 -0.0464
    11RH    C38 3918   2.063   4.058   3.190 -0.5551 -0.0432 -0.4475
    4IDB    C39 3919   1.359   3.846   4.808  0.3463  0.0825  0.1214
    62IDT   C40 3920   1.267   3.838   4.918 -0.0801  0.1827  0.1106
    72IDQ   C41 3921   1.170   3.727   4.725 -0.0648  0.6414 -0.2657
    62IDT   C42 3922   1.155   3.770   4.875  0.1490 -0.1239 -0.0031
    72IDQ   C43 3923   1.187   3.568   4.724 -0.0668 -0.0415 -0.5752
    72IDQ   C44 3924   1.059   3.772   4.631  0.7264 -0.6544 -0.7602
    62IDT    S5 3925   1.251   3.892   5.089 -0.4577  0.2673  0.0524
    62IDT   C45 3926   1.087   3.815   5.094 -0.2770 -0.1362 -0.1318
    62IDT   C46 3927   1.053   3.756   4.975  0.0380 -0.3046 -0.1404
    82BTZ   C47 3928   1.007   3.797   5.220 -0.2838  0.0294  0.1039
    82BTZ   C48 3929   1.075   3.786   5.339 -0.3047  0.0053  0.1138
    82BTZ   C49 3930   1.007   3.764   5.464 -0.3269 -0.0179  0.0978
    82BTZ   C50 3931   0.871   3.754   5.471 -0.3283 -0.0170  0.0719
    82BTZ   C51 3932   0.864   3.787   5.222 -0.2843  0.0313  0.0770
    82BTZ   C52 3933   0.795   3.765   5.350 -0.3069  0.0077  0.0607
    92RH    C53 3934   0.798   3.728   5.600 -0.2612  0.1187  0.0225
    82BTZ    N4 3935   0.787   3.796   5.114 -0.2652  0.0536  0.0652
    82BTZ    N5 3936   0.661   3.757   5.343 -0.3060  0.0110  0.0359
    82BTZ    S6 3937   0.618   3.777   5.171 -0.2755  0.0451  0.0321
    92RH    C54 3938   0.832   3.694   5.725 -0.1553  0.0751 -0.0185
    92RH     S7 3939   1.000   3.649   5.784 -0.1283 -0.0764 -0.2068
    92RH    C55 3940   0.735   3.686   5.837 -0.0399  0.1458  0.0863
    92RH     O2 3941   0.614   3.710   5.829 -0.0277  0.2516  0.2218
    92RH     N6 3942   0.799   3.646   5.957  0.0575  0.0776  0.0131
    92RH    C56 3943   0.934   3.622   5.954  0.0341 -0.0391 -0.1379
    92RH    C57 3944   0.731   3.638   6.085  0.0158 -0.1663  0.2313
    92RH    C58 3945   0.684   3.499   6.119  0.1191  0.0141 -0.7732
    92RH     S8 3946   1.033   3.574   6.083  0.1333 -0.1386 -0.2507
    72IDQ   C59 3947   0.911   3.752   4.670 -1.0211  0.2082  0.4862
    72IDQ   C60 3948   0.810   3.807   4.569 -0.4187  0.0488 -0.1120
    72IDQ   C61 3949   0.667   3.831   4.627  0.0123  0.7134 -0.7737
    72IDQ   C62 3950   0.661   3.930   4.740  0.2628  0.1671  0.4321
    72IDQ   C63 3951   0.523   3.975   4.792 -0.6243  0.3116 -0.5058
    72IDQ   C64 3952   0.423   3.871   4.837  0.5441  0.4164 -0.2500
    72IDQ   C65 3953   0.303   3.940   4.901  0.3682  0.1776  0.0480
    72IDQ   C66 3954   1.285   3.487   4.810 -0.3845 -0.3898 -0.2593
    72IDQ   C67 3955   1.321   3.351   4.757 -0.4199  0.2945 -0.5555
    72IDQ   C68 3956   1.204   3.258   4.722  0.2289  0.3450 -0.5652
    72IDQ   C69 3957   1.133   3.211   4.850  0.2931  0.0252  0.2520
    72IDQ   C70 3958   1.046   3.092   4.833  0.0423  0.2215 -0.1628
    72IDQ   C71 3959   0.945   3.080   4.942  0.1410  0.1089 -0.5937
    72IDQ   C72 3960   0.836   2.970   4.951  0.7316  0.1194  0.4260
    11RH     C1 3961   0.590   2.586   2.588  0.2554 -0.2846  0.1558
    11RH     C2 3962   0.483   2.536   2.677  0.1713 -0.1112  0.1542
    11RH     N1 3963   0.554   2.575   2.452  0.2443 -0.2358  0.1549
    11RH     S1 3964   0.341   2.477   2.576  0.0833  0.1049  0.1515
    11RH     C3 3965   0.430   2.522   2.421  0.1617 -0.0443  0.1527
    11RH     C4 3966   0.641   2.619   2.348  0.1186  0.3834  0.2227
    11RH     S2 3967   0.363   2.499   2.268  0.1311  0.0515  0.1512
    11RH     O1 3968   0.699   2.633   2.625  0.3273 -0.4532  0.1577
    11RH     C5 3969   0.492   2.534   2.810  0.1638 -0.1176  0.1547
    21BTZ    C6 3970   0.407   2.497   2.922  0.4653 -0.1664  0.0844
    21BTZ    C7 3971   0.281   2.448   2.900  0.4659 -0.1345  0.0101
    21BTZ    C8 3972   0.458   2.497   3.056  0.3247 -0.0315  0.1388
    21BTZ    C9 3973   0.200   2.397   3.007  0.3294  0.0303 -0.0146
    21BTZ   C10 3974   0.244   2.395   3.137  0.1925  0.1631  0.0352
    21BTZ   C11 3975   0.375   2.445   3.165  0.1860  0.1360  0.1137
    21BTZ    N2 3976   0.579   2.541   3.090  0.3096 -0.0470  0.2127
    21BTZ    N3 3977   0.430   2.448   3.287  0.0594  0.2552  0.1675
    21BTZ    S3 3978   0.593   2.519   3.267  0.1134  0.1562  0.2543
    31IDT   C12 3979   0.165   2.338   3.242 -0.0156 -0.0531 -0.3345
    31IDT   C13 3980   0.113   2.395   3.356 -0.5226  0.1372 -0.6567
    31IDT   C14 3981   0.038   2.303   3.435 -0.7704  0.2396 -0.7672
    31IDT   C15 3982   0.033   2.175   3.383 -0.4548  0.1284 -0.5305
    31IDT    S4 3983   0.123   2.162   3.228  0.1866 -0.1170 -0.1459
    4IDB    C16 3984  -0.023   2.084   3.478 -0.6100 -0.1678 -0.3848
    4IDB    C17 3985  -0.068   2.157   3.592  0.3057 -0.2589  0.0530
    51IDQ   C18 3986  -0.031   2.310   3.575  0.1391  0.2133  0.1680
    4IDB    C19 3987  -0.128   2.092   3.699  0.4141 -0.2549  0.1163
    51IDQ   C20 3988  -0.173   2.372   3.583 -0.3137 -0.1266 -0.3064
    51IDQ   C21 3989   0.057   2.380   3.683  0.1087  0.0948 -0.5417
    51IDQ   C22 3990   0.119   2.298   3.792 -0.7836 -0.0521  0.3677
    51IDQ   C23 3991  -0.249   2.409   3.455 -0.7611  0.2652  0.3100
    51IDQ   C24 3992   0.192   2.388   3.893  0.3080 -0.5302 -0.5631
    51IDQ   C25 3993   0.241   2.311   4.011  0.5396  0.2635  0.4119
    51IDQ   C26 3994   0.327   2.379   4.116 -0.8801  0.3242 -0.4124
    51IDQ   C27 3995   0.465   2.430   4.065 -0.0506  0.4658  0.8137
    51IDQ   C28 3996   0.567   2.332   3.994  0.3241 -0.1913  0.0210
    51IDQ   C29 3997   0.619   2.222   4.089  0.2495  0.2037  0.5412
    51IDQ   C30 3998  -0.402   2.415   3.487 -0.6804  0.8727 -0.1729
    51IDQ   C31 3999  -0.478   2.463   3.367 -0.3998  0.4653 -0.9614
    51IDQ   C32 4000  -0.632   2.474   3.368 -0.4129  0.5456  0.0500
    51IDQ   C33 4001  -0.699   2.527   3.490 -0.6753 -0.1590 -0.4879
    51IDQ   C34 4002  -0.848   2.511   3.498  0.1020  0.1685 -0.6608
    51IDQ   C35 4003  -0.913   2.566   3.628 -0.3193  0.3965  0.0751
    4IDB    C36 4004  -0.038   1.945   3.470 -1.4275 -0.0719 -0.7640
    4IDB    C37 4005  -0.100   1.880   3.581 -1.3031 -0.0693 -0.6928
    11RH    C38 4006   0.619   2.760   2.298 -0.3199 -0.3678  0.4007
    4IDB    C39 4007  -0.143   1.952   3.692 -0.4035 -0.1589 -0.2629
    62IDT   C40 4008  -0.202   1.862   3.785 -0.1050 -0.4943 -0.0700
    72IDQ   C41 4009  -0.127   1.728   3.605 -0.3716 -0.4954  0.1648
    62IDT   C42 4010  -0.195   1.731   3.743 -0.5264 -0.6081  0.2016
    72IDQ   C43 4011   0.012   1.653   3.622 -0.2685  0.2662 -0.2988
    72IDQ   C44 4012  -0.207   1.663   3.492  0.4123 -0.1196  0.0015
    62IDT    S5 4013  -0.282   1.877   3.945  0.1111  0.0770 -0.0112
    62IDT   C45 4014  -0.302   1.696   3.947 -0.4050  0.1345  0.3972
    62IDT   C46 4015  -0.252   1.637   3.834 -0.6965 -0.2529  0.4660
    82BTZ   C47 4016  -0.373   1.627   4.056  0.0185  0.0219 -0.0300
    82BTZ   C48 4017  -0.413   1.701   4.165  0.0547  0.0282 -0.0209
    82BTZ   C49 4018  -0.492   1.643   4.271  0.1208  0.0247  0.0266
    82BTZ   C50 4019  -0.531   1.512   4.268  0.1506  0.0149  0.0651
    82BTZ   C51 4020  -0.412   1.489   4.049  0.0479  0.0116  0.0093
    82BTZ   C52 4021  -0.492   1.430   4.156  0.1150  0.0080  0.0576
    92RH    C53 4022  -0.624   1.452   4.372 -0.1388 -0.0179  0.0768
    82BTZ    N4 4023  -0.379   1.408   3.948  0.0178  0.0047  0.0050
    82BTZ    N5 4024  -0.524   1.302   4.142  0.1389 -0.0017  0.0921
    82BTZ    S6 4025  -0.451   1.249   3.988  0.0751 -0.0069  0.0639
    92RH    C54 4026  -0.690   1.502   4.476 -0.1452  0.0015  0.0633
    92RH     S7 4027  -0.708   1.679   4.520 -0.0666  0.0044  0.0836
    92RH    C55 4028  -0.762   1.419   4.576 -0.2192  0.0243  0.0290
    92RH     O2 4029  -0.769   1.295   4.574 -0.2832  0.0281  0.0088
    92RH     N6 4030  -0.824   1.498   4.675 -0.2091  0.0417  0.0214
    92RH    C56 4031  -0.810   1.635   4.668 -0.1358  0.0357  0.0457
    92RH    C57 4032  -0.917   1.430   4.769 -0.3811  0.6653 -0.4315
    92RH    C58 4033  -0.859   1.353   4.884  0.0862  0.2474 -0.1310
    92RH     S8 4034  -0.872   1.751   4.773 -0.1081  0.0530  0.0430
    72IDQ   C59 4035  -0.361   1.670   3.484  0.2609 -0.4300  0.4875
    72IDQ   C60 4036  -0.436   1.792   3.438  0.3467 -0.6768  0.2180
    72IDQ   C61 4037  -0.403   1.861   3.304  0.2474  0.3797  0.0018
    72IDQ   C62 4038  -0.475   1.997   3.293  0.3720 -0.0668  0.1507
    72IDQ   C63 4039  -0.457   2.084   3.167  0.0514 -0.4065  0.0983
    72IDQ   C64 4040  -0.320   2.138   3.122  0.3392 -0.1495  0.0876
    72IDQ   C65 4041  -0.340   2.191   2.972 -0.3209 -0.0557  0.0958
    72IDQ   C66 4042   0.093   1.629   3.492 -0.2854 -0.2084 -0.3893
    72IDQ   C67 4043   0.233   1.565   3.520 -0.5476 -0.2407 -0.1656
    72IDQ   C68 4044   0.330   1.638   3.623  0.4902 -0.7607 -0.3622
    72IDQ   C69 4045   0.438   1.559   3.691 -0.3716 -0.1591  0.1864
    72IDQ   C70 4046   0.514   1.631   3.802 -0.2550 -0.1945 -0.5172
    72IDQ   C71 4047   0.586   1.761   3.766  0.4955  0.1716 -0.3551
    72IDQ   C72 4048   0.651   1.827   3.884  0.8230 -0.0511  0.3961
    11RH     C1 4049   3.394   4.614   4.417  0.0768  0.0668  0.1954
    11RH     C2 4050   3.286   4.692   4.482  0.0793  0.0634  0.2041
    11RH     N1 4051   3.385   4.477   4.449  0.1818  0.0905  0.3325
    11RH     S1 4052   3.178   4.580   4.579  0.2195  0.0911  0.3919
    11RH     C3 4053   3.282   4.436   4.530  0.2682  0.1061  0.4498
    11RH     C4 4054   3.478   4.379   4.401 -0.2496 -0.0095  0.0936
    11RH     S2 4055   3.248   4.279   4.583  0.4004  0.1349  0.6236
    11RH     O1 4056   3.484   4.661   4.345 -0.0058  0.0514  0.0834
    11RH     C5 4057   3.272   4.825   4.468 -0.0093  0.0427  0.0896
    21BTZ    C6 4058   3.189   4.918   4.540  0.1183  0.0261 -0.0469
    21BTZ    C7 4059   3.110   4.888   4.647 -0.0243 -0.0314 -0.1670
    21BTZ    C8 4060   3.194   5.053   4.493  0.0321  0.0156 -0.0863
    21BTZ    C9 4061   3.032   4.989   4.714 -0.2570 -0.1018 -0.3307
    21BTZ   C10 4062   3.033   5.120   4.673 -0.3469 -0.1144 -0.3741
    21BTZ   C11 4063   3.114   5.156   4.561 -0.2045 -0.0559 -0.2525
    21BTZ    N2 4064   3.267   5.095   4.389  0.1542  0.0674  0.0201
    21BTZ    N3 4065   3.123   5.280   4.512 -0.2726 -0.0615 -0.2799
    21BTZ    S3 4066   3.237   5.270   4.374 -0.0319  0.0261 -0.0901
    31IDT   C12 4067   2.941   5.213   4.743 -0.0185  0.0592 -0.0529
    31IDT   C13 4068   2.878   5.323   4.690 -0.2669 -0.0581  0.0007
    31IDT   C14 4069   2.795   5.390   4.786 -0.3147 -0.2149  0.0696
    31IDT   C15 4070   2.795   5.332   4.911 -0.1036 -0.2181  0.0691
    31IDT    S4 4071   2.901   5.187   4.918  0.1746 -0.0211 -0.0197
    4IDB    C16 4072   2.708   5.407   4.995 -0.0804 -0.3464  0.1536
    4IDB    C17 4073   2.655   5.518   4.923  0.3865 -0.2264 -0.0142
    51IDQ   C18 4074   2.711   5.519   4.789  0.3338 -0.7066  0.6048
    4IDB    C19 4075   2.562   5.604   4.982  0.3654 -0.0412 -0.3121
    51IDQ   C20 4076   2.604   5.529   4.667  0.1612 -0.0845 -0.0899
    51IDQ   C21 4077   2.813   5.642   4.765  0.6153  0.0293  0.1093
    51IDQ   C22 4078   2.876   5.739   4.865 -0.3367 -0.3432  0.2346
    51IDQ   C23 4079   2.569   5.426   4.561 -0.0318  0.0998 -0.0464
    51IDQ   C24 4080   2.950   5.668   4.981  0.1362  0.4446 -0.0294
    51IDQ   C25 4081   3.035   5.753   5.084  0.2268 -0.2096  0.2622
    51IDQ   C26 4082   2.967   5.870   5.150 -0.8893  0.1390 -0.0303
    51IDQ   C27 4083   2.829   5.859   5.220 -0.5818  0.4578  0.6656
    51IDQ   C28 4084   2.783   5.987   5.282  1.0148  0.0301 -0.2947
    51IDQ   C29 4085   2.638   5.975   5.333 -0.5001  0.0807  0.3194
    51IDQ   C30 4086   2.527   5.291   4.611 -0.4192  0.1947 -0.1439
    51IDQ   C31 4087   2.478   5.193   4.499  0.2141 -0.1545  0.2692
    51IDQ   C32 4088   2.446   5.050   4.543  0.8519  0.0181 -0.2175
    51IDQ   C33 4089   2.355   5.030   4.669 -0.6321 -0.2607  0.4531
    51IDQ   C34 4090   2.320   4.891   4.695 -0.3409  0.3634 -0.0206
    51IDQ   C35 4091   2.222   4.857   4.808 -0.3458  0.4423 -0.2574
    4IDB    C36 4092   2.669   5.381   5.127 -0.5741 -0.2810  0.0235
    4IDB    C37 4093   2.574   5.469   5.186 -0.5881 -0.0913 -0.2812
    11RH    C38 4094   3.598   4.364   4.493  0.0075 -0.6781  0.2609
    4IDB    C39 4095   2.523   5.577   5.114 -0.1284  0.0241 -0.4422
    62IDT   C40 4096   2.434   5.650   5.206  0.0868 -0.0205  0.1622
    72IDQ   C41 4097   2.529   5.477   5.336  0.2522  0.4431 -0.3938
    62IDT   C42 4098   2.436   5.600   5.334 -0.2024 -0.3082  0.0556
    72IDQ   C43 4099   2.646   5.500   5.440 -0.1437 -0.3454  0.1360
    72IDQ   C44 4100   2.447   5.348   5.379 -0.7194  0.2744 -0.4408
    62IDT    S5 4101   2.331   5.796   5.192  0.1237  0.0150  0.2570
    62IDT   C45 4102   2.293   5.781   5.369 -0.2734 -0.3806  0.1419
    62IDT   C46 4103   2.356   5.673   5.427 -0.4063 -0.5122  0.0437
    82BTZ   C47 4104   2.206   5.887   5.428 -0.1799 -0.0413  0.2899
    82BTZ   C48 4105   2.100   5.929   5.352 -0.1355 -0.0354  0.2304
    82BTZ   C49 4106   2.019   6.042   5.392 -0.0119  0.1129  0.0685
    82BTZ   C50 4107   2.044   6.111   5.508  0.0671  0.2549 -0.0336
    82BTZ   C51 4108   2.236   5.956   5.550 -0.1008  0.1044  0.1876
    82BTZ   C52 4109   2.154   6.071   5.590  0.0249  0.2551  0.0230
    92RH    C53 4110   1.957   6.229   5.553 -0.0067  0.1548  0.2043
    82BTZ    N4 4111   2.337   5.924   5.631 -0.1336  0.1138  0.2319
    82BTZ    N5 4112   2.188   6.130   5.705  0.0930  0.3855 -0.0650
    82BTZ    S6 4113   2.330   6.041   5.767 -0.0024  0.3201  0.0613
    92RH    C54 4114   1.851   6.296   5.507 -0.0363  0.1173  0.2173
    92RH     S7 4115   1.770   6.274   5.344 -0.0749  0.0593  0.2443
    92RH    C55 4116   1.782   6.402   5.583 -0.0425  0.1173  0.2117
    92RH     O2 4117   1.812   6.441   5.697 -0.0215  0.1512  0.1944
    92RH     N6 4118   1.674   6.456   5.510 -0.0760  0.0730  0.2283
    92RH    C56 4119   1.648   6.406   5.385 -0.0973  0.0378  0.2468
    92RH    C57 4120   1.587   6.570   5.557  1.2693  0.5606 -0.1578
    92RH    C58 4121   1.476   6.531   5.654  0.2556 -0.1563  0.3012
    92RH     S8 4122   1.526   6.452   5.278 -0.1380 -0.0176  0.2689
    72IDQ   C59 4123   2.312   5.314   5.312 -0.1558 -0.1886 -0.2445
    72IDQ   C60 4124   2.224   5.216   5.389 -0.2265  0.1462 -0.6466
    72IDQ   C61 4125   2.086   5.165   5.340 -0.4199 -0.2581 -0.0811
    72IDQ   C62 4126   2.093   5.109   5.200  0.3213 -0.0538 -0.4993
    72IDQ   C63 4127   1.958   5.076   5.141 -0.7762 -0.1874  0.2781
    72IDQ   C64 4128   1.975   5.061   4.986  0.3084 -0.3311 -0.1882
    72IDQ   C65 4129   1.840   5.051   4.930  0.6847 -0.5702  0.5004
    72IDQ   C66 4130   2.773   5.573   5.396 -0.0789  0.1028  0.3972
    72IDQ   C67 4131   2.880   5.567   5.506 -0.0706  0.2124  0.4969
    72IDQ   C68 4132   3.019   5.621   5.471 -0.2583  0.4335  0.5134
    72IDQ   C69 4133   3.122   5.624   5.586 -0.1447 -0.0434  0.2325
    72IDQ   C70 4134   3.238   5.533   5.584  0.3580  0.4566 -0.5875
    72IDQ   C71 4135   3.199   5.385   5.588 -0.0974 -0.1350 -0.0286
    72IDQ   C72 4136   3.319   5.306   5.627 -0.3209  0.3159 -0.1975
    11RH     C1 4137   4.321   4.514   6.301 -0.0895  0.1646 -0.2941
    11RH     C2 4138   4.448   4.575   6.257  0.0088  0.1689 -0.0080
    11RH     N1 4139   4.219   4.611   6.316 -0.0964  0.1764 -0.4141
    11RH     S1 4140   4.427   4.756   6.238  0.0859  0.1878  0.0846
    11RH     C3 4141   4.250   4.742   6.289 -0.0155  0.1893 -0.2592
    11RH     C4 4142   4.098   4.572   6.391 -0.5840 -0.3751  0.1613
    11RH     S2 4143   4.149   4.876   6.299 -0.0044  0.2048 -0.3527
    11RH     O1 4144   4.302   4.393   6.323 -0.1584  0.1525 -0.4178
    11RH     C5 4145   4.560   4.505   6.235  0.0346  0.1597  0.1516
    21BTZ    C6 4146   4.694   4.541   6.198 -0.0940 -0.3435  0.1877
    21BTZ    C7 4147   4.727   4.671   6.168 -0.1982 -0.2846  0.3278
    21BTZ    C8 4148   4.799   4.444   6.204 -0.0169 -0.2688  0.0702
    21BTZ    C9 4149   4.863   4.711   6.143 -0.2320 -0.1501  0.3595
    21BTZ   C10 4150   4.967   4.622   6.148 -0.1613 -0.0747  0.2511
    21BTZ   C11 4151   4.938   4.485   6.179 -0.0511 -0.1321  0.1024
    21BTZ    N2 4152   4.781   4.315   6.232  0.0869 -0.3153 -0.0708
    21BTZ    N3 4153   5.030   4.389   6.186  0.0253 -0.0687 -0.0126
    21BTZ    S3 4154   4.942   4.238   6.227  0.1464 -0.1836 -0.1703
    31IDT   C12 4155   5.104   4.674   6.117 -0.3415  0.1833 -0.1196
    31IDT   C13 4156   5.218   4.598   6.116 -0.3613  0.1513  0.0553
    31IDT   C14 4157   5.334   4.672   6.079 -0.3098  0.0807  0.0750
    31IDT   C15 4158   5.309   4.805   6.051 -0.2506  0.0587 -0.0845
    31IDT    S4 4159   5.135   4.847   6.070 -0.2554  0.1260 -0.2734
    4IDB    C16 4160   5.435   4.870   6.013  0.1465  0.0436  0.2834
    4IDB    C17 4161   5.542   4.776   6.019  0.1848  0.0859  0.2679
    51IDQ   C18 4162   5.484   4.641   6.064 -0.1525  1.0329 -0.3743
    4IDB    C19 4163   5.672   4.813   5.985  0.1325  0.0885  0.0669
    51IDQ   C20 4164   5.511   4.539   5.944 -0.1400 -0.5521 -0.4361
    51IDQ   C21 4165   5.542   4.578   6.199  0.1257 -0.5656 -0.3354
    51IDQ   C22 4166   5.660   4.633   6.276 -0.5794 -0.2525 -0.0467
    51IDQ   C23 4167   5.404   4.478   5.850 -0.0935 -0.5399  0.4310
    51IDQ   C24 4168   5.790   4.591   6.214 -0.3543  0.3040 -0.1385
    51IDQ   C25 4169   5.894   4.682   6.278 -0.5795  0.3982 -0.3850
    51IDQ   C26 4170   6.034   4.650   6.240 -0.2363 -0.1631 -0.1164
    51IDQ   C27 4171   6.128   4.751   6.296 -0.6092  0.5003  0.4232
    51IDQ   C28 4172   6.264   4.733   6.232  0.6857  0.0115  0.2229
    51IDQ   C29 4173   6.355   4.831   6.301 -0.3434  0.4065  0.1073
    51IDQ   C30 4174   5.352   4.570   5.737  0.1718  0.1311  0.0826
    51IDQ   C31 4175   5.228   4.513   5.669  0.1803  0.5188  0.2104
    51IDQ   C32 4176   5.109   4.485   5.763  0.1172 -0.1961 -1.0708
    51IDQ   C33 4177   4.980   4.450   5.699  0.3879  0.2301  0.2391
    51IDQ   C34 4178   4.880   4.414   5.806  0.6063  0.0474 -0.3655
    51IDQ   C35 4179   4.758   4.380   5.731  0.6730  0.0477  0.0133
    4IDB    C36 4180   5.457   5.003   5.973  0.0553  0.0033  0.0967
    4IDB    C37 4181   5.591   5.039   5.939  0.0027  0.0067 -0.1074
    11RH    C38 4182   4.103   4.573   6.544 -0.7861 -0.2907 -0.4230
    4IDB    C39 4183   5.694   4.945   5.945  0.0412  0.0485 -0.1199
    62IDT   C40 4184   5.820   5.006   5.906  0.1327 -0.5145  0.1385
    72IDQ   C41 4185   5.648   5.167   5.882  0.2031 -0.5124 -0.4608
    62IDT   C42 4186   5.793   5.134   5.864 -0.4504 -0.8041 -0.4081
    72IDQ   C43 4187   5.631   5.281   5.991 -0.5942  0.0876  0.4479
    72IDQ   C44 4188   5.563   5.208   5.748 -0.2457 -0.7896 -0.7810
    62IDT    S5 4189   5.991   4.959   5.873  0.3339  0.0894  0.2864
    62IDT   C45 4190   6.017   5.123   5.801 -0.4178 -0.0905 -0.4337
    62IDT   C46 4191   5.905   5.201   5.805 -0.7626 -0.5649 -0.7323
    82BTZ   C47 4192   6.143   5.158   5.727  0.0702  0.2583  0.1940
    82BTZ   C48 4193   6.216   5.053   5.679 -0.0057  0.2092  0.1861
    82BTZ   C49 4194   6.346   5.071   5.619 -0.0499  0.1352  0.0660
    82BTZ   C50 4195   6.403   5.195   5.608 -0.0184  0.1102 -0.0458
    82BTZ   C51 4196   6.198   5.290   5.717  0.1057  0.2347  0.0794
    82BTZ   C52 4197   6.330   5.309   5.656  0.0607  0.1594 -0.0426
    92RH    C53 4198   6.538   5.215   5.560  0.0981  0.0015  0.3602
    82BTZ    N4 4199   6.137   5.401   5.759  0.1792  0.2772  0.0747
    82BTZ    N5 4200   6.375   5.435   5.650  0.0981  0.1415 -0.1453
    82BTZ    S6 4201   6.248   5.537   5.723  0.1943  0.2217 -0.0890
    92RH    C54 4202   6.637   5.136   5.517  0.1177  0.0660  0.2855
    92RH     S7 4203   6.630   4.954   5.494  0.0587  0.1274 -0.2055
    92RH    C55 4204   6.772   5.185   5.481  0.1932  0.0986  0.6018
    92RH     O2 4205   6.809   5.304   5.485  0.2459  0.0707  0.9657
    92RH     N6 4206   6.856   5.080   5.439  0.1983  0.1669  0.4386
    92RH    C56 4207   6.805   4.952   5.438  0.1364  0.1929  0.0304
    92RH    C57 4208   7.004   5.104   5.425 -0.0441  0.7286  0.2914
    92RH    C58 4209   7.066   5.119   5.282 -0.2554 -0.2382 -0.2410
    92RH     S8 4210   6.884   4.810   5.393  0.1280  0.2720 -0.2371
    72IDQ   C59 4211   5.609   5.153   5.612 -0.2435  0.4738 -0.1473
    72IDQ   C60 4212   5.623   5.000   5.594 -0.5261 -0.0169  0.4009
    72IDQ   C61 4213   5.633   4.964   5.444  0.1995 -0.2330  0.0277
    72IDQ   C62 4214   5.628   4.815   5.421  0.5601  0.1143 -0.0376
    72IDQ   C63 4215   5.658   4.782   5.274  0.4297  0.6704 -0.1644
    72IDQ   C64 4216   5.797   4.812   5.223 -0.2944 -0.4704  0.0566
    72IDQ   C65 4217   5.823   4.763   5.080 -0.2106  0.1804  0.2983
    72IDQ   C66 4218   5.618   5.432   5.957  0.4654 -0.2682  0.1130
    72IDQ   C67 4219   5.557   5.505   6.074  0.1547 -0.3107  0.1010
    72IDQ   C68 4220   5.500   5.643   6.041 -0.5968 -0.0089 -0.0759
    72IDQ   C69 4221   5.467   5.716   6.171  0.0425 -0.3171 -0.2573
    72IDQ   C70 4222   5.396   5.853   6.159 -0.2425 -0.5822 -0.1257
    72IDQ   C71 4223   5.278   5.885   6.058 -0.1278  0.1542  0.3178
    72IDQ   C72 4224   5.167   5.778   6.057  0.0546  0.1930 -0.2910
    11RH     C1 4225   3.043   0.433   3.614  0.0468  0.1144 -0.0959
    11RH     C2 4226   3.016   0.337   3.504 -0.0802 -0.0328  0.0615
    11RH     N1 4227   3.159   0.397   3.687  0.0223  0.1022 -0.0624
    11RH     S1 4228   3.145   0.207   3.503 -0.2238 -0.1777  0.2434
    11RH     C3 4229   3.228   0.284   3.648 -0.1090 -0.0368  0.1026
    11RH     C4 4230   3.211   0.487   3.791 -0.4482  0.7851 -0.1879
    11RH     S2 4231   3.368   0.221   3.717 -0.1653 -0.0813  0.1762
    11RH     O1 4232   2.974   0.532   3.642  0.1617  0.2348 -0.2404
    11RH     C5 4233   2.912   0.348   3.421 -0.0850 -0.0523  0.0649
    21BTZ    C6 4234   2.863   0.270   3.306 -0.1869 -0.0826  0.1201
    21BTZ    C7 4235   2.918   0.152   3.266 -0.1488 -0.0867  0.1839
    21BTZ    C8 4236   2.746   0.319   3.238 -0.1225 -0.0889  0.0057
    21BTZ    C9 4237   2.863   0.075   3.157 -0.0463 -0.0972  0.1389
    21BTZ   C10 4238   2.752   0.118   3.088  0.0180 -0.1035  0.0302
    21BTZ   C11 4239   2.690   0.241   3.127 -0.0182 -0.0996 -0.0401
    21BTZ    N2 4240   2.683   0.433   3.268 -0.1509 -0.0858 -0.0647
    21BTZ    N3 4241   2.582   0.293   3.068  0.0372 -0.1050 -0.1472
    21BTZ    S3 4242   2.546   0.446   3.154 -0.0432 -0.0965 -0.1952
    31IDT   C12 4243   2.703   0.037   2.975 -0.1695 -0.3113 -0.1008
    31IDT   C13 4244   2.578   0.029   2.921 -0.1628 -0.4962 -0.0917
    31IDT   C14 4245   2.563  -0.079   2.829 -0.0517 -0.6038  0.0164
    31IDT   C15 4246   2.677  -0.154   2.812  0.0268 -0.5021  0.0902
    31IDT    S4 4247   2.813  -0.093   2.913 -0.0344 -0.2598  0.0280
    4IDB    C16 4248   2.654  -0.259   2.720  0.8662 -0.3788 -0.1252
    4IDB    C17 4249   2.520  -0.255   2.672  0.7396 -0.0992  0.2424
    51IDQ   C18 4250   2.451  -0.133   2.735  0.4952 -0.7118  0.7110
    4IDB    C19 4251   2.477  -0.341   2.572  0.3768  0.2095  0.1254
    51IDQ   C20 4252   2.406  -0.042   2.604 -0.8603  0.4754 -0.6657
    51IDQ   C21 4253   2.317  -0.154   2.813  0.4708  0.4154 -0.3741
    51IDQ   C22 4254   2.249  -0.296   2.833  0.3813 -0.4956 -0.1471
    51IDQ   C23 4255   2.485   0.090   2.577 -0.0968  0.1414  0.3337
    51IDQ   C24 4256   2.153  -0.289   2.946 -0.6080 -0.0464 -0.8169
    51IDQ   C25 4257   2.068  -0.412   2.969 -0.1310 -0.5236 -0.3399
    51IDQ   C26 4258   1.972  -0.457   2.858 -0.3583  0.3207 -0.1045
    51IDQ   C27 4259   1.898  -0.592   2.885  0.3697 -0.3391  0.1066
    51IDQ   C28 4260   1.839  -0.641   2.757 -0.5499 -0.3116 -0.0857
    51IDQ   C29 4261   1.805  -0.785   2.773 -0.5117 -0.1854 -0.0755
    51IDQ   C30 4262   2.461   0.156   2.437 -0.0979 -0.2386 -0.2279
    51IDQ   C31 4263   2.311   0.189   2.408 -0.7032 -0.1513 -0.4439
    51IDQ   C32 4264   2.282   0.272   2.281 -0.4933  0.8813 -0.3923
    51IDQ   C33 4265   2.352   0.229   2.148 -0.1510 -0.3634  1.0144
    51IDQ   C34 4266   2.299   0.305   2.020 -0.6169 -0.1229 -0.1281
    51IDQ   C35 4267   2.385   0.256   1.904  0.0233 -0.6100  0.2423
    4IDB    C36 4268   2.747  -0.352   2.669  0.6289 -0.3510 -0.6149
    4IDB    C37 4269   2.701  -0.440   2.567  0.2591 -0.0335 -0.7277
    11RH    C38 4270   3.165   0.474   3.934  0.1685  0.1072  0.1889
    4IDB    C39 4271   2.570  -0.434   2.521  0.1395  0.2373 -0.3643
    62IDT   C40 4272   2.556  -0.523   2.409  0.0668 -0.0294 -0.3249
    72IDQ   C41 4273   2.779  -0.546   2.494 -0.0497  0.5010  0.9226
    62IDT   C42 4274   2.678  -0.580   2.380  0.0350 -0.1506 -0.2245
    72IDQ   C43 4275   2.799  -0.681   2.580 -0.0927 -0.0281 -0.8018
    72IDQ   C44 4276   2.916  -0.495   2.426 -0.4927  0.3548 -0.3312
    62IDT    S5 4277   2.426  -0.583   2.301  0.0463 -0.0951 -0.2634
    62IDT   C45 4278   2.550  -0.688   2.218 -0.0068 -0.2923 -0.0972
    62IDT   C46 4279   2.675  -0.673   2.271 -0.0066 -0.2993 -0.0957
    82BTZ   C47 4280   2.505  -0.788   2.120 -0.2618 -0.0067 -0.2006
    82BTZ   C48 4281   2.396  -0.862   2.159 -0.1870 -0.1414 -0.2459
    82BTZ   C49 4282   2.333  -0.956   2.070 -0.0523 -0.1975 -0.2825
    82BTZ   C50 4283   2.379  -0.976   1.942  0.0072 -0.1191 -0.2738
    82BTZ   C51 4284   2.557  -0.805   1.988 -0.2040  0.0796 -0.1896
    82BTZ   C52 4285   2.492  -0.901   1.897 -0.0672  0.0226 -0.2269
    92RH    C53 4286   2.324  -1.078   1.850 -0.1466  0.1177  0.2197
    82BTZ    N4 4287   2.662  -0.739   1.939 -0.2670  0.2122 -0.1469
    82BTZ    N5 4288   2.546  -0.912   1.775 -0.0201  0.1093 -0.2141
    82BTZ    S6 4289   2.684  -0.798   1.771 -0.1515  0.2708 -0.1525
    92RH    C54 4290   2.227  -1.168   1.867 -0.1614  0.0952  0.0208
    92RH     S7 4291   2.130  -1.198   2.020 -0.5955  0.2010 -0.2283
    92RH    C55 4292   2.181  -1.260   1.760  0.1846 -0.0236 -0.0287
    92RH     O2 4293   2.226  -1.265   1.645  0.5224 -0.1143  0.1049
    92RH     N6 4294   2.077  -1.344   1.806  0.0848 -0.0220 -0.2513
    92RH    C56 4295   2.034  -1.331   1.936 -0.2990  0.0836 -0.3860
    92RH    C57 4296   2.041  -1.476   1.732  0.5955  0.1268  0.2934
    92RH    C58 4297   1.924  -1.466   1.631  0.6987  0.6571 -0.3854
    92RH     S8 4298   1.913  -1.418   2.014 -0.4931  0.1091 -0.6554
    72IDQ   C59 4299   2.925  -0.353   2.366  0.5274 -0.1445  0.1191
    72IDQ   C60 4300   2.866  -0.335   2.223  0.2163  0.1359 -0.5907
    72IDQ   C61 4301   2.925  -0.411   2.107  1.1324  0.3411  0.0628
    72IDQ   C62 4302   3.074  -0.391   2.089 -0.9570  0.0658 -0.0300
    72IDQ   C63 4303   3.130  -0.482   1.978  0.6184  0.5567  0.3251
    72IDQ   C64 4304   3.281  -0.458   1.965  0.6937 -0.5117  0.1890
    72IDQ   C65 4305   3.330  -0.546   1.858  0.1854  0.5094 -0.0644
    72IDQ   C66 4306   2.883  -0.796   2.544 -0.5351 -0.1765  0.1103
    72IDQ   C67 4307   2.885  -0.900   2.656  0.3176  0.6602 -0.0472
    72IDQ   C68 4308   2.917  -1.044   2.601  0.3537 -0.4558  0.1477
    72IDQ   C69 4309   2.940  -1.161   2.690  0.5720 -0.0171  0.5670
    72IDQ   C70 4310   2.815  -1.211   2.767  0.4821 -0.6602 -0.0108
    72IDQ   C71 4311   2.844  -1.332   2.855  0.4499  0.5417  0.1219
    72IDQ   C72 4312   2.725  -1.380   2.937 -0.1344 -0.8811 -0.0715
    11RH     C1 4313   1.936   5.571   5.407 -0.0909  0.1819 -0.0470
    11RH     C2 4314   1.900   5.539   5.267  0.0595  0.2056 -0.0912
    11RH     N1 4315   1.823   5.611   5.481 -0.2134 -0.0711 -0.0942
    11RH     S1 4316   1.720   5.563   5.242  0.0301 -0.1059 -0.1923
    11RH     C3 4317   1.701   5.615   5.418 -0.1795 -0.2526 -0.1712
    11RH     C4 4318   1.842   5.657   5.626  0.5593  0.2065  0.0454
    11RH     S2 4319   1.552   5.659   5.483 -0.3033 -0.5649 -0.2394
    11RH     O1 4320   2.050   5.565   5.456 -0.1101  0.3581  0.0228
    11RH     C5 4321   1.989   5.498   5.176  0.1940  0.4251 -0.0600
    21BTZ    C6 4322   1.976   5.465   5.032 -0.1917  0.1123 -0.2597
    21BTZ    C7 4323   1.861   5.479   4.958 -0.1887 -0.0240 -0.2912
    21BTZ    C8 4324   2.093   5.412   4.967 -0.1380  0.1619 -0.2033
    21BTZ    C9 4325   1.855   5.442   4.819 -0.1332 -0.1178 -0.2691
    21BTZ   C10 4326   1.964   5.391   4.753 -0.0807 -0.0752 -0.2152
    21BTZ   C11 4327   2.087   5.375   4.826 -0.0815  0.0665 -0.1807
    21BTZ    N2 4328   2.210   5.394   5.028 -0.1353  0.2923 -0.1684
    21BTZ    N3 4329   2.199   5.326   4.772 -0.0334  0.1204 -0.1278
    21BTZ    S3 4330   2.321   5.327   4.904 -0.0588  0.2990 -0.1042
    31IDT   C12 4331   1.945   5.356   4.607  0.3914  0.2182 -0.1253
    31IDT   C13 4332   2.039   5.297   4.527  0.4526  0.5637 -0.3117
    31IDT   C14 4333   1.991   5.268   4.396  0.3557  0.5428 -0.2708
    31IDT   C15 4334   1.859   5.303   4.376  0.2203  0.1816 -0.0536
    31IDT    S4 4335   1.786   5.379   4.522  0.2049 -0.1626  0.1177
    4IDB    C16 4336   1.822   5.272   4.243  0.3721  0.3393 -0.0394
    4IDB    C17 4337   1.937   5.225   4.172  0.4575  0.6262 -0.0908
    51IDQ   C18 4338   2.050   5.217   4.266 -0.3436  0.2219 -0.5202
    4IDB    C19 4339   1.928   5.188   4.039  0.4255  0.3222 -0.0048
    51IDQ   C20 4340   2.110   5.060   4.282 -0.3905 -0.4320  0.3468
    51IDQ   C21 4341   2.180   5.309   4.242  0.1151  0.3871 -0.4951
    51IDQ   C22 4342   2.169   5.421   4.143  0.5739  0.2798  0.3377
    51IDQ   C23 4343   2.097   4.972   4.408  0.9692  0.2820 -0.6229
    51IDQ   C24 4344   2.285   5.514   4.130  0.3181 -0.2880 -0.0164
    51IDQ   C25 4345   2.302   5.595   4.257 -0.4464 -0.2669  0.6306
    51IDQ   C26 4346   2.389   5.715   4.220  0.0125 -0.4440 -0.5473
    51IDQ   C27 4347   2.371   5.820   4.326  0.7905  0.1237  0.0064
    51IDQ   C28 4348   2.464   5.944   4.320  0.6072 -0.0482  0.0312
    51IDQ   C29 4349   2.451   6.043   4.435  0.3513 -0.1440 -0.2288
    51IDQ   C30 4350   1.954   4.913   4.416  0.0561  0.2189  0.0963
    51IDQ   C31 4351   1.916   4.844   4.541  0.2646 -0.2806  0.0179
    51IDQ   C32 4352   1.778   4.767   4.542 -0.0747 -0.5013  0.2404
    51IDQ   C33 4353   1.640   4.826   4.492  0.1663 -0.1224 -0.1954
    51IDQ   C34 4354   1.599   4.960   4.558  0.3681  0.3871 -0.1383
    51IDQ   C35 4355   1.468   5.023   4.512 -0.1542 -0.1851  0.0710
    4IDB    C36 4356   1.696   5.281   4.180  0.2532 -0.2574  0.0991
    4IDB    C37 4357   1.689   5.242   4.044  0.2221 -0.5610  0.1853
    11RH    C38 4358   1.871   5.809   5.645  0.0586  0.8734  0.4983
    4IDB    C39 4359   1.803   5.197   3.976  0.3066 -0.2745  0.1335
    62IDT   C40 4360   1.764   5.161   3.845  0.1302  0.4013 -0.0196
    72IDQ   C41 4361   1.564   5.230   3.959 -0.2119  0.2852 -0.0127
    62IDT   C42 4362   1.627   5.172   3.835  0.1252  0.4771  0.1277
    72IDQ   C43 4363   1.496   5.373   3.924  0.0257  0.4525  0.7706
    72IDQ   C44 4364   1.456   5.138   4.030 -1.0266  0.3429  0.1004
    62IDT    S5 4365   1.840   5.115   3.689 -0.0976  0.0107 -0.0179
    62IDT   C45 4366   1.674   5.114   3.614 -0.1923 -0.0316  0.1921
    62IDT   C46 4367   1.576   5.145   3.704 -0.0571  0.2326  0.2477
    82BTZ   C47 4368   1.655   5.091   3.469  0.1848 -0.3545 -0.3018
    82BTZ   C48 4369   1.768   5.083   3.393  0.0650 -0.1107 -0.5091
    82BTZ   C49 4370   1.763   5.065   3.250 -0.1603  0.2909 -0.5537
    82BTZ   C50 4371   1.643   5.055   3.183 -0.2653  0.4483 -0.3910
    82BTZ   C51 4372   1.527   5.082   3.404  0.0822 -0.2033 -0.1259
    82BTZ   C52 4373   1.522   5.063   3.259 -0.1468  0.2049 -0.1712
    92RH    C53 4374   1.640   5.031   3.041 -0.1435 -0.3656 -0.3037
    82BTZ    N4 4375   1.410   5.088   3.467  0.1818 -0.4116  0.0827
    82BTZ    N5 4376   1.399   5.055   3.205 -0.2312  0.3247  0.0010
    82BTZ    S6 4377   1.284   5.070   3.341 -0.0171 -0.0880  0.2332
    92RH    C54 4378   1.734   5.012   2.947 -0.0111 -0.2707 -0.1925
    92RH     S7 4379   1.916   5.009   2.971 -0.0276  0.1395 -0.0132
    92RH    C55 4380   1.702   4.988   2.804  0.1755 -0.4926 -0.1983
    92RH     O2 4381   1.588   4.984   2.755  0.2306 -0.7864 -0.3045
    92RH     N6 4382   1.820   4.971   2.727  0.2872 -0.3280 -0.0658
    92RH    C56 4383   1.941   4.977   2.792  0.2128 -0.0015  0.0454
    92RH    C57 4384   1.806   4.931   2.586  0.5928  0.2966  0.6778
    92RH    C58 4385   1.786   5.051   2.493 -0.0826 -0.4305  0.2372
    92RH     S8 4386   2.095   4.960   2.724  0.3156  0.2490  0.2126
    72IDQ   C59 4387   1.354   5.044   3.966 -0.3514 -0.5174  0.1291
    72IDQ   C60 4388   1.321   4.914   4.033  0.0067  0.6014  0.1893
    72IDQ   C61 4389   1.298   4.891   4.182  0.2749  0.4220 -0.4295
    72IDQ   C62 4390   1.246   4.747   4.200  0.0751  0.5981 -0.1018
    72IDQ   C63 4391   1.226   4.694   4.346 -0.9523 -0.2826  0.1863
    72IDQ   C64 4392   1.159   4.788   4.448 -0.0280 -0.0717 -0.5233
    72IDQ   C65 4393   1.105   4.709   4.564  0.1993 -0.3585 -0.1972
    72IDQ   C66 4394   1.579   5.490   3.864 -0.3177  1.0711 -0.2411
    72IDQ   C67 4395   1.524   5.623   3.893 -0.2871 -0.7625  0.5001
    72IDQ   C68 4396   1.602   5.742   3.841  0.3886 -0.7534 -0.0026
    72IDQ   C69 4397   1.527   5.875   3.850  0.3350  0.0236  0.5345
    72IDQ   C70 4398   1.620   5.993   3.856 -0.0215 -0.0053 -0.4635
    72IDQ   C71 4399   1.534   6.122   3.852 -0.2298 -0.3530 -0.5075
    72IDQ   C72 4400   1.615   6.258   3.853 -0.1389 -0.6734  0.0257
    11RH     C1 4401   3.394   3.087   1.633  0.0169 -0.1852  0.1664
    11RH     C2 4402   3.502   3.159   1.706 -0.0045  0.0304 -0.0131
    11RH     N1 4403   3.273   3.090   1.705  0.0609 -0.1947  0.2417
    11RH     S1 4404   3.436   3.226   1.863  0.0345  0.2065 -0.0713
    11RH     C3 4405   3.270   3.156   1.826  0.0773 -0.0132  0.1443
    11RH     C4 4406   3.150   3.033   1.645  0.5750  0.2041  0.0958
    11RH     S2 4407   3.139   3.174   1.930  0.1282  0.0176  0.2030
    11RH     O1 4408   3.407   3.030   1.523 -0.0008 -0.3405  0.2439
    11RH     C5 4409   3.627   3.170   1.659 -0.0463  0.0821 -0.1132
    21BTZ    C6 4410   3.747   3.228   1.715  0.2929  0.0763 -0.0029
    21BTZ    C7 4411   3.758   3.294   1.835  0.3789  0.0811 -0.0134
    21BTZ    C8 4412   3.866   3.205   1.638  0.2457  0.0189 -0.0584
    21BTZ    C9 4413   3.886   3.340   1.885  0.4229  0.0303 -0.0784
    21BTZ   C10 4414   4.002   3.320   1.815  0.3807 -0.0255 -0.1329
    21BTZ   C11 4415   3.995   3.252   1.689  0.2904 -0.0329 -0.1244
    21BTZ    N2 4416   3.868   3.142   1.520  0.1618  0.0085 -0.0544
    21BTZ    N3 4417   4.102   3.226   1.612  0.2424 -0.0848 -0.1736
    21BTZ    S3 4418   4.039   3.140   1.468  0.1357 -0.0695 -0.1368
    31IDT   C12 4419   4.129   3.373   1.872  0.3580 -0.2960  0.3962
    31IDT   C13 4420   4.235   3.297   1.913  0.5645  0.0777  0.5684
    31IDT   C14 4421   4.341   3.374   1.968  0.2935  0.4745  0.5409
    31IDT   C15 4422   4.317   3.510   1.970 -0.1203  0.4060  0.3480
    31IDT    S4 4423   4.156   3.551   1.901 -0.1998 -0.1715  0.1848
    4IDB    C16 4424   4.434   3.572   2.028  0.2563 -0.5982 -0.4231
    4IDB    C17 4425   4.532   3.473   2.059  0.4178 -0.5481 -0.7644
    51IDQ   C18 4426   4.478   3.330   2.024  0.2703 -0.4210 -0.5980
    4IDB    C19 4427   4.657   3.509   2.110  0.2736 -0.5305 -0.4176
    51IDQ   C20 4428   4.577   3.250   1.924  0.0061 -0.2985 -0.1236
    51IDQ   C21 4429   4.458   3.232   2.146 -0.3270 -0.1506  0.0433
    51IDQ   C22 4430   4.475   3.270   2.292 -0.0815  0.2860  0.3138
    51IDQ   C23 4431   4.555   3.228   1.768 -0.5992 -0.1470  0.1553
    51IDQ   C24 4432   4.456   3.150   2.386  0.5710  0.7528  0.3913
    51IDQ   C25 4433   4.386   3.180   2.526 -0.1047 -0.0879  0.3978
    51IDQ   C26 4434   4.475   3.280   2.612  0.1635 -0.3332 -0.9417
    51IDQ   C27 4435   4.434   3.284   2.762 -0.0970 -0.2348 -0.4744
    51IDQ   C28 4436   4.504   3.402   2.825  0.4476 -0.7279  0.1760
    51IDQ   C29 4437   4.456   3.420   2.967 -0.0386  0.0940  0.5468
    51IDQ   C30 4438   4.525   3.352   1.688 -0.0822  0.8696 -0.2187
    51IDQ   C31 4439   4.475   3.304   1.553  0.3091 -0.5772  0.3412
    51IDQ   C32 4440   4.403   3.414   1.486 -0.0984 -0.7281  0.4730
    51IDQ   C33 4441   4.354   3.393   1.340  0.4346 -0.1614 -0.2989
    51IDQ   C34 4442   4.294   3.514   1.280 -0.2467  0.0155 -0.0367
    51IDQ   C35 4443   4.261   3.497   1.139 -0.1180  0.4630  1.0121
    4IDB    C36 4444   4.460   3.708   2.048 -0.0522 -0.6313  0.2715
    4IDB    C37 4445   4.588   3.743   2.100 -0.1959 -0.6127  0.6176
    11RH    C38 4446   3.072   3.116   1.554 -0.0854 -0.4603  0.3572
    4IDB    C39 4447   4.683   3.645   2.130 -0.0350 -0.5636  0.2770
    62IDT   C40 4448   4.807   3.715   2.171  0.0761  0.4346 -0.0661
    72IDQ   C41 4449   4.644   3.886   2.122 -0.0462 -0.6778 -0.4191
    62IDT   C42 4450   4.785   3.851   2.169  0.3328  0.4787  0.0248
    72IDQ   C43 4451   4.566   3.965   2.238  0.6306 -0.2842 -0.1609
    72IDQ   C44 4452   4.635   3.974   1.989  0.3661 -0.0530 -0.4594
    62IDT    S5 4453   4.975   3.675   2.222 -0.0120  0.0823 -0.0484
    62IDT   C45 4454   5.008   3.853   2.239  0.3192  0.0098  0.0876
    62IDT   C46 4455   4.898   3.929   2.208  0.4706  0.2388  0.1118
    82BTZ   C47 4456   5.147   3.908   2.259 -0.1615  0.1332  0.0768
    82BTZ   C48 4457   5.244   3.812   2.266 -0.1615  0.1289  0.0234
    82BTZ   C49 4458   5.377   3.842   2.313 -0.1242  0.1307 -0.0828
    82BTZ   C50 4459   5.413   3.968   2.353 -0.0869  0.1366 -0.1353
    82BTZ   C51 4460   5.179   4.042   2.299 -0.1230  0.1395  0.0252
    82BTZ   C52 4461   5.314   4.072   2.347 -0.0851  0.1413 -0.0827
    92RH    C53 4462   5.548   3.997   2.382 -0.1031 -0.2474 -0.2468
    82BTZ    N4 4463   5.093   4.144   2.296 -0.1191  0.1440  0.0691
    82BTZ    N5 4464   5.337   4.199   2.383 -0.0507  0.1472 -0.1255
    82BTZ    S6 4465   5.183   4.287   2.356 -0.0654  0.1509 -0.0278
    92RH    C54 4466   5.662   3.927   2.388 -0.0806 -0.2042 -0.1502
    92RH     S7 4467   5.680   3.746   2.364 -0.0277 -0.2373  0.1308
    92RH    C55 4468   5.794   3.988   2.415 -0.0960 -0.1202 -0.2608
    92RH     O2 4469   5.816   4.108   2.436 -0.1307 -0.0805 -0.4520
    92RH     N6 4470   5.897   3.890   2.415 -0.0660 -0.0892 -0.1207
    92RH    C56 4471   5.862   3.759   2.391 -0.0285 -0.1383  0.0886
    92RH    C57 4472   6.041   3.920   2.446  0.0937  0.9111 -0.4195
    92RH    C58 4473   6.121   3.963   2.325  0.0950  0.0483 -0.6102
    92RH     S8 4474   5.964   3.625   2.385  0.0122 -0.1163  0.2865
    72IDQ   C59 4475   4.757   3.996   1.892  0.0275  0.4787  0.0050
    72IDQ   C60 4476   4.722   4.075   1.769 -0.0899  0.7114 -0.5487
    72IDQ   C61 4477   4.817   4.056   1.650  0.1121  0.7244  0.0745
    72IDQ   C62 4478   4.950   4.136   1.644  0.2912  0.2000  0.0453
    72IDQ   C63 4479   4.938   4.280   1.604  0.3026  0.0310  0.1353
    72IDQ   C64 4480   5.049   4.381   1.646 -0.0328 -0.0372  0.3749
    72IDQ   C65 4481   5.017   4.529   1.615 -0.1500 -0.0624 -0.2754
    72IDQ   C66 4482   4.539   3.893   2.373 -0.2348  0.6770  0.4424
    72IDQ   C67 4483   4.494   3.985   2.490  0.0400  0.2574  0.3543
    72IDQ   C68 4484   4.502   3.916   2.632  0.5746  0.3596 -0.1161
    72IDQ   C69 4485   4.426   3.786   2.654  0.1236  0.1767 -0.6536
    72IDQ   C70 4486   4.275   3.778   2.627 -0.4286 -0.7657  0.4640
    72IDQ   C71 4487   4.223   3.636   2.610 -0.2368  0.5859  0.1210
    72IDQ   C72 4488   4.257   3.566   2.479 -0.1295 -0.5373  0.1463
    11RH     C1 4489   3.236   5.510   3.867  0.3746 -0.1179 -0.2298
    11RH     C2 4490   3.208   5.590   3.745  0.0606 -0.0062 -0.0864
    11RH     N1 4491   3.281   5.591   3.973  0.3418 -0.1722 -0.1741
    11RH     S1 4492   3.242   5.767   3.778 -0.2573  0.0203  0.1123
    11RH     C3 4493   3.292   5.727   3.951  0.0399 -0.1175 -0.0036
    11RH     C4 4494   3.318   5.527   4.105 -0.2116 -0.4553 -0.3721
    11RH     S2 4495   3.343   5.845   4.060 -0.0636 -0.1633  0.0948
    11RH     O1 4496   3.222   5.387   3.877  0.6368 -0.1605 -0.3808
    11RH     C5 4497   3.164   5.537   3.631  0.0248  0.0624 -0.1046
    21BTZ    C6 4498   3.093   5.586   3.512  0.0516 -0.0926 -0.1056
    21BTZ    C7 4499   3.055   5.717   3.500  0.0905 -0.0881 -0.1764
    21BTZ    C8 4500   3.038   5.490   3.421 -0.0783 -0.1472  0.0282
    21BTZ    C9 4501   2.963   5.761   3.398  0.0046 -0.1367 -0.1199
    21BTZ   C10 4502   2.909   5.673   3.308 -0.1202 -0.1898  0.0074
    21BTZ   C11 4503   2.944   5.534   3.317 -0.1656 -0.1968  0.0857
    21BTZ    N2 4504   3.067   5.360   3.423 -0.1274 -0.1570  0.1071
    21BTZ    N3 4505   2.898   5.439   3.235 -0.2849 -0.2462  0.2108
    21BTZ    S3 4506   2.973   5.286   3.289 -0.2908 -0.2313  0.2613
    31IDT   C12 4507   2.822   5.739   3.207  0.1133 -0.1684 -0.0860
    31IDT   C13 4508   2.787   5.871   3.196  0.2596 -0.1291 -0.0764
    31IDT   C14 4509   2.702   5.897   3.084  0.3131 -0.0211 -0.0924
    31IDT   C15 4510   2.671   5.785   3.010  0.2082  0.0224 -0.1147
    31IDT    S4 4511   2.748   5.636   3.076  0.0320 -0.0707 -0.1168
    4IDB    C16 4512   2.586   5.821   2.901  0.1834  0.3877  0.3649
    4IDB    C17 4513   2.558   5.961   2.907  0.2480  0.4324 -0.2331
    51IDQ   C18 4514   2.632   6.022   3.026 -0.6739 -0.0119 -0.3926
    4IDB    C19 4515   2.461   6.018   2.825  0.3751  0.1535 -0.5814
    51IDQ   C20 4516   2.729   6.131   2.968 -0.1006 -0.0040 -0.1573
    51IDQ   C21 4517   2.558   6.091   3.146  0.3522 -0.3387 -0.1359
    51IDQ   C22 4518   2.403   6.082   3.160 -0.0363  0.1689  0.2575
    51IDQ   C23 4519   2.882   6.132   2.988 -0.4728 -0.1691 -0.3738
    51IDQ   C24 4520   2.341   6.160   3.275 -0.0265  0.0770  0.1628
    51IDQ   C25 4521   2.408   6.166   3.408  0.2794  0.1332 -0.5325
    51IDQ   C26 4522   2.411   6.034   3.490 -0.0764 -0.2684  0.5756
    51IDQ   C27 4523   2.504   6.035   3.602 -0.0527 -0.2719  0.5754
    51IDQ   C28 4524   2.654   6.039   3.570 -0.0321 -0.0326 -0.4840
    51IDQ   C29 4525   2.727   6.010   3.696 -0.4124 -0.3875  0.3004
    51IDQ   C30 4526   2.938   6.164   3.127  0.1615 -0.1202  0.3526
    51IDQ   C31 4527   2.922   6.306   3.164 -0.2620  0.2406 -0.7935
    51IDQ   C32 4528   2.959   6.342   3.311 -0.1308  0.1285  0.5193
    51IDQ   C33 4529   2.890   6.277   3.429  0.0630 -0.1443 -0.1492
    51IDQ   C34 4530   2.954   6.309   3.566  0.0346 -0.5664  0.6588
    51IDQ   C35 4531   2.963   6.453   3.610  0.2687  0.0087  0.5759
    4IDB    C36 4532   2.517   5.737   2.812  0.2461  0.0615  0.6194
    4IDB    C37 4533   2.419   5.797   2.728  0.3760 -0.2204  0.2567
    11RH    C38 4534   3.458   5.460   4.109  0.2374 -0.0081 -0.3158
    4IDB    C39 4535   2.393   5.934   2.736  0.4379 -0.1727 -0.3269
    62IDT   C40 4536   2.290   5.966   2.639 -0.8944 -0.3237  0.6009
    72IDQ   C41 4537   2.319   5.736   2.625 -0.6568  0.4991 -1.1983
    62IDT   C42 4538   2.239   5.854   2.576 -1.2833 -0.2918  0.8535
    72IDQ   C43 4539   2.236   5.615   2.684 -0.6506 -0.9470 -0.0890
    72IDQ   C44 4540   2.389   5.699   2.493 -0.0339 -0.0082 -0.0911
    62IDT    S5 4541   2.202   6.116   2.591  0.0374 -0.0214 -0.2330
    62IDT   C45 4542   2.096   6.014   2.484 -0.1576  0.1401 -0.1941
    62IDT   C46 4543   2.130   5.881   2.489 -0.8674 -0.0296  0.4045
    82BTZ   C47 4544   2.015   6.077   2.387  0.0705 -0.1544  0.1293
    82BTZ   C48 4545   2.068   6.185   2.321  0.2482 -0.2520  0.1097
    82BTZ   C49 4546   1.999   6.248   2.211  0.3786 -0.1942  0.0604
    82BTZ   C50 4547   1.877   6.203   2.167  0.3310 -0.0389  0.0308
    82BTZ   C51 4548   1.888   6.026   2.344  0.0140  0.0092  0.0998
    82BTZ   C52 4549   1.818   6.090   2.233  0.1465  0.0679  0.0497
    92RH    C53 4550   1.800   6.262   2.062  0.3078 -0.3035  0.1489
    82BTZ    N4 4551   1.827   5.922   2.400 -0.1552  0.1159  0.1149
    82BTZ    N5 4552   1.700   6.037   2.199  0.0837  0.2217  0.0244
    82BTZ    S6 4553   1.673   5.900   2.311 -0.1523  0.2996  0.0646
    92RH    C54 4554   1.821   6.364   1.978  0.1363 -0.2728  0.1417
    92RH     S7 4555   1.972   6.469   1.970 -0.1221  0.1107  0.2737
    92RH    C55 4556   1.723   6.409   1.877  0.1303 -0.5554  0.0210
    92RH     O2 4557   1.611   6.358   1.857  0.2799 -0.8483 -0.0855
    92RH     N6 4558   1.772   6.519   1.803 -0.0703 -0.4519  0.0411
    92RH    C56 4559   1.897   6.568   1.832 -0.2257 -0.1209  0.1632
    92RH    C57 4560   1.695   6.566   1.682 -0.5182 -0.0739 -0.0710
    92RH    C58 4561   1.734   6.505   1.551  0.2345  1.0839  0.3546
    92RH     S8 4562   1.978   6.696   1.760 -0.4761  0.0652  0.2124
    72IDQ   C59 4563   2.447   5.556   2.482 -0.0078  0.1008  0.4497
    72IDQ   C60 4564   2.515   5.509   2.353 -0.0727  0.1669 -0.7861
    72IDQ   C61 4565   2.634   5.589   2.306  0.6603  0.2908 -0.7435
    72IDQ   C62 4566   2.716   5.525   2.200  0.3106  0.3589 -0.5849
    72IDQ   C63 4567   2.831   5.607   2.153 -0.0476  0.2267  0.6465
    72IDQ   C64 4568   2.936   5.661   2.246  0.4306 -0.0403  0.8109
    72IDQ   C65 4569   3.035   5.723   2.151 -0.1272 -0.2045 -0.1746
    72IDQ   C66 4570   2.151   5.644   2.804 -0.4521  0.0179 -0.4649
    72IDQ   C67 4571   2.045   5.542   2.813 -0.3340  0.6834 -0.1199
    72IDQ   C68 4572   1.927   5.562   2.908 -0.5797 -0.0910 -0.1128
    72IDQ   C69 4573   1.826   5.446   2.916  0.4337 -0.5120 -0.5891
    72IDQ   C70 4574   1.713   5.470   3.013 -0.4000  0.7026  0.2513
    72IDQ   C71 4575   1.594   5.379   2.978  0.0166 -0.4713 -0.3305
    72IDQ   C72 4576   1.486   5.382   3.081  0.4532  0.5055  0.7334
    11RH     C1 4577   3.398   1.577   2.839 -0.2859  0.2089  0.0858
    11RH     C2 4578   3.349   1.541   2.974 -0.2154  0.2031  0.1101
    11RH     N1 4579   3.393   1.467   2.751 -0.2098  0.1776  0.1198
    11RH     S1 4580   3.298   1.365   2.976 -0.0536  0.1569  0.1760
    11RH     C3 4581   3.345   1.347   2.799 -0.0869  0.1474  0.1682
    11RH     C4 4582   3.454   1.478   2.612  0.4205 -0.0017 -0.4200
    11RH     S2 4583   3.328   1.202   2.715  0.0226  0.1071  0.2156
    11RH     O1 4584   3.440   1.689   2.805 -0.3975  0.2372  0.0415
    11RH     C5 4585   3.344   1.627   3.076 -0.2658  0.2285  0.0863
    21BTZ    C6 4586   3.300   1.620   3.216 -0.4305  0.1212 -0.2369
    21BTZ    C7 4587   3.265   1.503   3.277 -0.5680  0.1078 -0.3429
    21BTZ    C8 4588   3.308   1.739   3.296 -0.2479  0.0325 -0.1206
    21BTZ    C9 4589   3.235   1.496   3.418 -0.5333  0.0071 -0.3402
    21BTZ   C10 4590   3.241   1.607   3.498 -0.3613 -0.0799 -0.2313
    21BTZ   C11 4591   3.278   1.733   3.439 -0.2127 -0.0698 -0.1178
    21BTZ    N2 4592   3.342   1.859   3.248 -0.1027  0.0357 -0.0112
    21BTZ    N3 4593   3.287   1.847   3.507 -0.0393 -0.1487 -0.0061
    21BTZ    S3 4594   3.336   1.972   3.388  0.0890 -0.0945  0.1024
    31IDT   C12 4595   3.194   1.595   3.641  0.1416  0.0474  0.1114
    31IDT   C13 4596   3.192   1.691   3.738  0.2531  0.0165  0.1445
    31IDT   C14 4597   3.124   1.650   3.856  0.1008  0.0977  0.0854
    31IDT   C15 4598   3.073   1.522   3.850 -0.1272  0.1908  0.0068
    31IDT    S4 4599   3.109   1.443   3.692 -0.1671  0.1827  0.0017
    4IDB    C16 4600   3.001   1.491   3.974 -0.4008 -0.8824  0.0654
    4IDB    C17 4601   3.009   1.609   4.054 -0.2780 -0.4787 -0.5336
    51IDQ   C18 4602   3.093   1.719   3.982 -0.1976 -0.5259 -0.2721
    4IDB    C19 4603   2.949   1.615   4.179 -0.1964  0.1922 -0.5183
    51IDQ   C20 4604   3.018   1.859   3.974 -0.0730 -0.1913 -0.3946
    51IDQ   C21 4605   3.235   1.759   4.053  0.3341 -0.7585 -0.0069
    51IDQ   C22 4606   3.257   1.726   4.199  0.4792 -0.3974 -0.2602
    51IDQ   C23 4607   2.967   1.912   3.837 -0.1965  0.5531  0.2379
    51IDQ   C24 4608   3.287   1.838   4.296  0.3155 -0.9963 -0.1606
    51IDQ   C25 4609   3.234   1.833   4.440  0.0894  0.7039  0.4962
    51IDQ   C26 4610   3.085   1.830   4.481 -0.0311 -0.0628  0.2036
    51IDQ   C27 4611   2.997   1.926   4.393  0.3212 -0.5627 -0.0308
    51IDQ   C28 4612   2.850   1.900   4.413 -0.5885  0.3042 -0.2809
    51IDQ   C29 4613   2.781   1.994   4.322 -0.1972 -0.4143 -0.3602
    51IDQ   C30 4614   2.893   2.042   3.840 -0.2393 -0.2583  0.3311
    51IDQ   C31 4615   2.771   2.067   3.930  0.4629 -0.2309  0.4786
    51IDQ   C32 4616   2.716   2.209   3.904  0.3505  0.3894  0.7317
    51IDQ   C33 4617   2.594   2.241   3.992  0.2731  0.1534 -0.2735
    51IDQ   C34 4618   2.534   2.378   3.960 -0.4628 -0.7518  0.0393
    51IDQ   C35 4619   2.460   2.461   4.067 -0.2096  0.3009 -0.7944
    4IDB    C36 4620   2.933   1.377   4.020 -0.4429 -0.6153  0.6871
    4IDB    C37 4621   2.873   1.384   4.148 -0.3584  0.0713  0.6931
    11RH    C38 4622   3.349   1.534   2.513 -0.4444  0.4475  0.0078
    4IDB    C39 4623   2.881   1.501   4.225 -0.2387  0.4592  0.1034
    62IDT   C40 4624   2.804   1.483   4.347 -0.1254  0.1023 -0.1701
    72IDQ   C41 4625   2.795   1.275   4.231  0.3260 -0.4635  0.4365
    62IDT   C42 4626   2.750   1.356   4.355 -0.3394  0.1798 -0.3715
    72IDQ   C43 4627   2.874   1.138   4.261 -0.0332  1.1313  0.0148
    72IDQ   C44 4628   2.653   1.242   4.170  0.1165 -0.0212 -0.5144
    62IDT    S5 4629   2.752   1.586   4.485  0.2500 -0.1018  0.1294
    62IDT   C45 4630   2.656   1.445   4.548  0.0902 -0.0702 -0.0420
    62IDT   C46 4631   2.666   1.335   4.469 -0.2177  0.0823 -0.2993
    82BTZ   C47 4632   2.576   1.464   4.671  0.1744 -0.2499 -0.2223
    82BTZ   C48 4633   2.564   1.590   4.723  0.2872 -0.2214 -0.2652
    82BTZ   C49 4634   2.485   1.617   4.840  0.3287 -0.1141 -0.2614
    82BTZ   C50 4635   2.417   1.518   4.906  0.2572 -0.0354 -0.2146
    82BTZ   C51 4636   2.508   1.356   4.736  0.0963 -0.1704 -0.1725
    82BTZ   C52 4637   2.427   1.384   4.856  0.1385 -0.0612 -0.1684
    92RH    C53 4638   2.340   1.536   5.025 -0.2476  0.0978  0.1636
    82BTZ    N4 4639   2.512   1.229   4.696 -0.0154 -0.1884 -0.1280
    82BTZ    N5 4640   2.366   1.278   4.911  0.0606  0.0085 -0.1208
    82BTZ    S6 4641   2.410   1.137   4.810 -0.0726 -0.0640 -0.0781
    92RH    C54 4642   2.313   1.644   5.099 -0.2704  0.0930  0.1624
    92RH     S7 4643   2.369   1.816   5.067 -0.2624  0.0953  0.1899
    92RH    C55 4644   2.230   1.641   5.221 -0.3067  0.0845  0.1376
    92RH     O2 4645   2.176   1.540   5.270 -0.3201  0.0811  0.1155
    92RH     N6 4646   2.217   1.769   5.279 -0.3248  0.0808  0.1420
    92RH    C56 4647   2.280   1.875   5.218 -0.3074  0.0851  0.1674
    92RH    C57 4648   2.123   1.795   5.391 -0.9201  1.0733  0.3916
    92RH    C58 4649   2.192   1.784   5.530 -0.1115  0.0189 -0.3667
    92RH     S8 4650   2.281   2.037   5.266 -0.3228  0.0821  0.1777
    72IDQ   C59 4651   2.642   1.143   4.058  0.3358  0.6214 -0.4923
    72IDQ   C60 4652   2.497   1.110   4.021 -0.2908  0.5390 -0.5592
    72IDQ   C61 4653   2.408   1.054   4.136  0.6486  0.2022  0.8878
    72IDQ   C62 4654   2.292   0.976   4.064  0.0070  0.1953 -0.2217
    72IDQ   C63 4655   2.198   0.926   4.176  0.1525  0.1344  0.4171
    72IDQ   C64 4656   2.084   0.845   4.108 -0.3955 -0.4779 -0.1724
    72IDQ   C65 4657   2.046   0.727   4.190  0.2942  0.2108 -0.2807
    72IDQ   C66 4658   3.018   1.141   4.319  0.1865 -0.2254 -0.0564
    72IDQ   C67 4659   3.077   1.005   4.364  0.4582  0.3544  0.2589
    72IDQ   C68 4660   3.209   1.018   4.437 -0.1814  0.0317  0.2869
    72IDQ   C69 4661   3.256   0.886   4.496  0.0323 -0.1051 -0.7678
    72IDQ   C70 4662   3.382   0.900   4.580  0.6709  0.1152 -0.7885
    72IDQ   C71 4663   3.437   0.772   4.646  0.3534 -0.1012 -0.3731
    72IDQ   C72 4664   3.340   0.690   4.725  0.0140  0.4849 -0.6980
    11RH     C1 4665   3.352   6.083   0.556 -0.1926  0.1670  0.2275
    11RH     C2 4666   3.296   5.962   0.621  0.0147  0.0846  0.2533
    11RH     N1 4667   3.388   6.058   0.422 -0.3832  0.2690  0.1553
    11RH     S1 4668   3.295   5.823   0.502 -0.0544  0.1467  0.1810
    11RH     C3 4669   3.369   5.931   0.372 -0.3538  0.2785  0.1201
    11RH     C4 4670   3.453   6.162   0.344  0.1201  0.0095 -0.4914
    11RH     S2 4671   3.403   5.875   0.217 -0.5516  0.3899  0.0347
    11RH     O1 4672   3.366   6.194   0.610 -0.2026  0.1508  0.2634
    11RH     C5 4673   3.254   5.959   0.748  0.2182 -0.0186  0.3198
    21BTZ    C6 4674   3.184   5.867   0.831  0.0976 -0.1458  0.2221
    21BTZ    C7 4675   3.157   5.737   0.797  0.2993 -0.2213  0.3526
    21BTZ    C8 4676   3.124   5.921   0.949  0.0093 -0.1159  0.1649
    21BTZ    C9 4677   3.072   5.654   0.878  0.4236 -0.2710  0.4329
    21BTZ   C10 4678   3.013   5.701   0.993  0.3460 -0.2452  0.3826
    21BTZ   C11 4679   3.038   5.837   1.032  0.1357 -0.1664  0.2465
    21BTZ    N2 4680   3.143   6.046   0.992 -0.1852 -0.0433  0.0390
    21BTZ    N3 4681   2.986   5.894   1.141  0.0427 -0.1346  0.1863
    21BTZ    S3 4682   3.048   6.062   1.143 -0.2156 -0.0365  0.0192
    31IDT   C12 4683   2.904   5.619   1.048  0.4974 -0.2714  0.8076
    31IDT   C13 4684   2.807   5.659   1.135  0.7119 -0.3345  1.0795
    31IDT   C14 4685   2.713   5.555   1.165  0.3283 -0.1329  0.6096
    31IDT   C15 4686   2.740   5.435   1.100 -0.1799  0.0847 -0.0222
    31IDT    S4 4687   2.886   5.446   0.996 -0.2123  0.0508 -0.0713
    4IDB    C16 4688   2.642   5.336   1.139  0.2199  0.1406  0.7108
    4IDB    C17 4689   2.543   5.394   1.225 -0.1151  0.3347  0.2070
    51IDQ   C18 4690   2.578   5.547   1.242 -0.0698  0.2386  0.1023
    4IDB    C19 4691   2.442   5.316   1.279 -0.3203  0.4552  0.0001
    51IDQ   C20 4692   2.452   5.620   1.185  0.2565 -0.4858  0.2632
    51IDQ   C21 4693   2.601   5.603   1.386  0.1901  0.4677  0.5722
    51IDQ   C22 4694   2.610   5.516   1.510  0.0308  0.2505 -0.6418
    51IDQ   C23 4695   2.463   5.695   1.054 -0.5293 -0.5588  0.4427
    51IDQ   C24 4696   2.741   5.439   1.541 -0.5447  0.0566  0.7892
    51IDQ   C25 4697   2.758   5.403   1.690  0.4015  0.0474  0.4436
    51IDQ   C26 4698   2.890   5.342   1.734  0.1291 -0.4957  0.3298
    51IDQ   C27 4699   2.893   5.308   1.878 -0.1515 -0.2401 -0.5655
    51IDQ   C28 4700   3.035   5.256   1.913  0.0993  0.0685  0.0083
    51IDQ   C29 4701   3.038   5.196   2.055  0.1280  0.0736  0.7668
    51IDQ   C30 4702   2.345   5.786   1.039  0.7090 -0.1688  0.1658
    51IDQ   C31 4703   2.363   5.898   0.932  0.6197  0.0197 -0.3843
    51IDQ   C32 4704   2.246   6.004   0.920  0.7536 -0.1904  0.2518
    51IDQ   C33 4705   2.197   6.080   1.051 -0.1166 -0.2860 -0.1674
    51IDQ   C34 4706   2.276   6.186   1.129  0.1652  0.4074 -0.4657
    51IDQ   C35 4707   2.313   6.310   1.056 -0.0875  0.6461  0.2065
    4IDB    C36 4708   2.639   5.200   1.107  0.3523  0.0653  1.0123
    4IDB    C37 4709   2.534   5.122   1.163  0.1388  0.1904  0.7944
    11RH    C38 4710   3.361   6.244   0.253  0.2306 -0.1495 -0.7939
    4IDB    C39 4711   2.439   5.179   1.247 -0.1879  0.3799  0.3015
    62IDT   C40 4712   2.347   5.075   1.285 -0.0701  0.2194  0.0477
    72IDQ   C41 4713   2.498   4.969   1.137  0.0343  0.4607 -0.4562
    62IDT   C42 4714   2.369   4.956   1.219 -0.3134  0.4379 -0.4458
    72IDQ   C43 4715   2.620   4.867   1.165  0.6132 -0.1420  0.1578
    72IDQ   C44 4716   2.437   4.938   0.999  0.0592 -0.5387 -0.6449
    62IDT    S5 4717   2.212   5.063   1.402 -0.1764  0.0425 -0.0918
    62IDT   C45 4718   2.191   4.889   1.354 -0.5630  0.2852 -0.8466
    62IDT   C46 4719   2.281   4.850   1.259 -0.5924  0.4754 -0.9520
    82BTZ   C47 4720   2.104   4.800   1.435  0.2181  0.3265  0.0008
    82BTZ   C48 4721   2.055   4.842   1.556  0.1981  0.4181 -0.0391
    82BTZ   C49 4722   1.976   4.756   1.640  0.2135  0.4704  0.0289
    82BTZ   C50 4723   1.946   4.627   1.604  0.2489  0.4312  0.1366
    82BTZ   C51 4724   2.075   4.666   1.392  0.2552  0.2823  0.1131
    82BTZ   C52 4725   1.995   4.578   1.478  0.2709  0.3356  0.1822
    92RH    C53 4726   1.860   4.538   1.681  0.4030 -0.1903  0.1434
    82BTZ    N4 4727   2.116   4.613   1.276  0.2773  0.1937  0.1613
    82BTZ    N5 4728   1.972   4.455   1.431  0.3056  0.2898  0.2859
    82BTZ    S6 4729   2.054   4.446   1.273  0.3201  0.1745  0.2999
    92RH    C54 4730   1.796   4.548   1.798  0.2865 -0.1754  0.0794
    92RH     S7 4731   1.794   4.693   1.910 -0.0847 -0.0498 -0.0904
    92RH    C55 4732   1.716   4.438   1.857  0.4470 -0.2614  0.1389
    92RH     O2 4733   1.698   4.326   1.806  0.7031 -0.3557  0.2527
    92RH     N6 4734   1.660   4.475   1.981  0.2715 -0.2233  0.0494
    92RH    C56 4735   1.686   4.602   2.029 -0.0100 -0.1173 -0.0746
    92RH    C57 4736   1.569   4.385   2.060  0.2577 -0.2936  0.1535
    92RH    C58 4737   1.415   4.417   2.052  0.0883  0.3492 -0.4880
    92RH     S8 4738   1.633   4.671   2.173 -0.2621 -0.0521 -0.1987
    72IDQ   C59 4739   2.523   4.963   0.876  0.0285 -0.3636 -0.2249
    72IDQ   C60 4740   2.445   4.933   0.747 -0.3453  0.4810 -0.8179
    72IDQ   C61 4741   2.524   4.945   0.618 -0.3861  0.3216  0.1470
    72IDQ   C62 4742   2.449   4.871   0.506 -0.2500  0.7518  0.0248
    72IDQ   C63 4743   2.532   4.860   0.379 -0.7511 -0.3461  0.3525
    72IDQ   C64 4744   2.534   4.712   0.331 -0.2771  0.1814 -0.3701
    72IDQ   C65 4745   2.638   4.627   0.409 -0.3517 -0.8710 -0.1573
    72IDQ   C66 4746   2.685   4.864   1.306  0.3524  0.2683 -0.1309
    72IDQ   C67 4747   2.749   4.730   1.344 -0.5798 -0.4647 -0.9402
    72IDQ   C68 4748   2.655   4.611   1.348 -0.2805  0.1054 -0.1305
    72IDQ   C69 4749   2.552   4.621   1.455 -0.2316 -0.2067  0.5170
    72IDQ   C70 4750   2.479   4.482   1.456 -0.1163 -0.0715  0.3500
    72IDQ   C71 4751   2.379   4.484   1.563 -0.8569  0.2147 -0.4837
    72IDQ   C72 4752   2.304   4.353   1.562  0.3654 -0.2026  0.1975
    11RH     C1 4753   2.121   3.926   1.553  0.2452  0.0132  0.0828
    11RH     C2 4754   2.157   3.813   1.465  0.1245 -0.0364  0.0977
    11RH     N1 4755   1.986   3.921   1.592  0.2283  0.1879  0.0469
    11RH     S1 4756   2.009   3.707   1.438 -0.0034  0.1499  0.0635
    11RH     C3 4757   1.908   3.818   1.545  0.1087  0.2843  0.0312
    11RH     C4 4758   1.938   4.033   1.676 -0.1063 -0.5063  0.1637
    11RH     S2 4759   1.745   3.789   1.575  0.0634  0.4935 -0.0109
    11RH     O1 4760   2.199   4.016   1.591  0.3493 -0.0837  0.0992
    11RH     C5 4761   2.279   3.794   1.414  0.1145 -0.1947  0.1312
    21BTZ    C6 4762   2.334   3.699   1.320 -0.1195  0.0220 -0.0167
    21BTZ    C7 4763   2.254   3.600   1.268 -0.0849  0.0011 -0.0305
    21BTZ    C8 4764   2.471   3.704   1.279 -0.1175  0.0669 -0.0048
    21BTZ    C9 4765   2.304   3.502   1.176 -0.0471  0.0234 -0.0334
    21BTZ   C10 4766   2.435   3.503   1.134 -0.0438  0.0664 -0.0224
    21BTZ   C11 4767   2.523   3.605   1.185 -0.0790  0.0895 -0.0077
    21BTZ    N2 4768   2.559   3.795   1.322 -0.1491  0.0907  0.0092
    21BTZ    N3 4769   2.652   3.616   1.152 -0.0798  0.1315  0.0040
    21BTZ    S3 4770   2.714   3.757   1.242 -0.1306  0.1441  0.0195
    31IDT   C12 4771   2.474   3.387   1.055 -0.5643  0.2455 -0.3546
    31IDT   C13 4772   2.537   3.398   0.934 -0.8168  0.2040 -0.4921
    31IDT   C14 4773   2.524   3.280   0.854 -0.6393  0.0191 -0.2540
    31IDT   C15 4774   2.451   3.179   0.913 -0.2512 -0.0813  0.0658
    31IDT    S4 4775   2.392   3.226   1.076 -0.0789  0.0517  0.0905
    4IDB    C16 4776   2.441   3.068   0.824  0.4019 -0.2054 -0.1793
    4IDB    C17 4777   2.508   3.097   0.702  0.1037 -0.3101 -0.3702
    51IDQ   C18 4778   2.563   3.244   0.711 -0.0971  0.3427 -0.2027
    4IDB    C19 4779   2.503   3.009   0.594 -0.2155 -0.3700 -0.3088
    51IDQ   C20 4780   2.714   3.250   0.666 -0.0066 -0.4238 -0.2531
    51IDQ   C21 4781   2.494   3.349   0.619  0.0433 -0.0987 -0.3968
    51IDQ   C22 4782   2.405   3.318   0.498 -0.7755  0.3211 -0.1178
    51IDQ   C23 4783   2.835   3.267   0.762  0.4138  0.1395  0.0702
    51IDQ   C24 4784   2.498   3.299   0.376 -0.1147  0.1121  0.1990
    51IDQ   C25 4785   2.439   3.201   0.269 -0.4631  0.4874  0.1188
    51IDQ   C26 4786   2.308   3.221   0.192 -0.4207 -0.0885 -0.3418
    51IDQ   C27 4787   2.287   3.352   0.120 -0.0997 -0.0652  0.2694
    51IDQ   C28 4788   2.142   3.369   0.072 -0.3657 -0.6009 -0.1035
    51IDQ   C29 4789   2.134   3.495  -0.020 -0.6679  0.0278 -0.1628
    51IDQ   C30 4790   2.964   3.285   0.680  0.0200 -0.2643  0.1527
    51IDQ   C31 4791   2.981   3.415   0.597 -0.2284 -0.0582 -0.5642
    51IDQ   C32 4792   3.123   3.438   0.556 -0.1636 -0.0778  0.2740
    51IDQ   C33 4793   3.152   3.568   0.476  0.7405  0.6491  0.0107
    51IDQ   C34 4794   3.162   3.694   0.562  0.1294 -0.4217 -0.1645
    51IDQ   C35 4795   3.220   3.810   0.487  0.4205 -0.4880  0.0316
    4IDB    C36 4796   2.368   2.949   0.840  0.3823 -0.1598  0.0757
    4IDB    C37 4797   2.364   2.860   0.730  0.0539 -0.2222  0.1348
    11RH    C38 4798   1.890   4.155   1.598 -0.0081 -0.2974 -0.1335
    4IDB    C39 4799   2.430   2.890   0.611 -0.2352 -0.3245 -0.0539
    62IDT   C40 4800   2.414   2.776   0.520  0.2542 -0.1763  0.0572
    72IDQ   C41 4801   2.279   2.733   0.707  0.2751 -0.1628 -0.6699
    62IDT   C42 4802   2.311   2.695   0.564  0.5824 -0.5089  0.2246
    72IDQ   C43 4803   2.127   2.765   0.731 -0.0367 -0.4882 -0.4573
    72IDQ   C44 4804   2.319   2.622   0.812  0.2957 -0.1698 -0.7219
    62IDT    S5 4805   2.471   2.729   0.356 -0.0094  0.1503 -0.1288
    62IDT   C45 4806   2.346   2.597   0.355  0.3559 -0.1970  0.0377
    62IDT   C46 4807   2.273   2.594   0.471  0.6404 -0.5211  0.2138
    82BTZ   C47 4808   2.322   2.513   0.245  0.1231  0.0453  0.0751
    82BTZ   C48 4809   2.429   2.443   0.196  0.1865  0.0849  0.1572
    82BTZ   C49 4810   2.419   2.363   0.077  0.2989  0.0553  0.1675
    82BTZ   C50 4811   2.301   2.351   0.007  0.3478 -0.0136  0.0957
    82BTZ   C51 4812   2.196   2.504   0.176  0.1706 -0.0271 -0.0020
    82BTZ   C52 4813   2.186   2.422   0.055  0.2849 -0.0571  0.0085
    92RH    C53 4814   2.283   2.272  -0.119 -0.1397  0.1462  0.1017
    82BTZ    N4 4815   2.085   2.567   0.214  0.1172 -0.0709 -0.0854
    82BTZ    N5 4816   2.066   2.419  -0.004  0.3234 -0.1251 -0.0664
    82BTZ    S6 4817   1.959   2.523   0.094  0.2128 -0.1541 -0.1554
    92RH    C54 4818   2.365   2.192  -0.187 -0.2012  0.1144  0.0650
    92RH     S7 4819   2.539   2.149  -0.143 -0.1695  0.1153 -0.0581
    92RH    C55 4820   2.327   2.123  -0.312 -0.3079  0.0720  0.1206
    92RH     O2 4821   2.217   2.131  -0.368 -0.3523  0.0612  0.2061
    92RH     N6 4822   2.433   2.044  -0.362 -0.3548  0.0445  0.0641
    92RH    C56 4823   2.552   2.042  -0.292 -0.2987  0.0596 -0.0300
    92RH    C57 4824   2.421   1.970  -0.495  0.6320 -0.1152  0.3259
    92RH    C58 4825   2.363   1.833  -0.479  0.1437  0.2032  0.2860
    92RH     S8 4826   2.693   1.957  -0.330 -0.3364  0.0336 -0.1119
    72IDQ   C59 4827   2.253   2.484   0.800 -0.2398  0.7357 -0.1022
    72IDQ   C60 4828   2.322   2.368   0.874  0.3192  0.3748 -0.2948
    72IDQ   C61 4829   2.241   2.242   0.875  0.0448 -0.2297 -0.1316
    72IDQ   C62 4830   2.215   2.177   0.741  0.1160 -0.6264  0.2726
    72IDQ   C63 4831   2.127   2.055   0.757 -0.3986  0.0022  0.1578
    72IDQ   C64 4832   2.058   2.005   0.629 -0.2963  0.4665 -0.3621
    72IDQ   C65 4833   1.976   1.885   0.657  0.8335  1.0130 -0.0051
    72IDQ   C66 4834   2.039   2.821   0.620  0.4963 -0.0574  0.0953
    72IDQ   C67 4835   1.893   2.798   0.643  0.2876 -0.9520  0.0797
    72IDQ   C68 4836   1.791   2.833   0.537  0.0492 -0.3207  0.1106
    72IDQ   C69 4837   1.791   2.750   0.409  0.3299  0.0171  0.2788
    72IDQ   C70 4838   1.682   2.782   0.301  0.3992 -0.2509 -0.5303
    72IDQ   C71 4839   1.689   2.906   0.222 -0.4814 -0.5256  0.3909
    72IDQ   C72 4840   1.589   2.893   0.113  0.0131  0.1901  0.1246
    11RH     C1 4841   3.733   2.924   6.573 -0.5170  0.1051  0.2701
    11RH     C2 4842   3.777   2.891   6.710 -0.4057 -0.2100  0.1616
    11RH     N1 4843   3.843   2.949   6.488 -0.5843  0.2734  0.2328
    11RH     S1 4844   3.961   2.896   6.719 -0.3968 -0.2643  0.0174
    11RH     C3 4845   3.970   2.941   6.541 -0.5407  0.1317  0.1075
    11RH     C4 4846   3.819   2.988   6.345  0.4541 -0.1746  0.0399
    11RH     S2 4847   4.117   2.967   6.462 -0.6031  0.2801  0.0391
    11RH     O1 4848   3.615   2.929   6.534 -0.5491  0.2134  0.3808
    11RH     C5 4849   3.693   2.863   6.810 -0.3260 -0.4165  0.1713
    21BTZ    C6 4850   3.710   2.835   6.952 -0.1290 -0.1772 -0.2194
    21BTZ    C7 4851   3.836   2.828   7.007 -0.0656 -0.1786 -0.3628
    21BTZ    C8 4852   3.597   2.835   7.039 -0.0234 -0.0121 -0.0796
    21BTZ    C9 4853   3.855   2.819   7.150  0.1037 -0.0191 -0.3759
    21BTZ   C10 4854   3.749   2.819   7.237  0.2092  0.1417 -0.2457
    21BTZ   C11 4855   3.616   2.827   7.184  0.1486  0.1500 -0.0929
    21BTZ    N2 4856   3.470   2.842   6.998 -0.0709  0.0063  0.0665
    21BTZ    N3 4857   3.506   2.827   7.259  0.2394  0.2987  0.0424
    21BTZ    S3 4858   3.368   2.838   7.145  0.1059  0.2363  0.1959
    31IDT   C12 4859   3.777   2.802   7.384  0.3541 -0.0766 -0.0207
    31IDT   C13 4860   3.702   2.857   7.484  0.3077 -0.2511  0.0423
    31IDT   C14 4861   3.760   2.841   7.613  0.1676 -0.6192  0.0619
    31IDT   C15 4862   3.880   2.773   7.613  0.1065 -0.7274  0.0141
    31IDT    S4 4863   3.929   2.724   7.447  0.2226 -0.3684 -0.0601
    4IDB    C16 4864   3.933   2.766   7.747 -0.4372 -0.1289  0.3931
    4IDB    C17 4865   3.842   2.828   7.838 -0.4807 -0.5617  0.6553
    51IDQ   C18 4866   3.726   2.889   7.752  0.4160  0.2893 -0.3199
    4IDB    C19 4867   3.872   2.839   7.973 -0.1856 -0.5120  0.5879
    51IDQ   C20 4868   3.596   2.837   7.831 -0.3173  0.1258  0.3168
    51IDQ   C21 4869   3.715   3.045   7.744 -0.4865 -0.0205 -0.3328
    51IDQ   C22 4870   3.811   3.147   7.806 -0.3859  0.3097  0.2215
    51IDQ   C23 4871   3.474   2.755   7.783  0.0604  0.0636  0.2905
    51IDQ   C24 4872   3.771   3.281   7.758  0.2897 -0.2292 -0.4677
    51IDQ   C25 4873   3.845   3.403   7.826 -0.1262 -0.3373 -0.0515
    51IDQ   C26 4874   3.823   3.426   7.976  0.0126 -0.0027  0.1037
    51IDQ   C27 4875   3.929   3.520   8.023 -0.5001 -0.0740 -0.7492
    51IDQ   C28 4876   3.886   3.583   8.151  0.3956 -0.4798 -0.3230
    51IDQ   C29 4877   3.992   3.674   8.212 -0.0018  0.1543  0.0245
    51IDQ   C30 4878   3.497   2.621   7.709 -0.0518  0.0950  0.1422
    51IDQ   C31 4879   3.377   2.560   7.638 -0.7865  0.0153  0.0732
    51IDQ   C32 4880   3.307   2.647   7.528  0.3736  0.2116  0.0547
    51IDQ   C33 4881   3.208   2.582   7.424 -0.2316 -0.2000 -0.3748
    51IDQ   C34 4882   3.280   2.499   7.322 -0.3870  0.4223 -0.0045
    51IDQ   C35 4883   3.206   2.481   7.200 -0.2529 -0.5808  0.9872
    4IDB    C36 4884   4.055   2.713   7.792 -0.0961  0.3590  0.0597
    4IDB    C37 4885   4.084   2.724   7.931  0.2024  0.4024 -0.0044
    11RH    C38 4886   3.777   3.132   6.302  0.8539 -0.0818  0.3456
    4IDB    C39 4887   3.994   2.786   8.018  0.1556 -0.0241  0.2545
    62IDT   C40 4888   4.040   2.796   8.154 -0.3699 -0.3781 -0.1421
    72IDQ   C41 4889   4.209   2.695   8.017  0.1835 -0.3133  0.9613
    62IDT   C42 4890   4.168   2.745   8.154 -0.3936 -0.4367 -0.3192
    72IDQ   C43 4891   4.330   2.774   7.944  0.6434  0.0837 -0.0720
    72IDQ   C44 4892   4.249   2.549   8.016 -0.0248  0.1644  0.8628
    62IDT    S5 4893   3.992   2.855   8.317  0.0147 -0.0246 -0.1522
    62IDT   C45 4894   4.155   2.804   8.379  0.1287  0.0277 -0.4077
    62IDT   C46 4895   4.233   2.749   8.281 -0.1119 -0.2074 -0.4696
    82BTZ   C47 4896   4.189   2.809   8.520  0.1434 -0.4231 -0.0090
    82BTZ   C48 4897   4.088   2.816   8.613  0.1180 -0.0211 -0.0620
    82BTZ   C49 4898   4.116   2.839   8.753  0.0836  0.5347 -0.1420
    82BTZ   C50 4899   4.243   2.855   8.800  0.0745  0.6874 -0.1691
    82BTZ   C51 4900   4.324   2.825   8.564  0.1349 -0.2835 -0.0345
    82BTZ   C52 4901   4.352   2.849   8.706  0.1000  0.2813 -0.1158
    92RH    C53 4902   4.274   2.850   8.943 -0.3232 -0.1589 -0.0624
    82BTZ    N4 4903   4.430   2.821   8.483  0.1575 -0.6388  0.0116
    82BTZ    N5 4904   4.481   2.863   8.739  0.0943  0.3800 -0.1352
    82BTZ    S6 4905   4.573   2.847   8.587  0.1343 -0.2582 -0.0484
    92RH    C54 4906   4.202   2.845   9.056 -0.1777 -0.1368  0.0317
    92RH     S7 4907   4.020   2.828   9.070 -0.1565 -0.1770  0.2709
    92RH    C55 4908   4.262   2.852   9.191 -0.0061 -0.0740 -0.0471
    92RH     O2 4909   4.383   2.864   9.216  0.0234 -0.0352 -0.2060
    92RH     N6 4910   4.163   2.844   9.292  0.1242 -0.0627  0.0826
    92RH    C56 4911   4.031   2.831   9.254  0.0780 -0.1090  0.2554
    92RH    C57 4912   4.200   2.848   9.435  0.0128 -0.0454 -0.5570
    92RH    C58 4913   4.173   2.980   9.507 -0.4753  0.3158 -0.2114
    92RH     S8 4914   3.896   2.819   9.353  0.2072 -0.1075  0.4337
    72IDQ   C59 4915   4.144   2.453   8.085 -0.4716  0.0715 -0.1837
    72IDQ   C60 4916   4.181   2.304   8.086  0.6155 -0.0943  0.0516
    72IDQ   C61 4917   4.068   2.231   8.156  0.1191 -0.0221  0.2371
    72IDQ   C62 4918   4.092   2.083   8.148  0.3916  0.3227  0.2250
    72IDQ   C63 4919   3.981   2.001   8.218  0.3939 -0.2037  0.1408
    72IDQ   C64 4920   3.974   1.851   8.197  0.0013 -0.2014  0.3909
    72IDQ   C65 4921   3.863   1.795   8.278 -0.4002  0.1631 -0.2933
    72IDQ   C66 4922   4.340   2.923   7.987  0.0279 -0.3397  0.6514
    72IDQ   C67 4923   4.426   3.016   7.896  1.0336 -0.2771 -1.2261
    72IDQ   C68 4924   4.400   3.041   7.747 -0.1953 -0.4161  1.1322
    72IDQ   C69 4925   4.256   3.087   7.713  0.3764  0.5558  0.8119
    72IDQ   C70 4926   4.216   3.054   7.564  0.3171 -0.4866 -0.7089
    72IDQ   C71 4927   4.086   3.098   7.497 -0.2356  0.4362 -0.3142
    72IDQ   C72 4928   4.067   3.254   7.507 -0.1286  0.4632 -0.0321
    11RH     C1 4929   5.392   4.226   6.227 -0.1264  0.1606  0.0631
    11RH     C2 4930   5.365   4.267   6.367  0.0343  0.0520  0.1265
    11RH     N1 4931   5.452   4.098   6.221 -0.1918  0.1374 -0.1086
    11RH     S1 4932   5.420   4.134   6.482  0.0888 -0.0740 -0.0440
    11RH     C3 4933   5.477   4.032   6.339 -0.1034  0.0231 -0.1907
    11RH     C4 4934   5.486   4.040   6.089  0.0926 -0.3074 -0.0660
    11RH     S2 4935   5.547   3.880   6.360 -0.1537 -0.0279 -0.3937
    11RH     O1 4936   5.366   4.293   6.126 -0.1971  0.2608  0.1475
    11RH     C5 4937   5.309   4.383   6.401  0.1225  0.0499  0.2850
    21BTZ    C6 4938   5.255   4.437   6.522  0.1373 -0.3186  0.0639
    21BTZ    C7 4939   5.250   4.364   6.637  0.0492 -0.4055  0.0050
    21BTZ    C8 4940   5.212   4.574   6.525  0.1507 -0.3163  0.1378
    21BTZ    C9 4941   5.203   4.420   6.761 -0.0299 -0.4941  0.0159
    21BTZ   C10 4942   5.161   4.551   6.769 -0.0208 -0.4954  0.0853
    21BTZ   C11 4943   5.164   4.632   6.651  0.0702 -0.4061  0.1487
    21BTZ    N2 4944   5.212   4.655   6.419  0.2331 -0.2358  0.1994
    21BTZ    N3 4945   5.126   4.759   6.646  0.0879 -0.3982  0.2191
    21BTZ    S3 4946   5.150   4.813   6.477  0.2108 -0.2726  0.2755
    31IDT   C12 4947   5.128   4.602   6.907 -0.2165 -0.1670 -0.0109
    31IDT   C13 4948   5.109   4.729   6.953 -0.5834 -0.2078 -0.0440
    31IDT   C14 4949   5.092   4.736   7.095 -0.5656 -0.2143 -0.0416
    31IDT   C15 4950   5.099   4.613   7.158 -0.1856 -0.1791 -0.0068
    31IDT    S4 4951   5.126   4.479   7.042  0.1821 -0.1340  0.0260
    4IDB    C16 4952   5.067   4.625   7.297  0.2482  0.4991  0.1282
    4IDB    C17 4953   5.039   4.761   7.327 -0.0741  0.4045  0.2653
    51IDQ   C18 4954   5.077   4.847   7.209 -0.4111 -0.2112  0.9430
    4IDB    C19 4955   4.995   4.799   7.453 -0.1602  0.1766  0.3054
    51IDQ   C20 4956   4.975   4.960   7.172  0.1040  0.1903 -0.2331
    51IDQ   C21 4957   5.218   4.920   7.225  0.1770  0.1203  0.2854
    51IDQ   C22 4958   5.321   4.864   7.323  0.3857 -0.2743 -0.2809
    51IDQ   C23 4959   4.902   4.982   7.041  0.2975 -0.6868  0.1158
    51IDQ   C24 4960   5.431   4.973   7.328  0.0518  0.0199  0.0386
    51IDQ   C25 4961   5.556   4.932   7.397 -0.2330  0.3075 -0.3454
    51IDQ   C26 4962   5.655   5.054   7.423 -0.0593 -0.4522  0.0454
    51IDQ   C27 4963   5.619   5.133   7.552 -0.5703  0.3996 -0.5374
    51IDQ   C28 4964   5.700   5.259   7.566 -0.6526 -0.2394 -0.0712
    51IDQ   C29 4965   5.675   5.336   7.697 -0.2059  0.2741 -0.5814
    51IDQ   C30 4966   4.830   5.115   7.038  0.7696 -0.1685  0.0733
    51IDQ   C31 4967   4.769   5.139   6.901  0.4395 -0.6317 -0.2516
    51IDQ   C32 4968   4.670   5.260   6.902 -0.4494  0.0348 -0.2416
    51IDQ   C33 4969   4.631   5.314   6.767  0.0991  0.4860  0.1168
    51IDQ   C34 4970   4.739   5.384   6.683  0.5219  0.9229 -0.1531
    51IDQ   C35 4971   4.697   5.441   6.550 -0.0998 -0.4462  0.1950
    4IDB    C36 4972   5.052   4.525   7.395  0.4878  0.3650  0.0299
    4IDB    C37 4973   5.007   4.565   7.523  0.3954  0.1323  0.0728
    11RH    C38 4974   5.614   4.096   6.028 -0.1343 -0.2900  0.0636
    4IDB    C39 4975   4.980   4.700   7.551  0.0795  0.0425  0.2072
    62IDT   C40 4976   4.934   4.709   7.688  0.5780  0.0558  0.1132
    72IDQ   C41 4977   4.979   4.475   7.649 -0.3837 -0.1849  0.6158
    62IDT   C42 4978   4.915   4.582   7.738  0.8470  0.0957  0.3218
    72IDQ   C43 4979   5.112   4.422   7.712  0.3943 -0.2903 -0.6116
    72IDQ   C44 4980   4.907   4.342   7.605 -0.1449  0.0238  0.6592
    62IDT    S5 4981   4.879   4.836   7.803 -0.0687  0.1234 -0.2639
    62IDT   C45 4982   4.830   4.704   7.918  0.0652  0.2059 -0.1122
    62IDT   C46 4983   4.856   4.579   7.868  0.5573  0.1807  0.1947
    82BTZ   C47 4984   4.785   4.728   8.060 -0.2277  0.1641  0.0865
    82BTZ   C48 4985   4.830   4.838   8.128 -0.1304  0.0364  0.2303
    82BTZ   C49 4986   4.783   4.871   8.260  0.0968 -0.2414  0.3823
    82BTZ   C50 4987   4.690   4.794   8.325  0.2261 -0.3910  0.3903
    82BTZ   C51 4988   4.687   4.644   8.124 -0.0991  0.0161  0.0885
    82BTZ   C52 4989   4.639   4.677   8.258  0.1320 -0.2663  0.2430
    92RH    C53 4990   4.638   4.826   8.454 -0.3188  0.0673 -0.2962
    82BTZ    N4 4991   4.635   4.534   8.068 -0.1752  0.1181 -0.0435
    82BTZ    N5 4992   4.549   4.594   8.311  0.2413 -0.3910  0.2351
    82BTZ    S6 4993   4.521   4.467   8.188  0.0497 -0.1478  0.0256
    92RH    C54 4994   4.666   4.923   8.541 -0.1823 -0.1022 -0.1499
    92RH     S7 4995   4.806   5.042   8.532  0.1297 -0.4425  0.1610
    92RH    C55 4996   4.585   4.950   8.662 -0.2667 -0.0367 -0.2208
    92RH     O2 4997   4.483   4.888   8.697 -0.4697  0.1782 -0.4199
    92RH     N6 4998   4.637   5.058   8.736 -0.0858 -0.2521 -0.0315
    92RH    C56 4999   4.750   5.121   8.689  0.1334 -0.4820  0.1824
    92RH    C57 5000   4.566   5.106   8.856 -0.0533 -0.5218  0.1415
    92RH    C58 5001   4.627   5.043   8.979  0.3619 -0.0311  0.0268
    92RH     S8 5002   4.832   5.252   8.758  0.3774 -0.7651  0.4340
    72IDQ   C59 5003   4.800   4.281   7.697 -0.5029  0.0263 -0.2262
    72IDQ   C60 5004   4.672   4.363   7.704  0.7043 -0.1434  0.5333
    72IDQ   C61 5005   4.571   4.304   7.795  1.1772  0.3629 -0.5563
    72IDQ   C62 5006   4.414   4.320   7.786 -0.2501  0.7812 -0.3128
    72IDQ   C63 5007   4.375   4.457   7.721 -0.8460  0.1764  0.2729
    72IDQ   C64 5008   4.228   4.472   7.685 -0.0132  0.2385  0.4860
    72IDQ   C65 5009   4.214   4.615   7.641  0.0233  0.4397 -0.0451
    72IDQ   C66 5010   5.248   4.500   7.719 -0.5867 -0.2005  0.1068
    72IDQ   C67 5011   5.275   4.625   7.810 -0.2472  0.4267  0.1215
    72IDQ   C68 5012   5.243   4.625   7.958 -0.3030  0.1340 -0.0776
    72IDQ   C69 5013   5.274   4.765   8.022 -0.0216 -0.2569  0.5117
    72IDQ   C70 5014   5.228   4.780   8.164 -1.3888  0.6159  0.3851
    72IDQ   C71 5015   5.270   4.911   8.220  0.2529 -0.6218 -0.2673
    72IDQ   C72 5016   5.199   4.950   8.352 -0.2229 -0.2892 -0.0724
    11RH     C1 5017   5.081   4.944   3.105 -0.0764  0.1166 -0.1317
    11RH     C2 5018   5.114   5.006   3.237 -0.0473 -0.0129 -0.0778
    11RH     N1 5019   5.156   5.003   3.001 -0.1143  0.2334 -0.0933
    11RH     S1 5020   5.240   5.137   3.214 -0.0712  0.0274  0.0199
    11RH     C3 5021   5.244   5.104   3.032 -0.1187  0.2131 -0.0152
    11RH     C4 5022   5.122   4.956   2.862  0.3968 -0.1810 -0.5150
    11RH     S2 5023   5.344   5.190   2.927 -0.1605  0.3338  0.0438
    11RH     O1 5024   5.000   4.852   3.087 -0.0697  0.1246 -0.2019
    11RH     C5 5025   5.057   4.968   3.352 -0.0092 -0.1380 -0.0997
    21BTZ    C6 5026   5.055   5.027   3.487 -0.1390 -0.2404 -0.0746
    21BTZ    C7 5027   5.126   5.138   3.525  0.0198 -0.3463 -0.0566
    21BTZ    C8 5028   4.980   4.956   3.586 -0.0812 -0.2621 -0.0458
    21BTZ    C9 5029   5.125   5.185   3.662  0.2418 -0.4778 -0.0098
    21BTZ   C10 5030   5.055   5.120   3.760  0.3047 -0.5034  0.0190
    21BTZ   C11 5031   4.979   5.003   3.725  0.1446 -0.3958  0.0018
    21BTZ    N2 5032   4.907   4.846   3.561 -0.2211 -0.1671 -0.0594
    21BTZ    N3 5033   4.907   4.932   3.811  0.1860 -0.4082  0.0265
    21BTZ    S3 5034   4.834   4.798   3.717 -0.0672 -0.2462 -0.0109
    31IDT   C12 5035   5.057   5.186   3.895 -0.0312 -0.3016  0.5021
    31IDT   C13 5036   5.000   5.146   4.013 -0.0983  0.0179  0.5791
    31IDT   C14 5037   5.022   5.240   4.119  0.0901  0.1670  0.4113
    31IDT   C15 5038   5.095   5.351   4.083  0.3020 -0.0372  0.2057
    31IDT    S4 5039   5.142   5.346   3.910  0.2789 -0.4379  0.2087
    4IDB    C16 5040   5.101   5.441   4.199 -0.6155  0.3976 -0.3458
    4IDB    C17 5041   5.024   5.389   4.308 -0.2804  0.0492 -0.2729
    51IDQ   C18 5042   4.984   5.246   4.270 -0.0801  0.0968  0.3310
    4IDB    C19 5043   5.002   5.465   4.422 -0.0085 -0.2803  0.0063
    51IDQ   C20 5044   5.062   5.138   4.357 -0.1040 -0.1950  0.0101
    51IDQ   C21 5045   4.835   5.211   4.290 -0.4023  0.5509 -0.0270
    51IDQ   C22 5046   4.733   5.307   4.334  0.6429  0.0415 -0.3381
    51IDQ   C23 5047   5.150   5.023   4.303 -0.1697  0.3225  0.1138
    51IDQ   C24 5048   4.594   5.239   4.334 -0.0453  0.1362 -0.4617
    51IDQ   C25 5049   4.480   5.314   4.403  0.0149 -0.4111  0.3736
    51IDQ   C26 5050   4.348   5.244   4.375  0.7417 -0.7073 -0.1987
    51IDQ   C27 5051   4.236   5.347   4.399 -0.2860 -0.1465 -0.2702
    51IDQ   C28 5052   4.105   5.276   4.423  0.5587  0.7101 -0.5716
    51IDQ   C29 5053   4.096   5.174   4.540 -0.0925 -0.4293 -0.2650
    51IDQ   C30 5054   5.242   4.956   4.406 -0.3476  0.3501 -0.1169
    51IDQ   C31 5055   5.329   4.841   4.355 -0.1270  0.6552 -0.0076
    51IDQ   C32 5056   5.435   4.878   4.251  0.6205 -0.2898 -0.5242
    51IDQ   C33 5057   5.506   4.753   4.220 -0.3691 -0.0228  0.2257
    51IDQ   C34 5058   5.641   4.774   4.144  0.2238 -0.3727  0.7849
    51IDQ   C35 5059   5.706   4.638   4.107 -0.0697 -0.7945  0.3310
    4IDB    C36 5060   5.155   5.570   4.203 -0.6804  0.4182 -0.1386
    4IDB    C37 5061   5.131   5.647   4.321 -0.3995  0.0787  0.1457
    11RH    C38 5062   5.002   5.029   2.799 -0.3070 -0.9797 -0.2594
    4IDB    C39 5063   5.056   5.594   4.426 -0.0736 -0.2594  0.2136
    62IDT   C40 5064   5.042   5.697   4.522 -0.1761  0.3601 -0.0937
    72IDQ   C41 5065   5.183   5.788   4.348 -0.2668 -0.2386  0.0234
    62IDT   C42 5066   5.104   5.813   4.481 -0.2635  0.4947  0.1494
    72IDQ   C43 5067   5.146   5.885   4.227  0.4585  0.2496 -0.6187
    72IDQ   C44 5068   5.343   5.780   4.352  0.0063 -0.2927 -0.7178
    62IDT    S5 5069   4.963   5.716   4.682  0.2168 -0.1788  0.1700
    62IDT   C45 5070   5.022   5.888   4.686  0.2437 -0.1950  0.6170
    62IDT   C46 5071   5.093   5.921   4.573 -0.0261  0.1810  0.5515
    82BTZ   C47 5072   4.984   5.984   4.792  0.0330 -0.1522  0.0934
    82BTZ   C48 5073   5.082   6.069   4.837  0.0525 -0.1796  0.1020
    82BTZ   C49 5074   5.052   6.183   4.920  0.0570 -0.0740 -0.0405
    82BTZ   C50 5075   4.923   6.212   4.958  0.0423  0.0588 -0.1917
    82BTZ   C51 5076   4.848   6.011   4.829  0.0169 -0.0149 -0.0623
    82BTZ   C52 5077   4.817   6.127   4.913  0.0216  0.0924 -0.2073
    92RH    C53 5078   4.893   6.340   5.021 -0.2943  0.0366 -0.0812
    82BTZ    N4 5079   4.744   5.936   4.791 -0.0026  0.0243 -0.0863
    82BTZ    N5 5080   4.688   6.145   4.943  0.0057  0.2178 -0.3477
    82BTZ    S6 5081   4.599   6.012   4.864 -0.0161  0.2038 -0.2998
    92RH    C54 5082   4.965   6.444   5.063 -0.1737 -0.0787 -0.0029
    92RH     S7 5083   5.147   6.464   5.050 -0.1327 -0.3466  0.1498
    92RH    C55 5084   4.907   6.563   5.129 -0.0509 -0.0032 -0.0292
    92RH     O2 5085   4.786   6.581   5.152 -0.0448  0.1715 -0.1248
    92RH     N6 5086   5.006   6.657   5.163  0.0620 -0.1569  0.0695
    92RH    C56 5087   5.137   6.628   5.132  0.0447 -0.3459  0.1715
    92RH    C57 5088   4.967   6.787   5.210  0.4556 -0.2178 -0.0132
    92RH    C58 5089   4.968   6.819   5.361  0.6670  0.1544 -0.1312
    92RH     S8 5090   5.274   6.723   5.162  0.1618 -0.5537  0.3005
    72IDQ   C59 5091   5.429   5.861   4.453  1.0213  0.0786 -0.7694
    72IDQ   C60 5092   5.408   6.011   4.468 -0.6362 -0.9795 -0.1866
    72IDQ   C61 5093   5.484   6.057   4.594  0.3390 -0.2618 -0.7879
    72IDQ   C62 5094   5.452   6.202   4.615 -0.3284 -0.5660  0.0934
    72IDQ   C63 5095   5.502   6.260   4.742 -0.3499 -0.0415  0.2486
    72IDQ   C64 5096   5.475   6.410   4.766 -0.3115 -0.5383  0.1921
    72IDQ   C65 5097   5.543   6.475   4.889 -0.2745  0.2786 -0.3856
    72IDQ   C66 5098   5.021   5.974   4.242  0.3920 -0.8012  0.5001
    72IDQ   C67 5099   5.042   6.109   4.174  0.4780  0.2214  0.1076
    72IDQ   C68 5100   4.946   6.214   4.215 -0.5000 -0.0779  0.8508
    72IDQ   C69 5101   4.948   6.247   4.367  0.1588 -0.3706  0.2066
    72IDQ   C70 5102   5.075   6.325   4.395 -0.2426 -0.2728  0.5757
    72IDQ   C71 5103   5.118   6.375   4.529  0.1466  0.0764  0.4223
    72IDQ   C72 5104   5.016   6.440   4.621 -0.4169  0.7484  0.5220
    11RH     C1 5105   3.902   1.744   2.391  0.0613 -0.1311 -0.2782
    11RH     C2 5106   4.036   1.799   2.361  0.0106  0.0085 -0.2460
    11RH     N1 5107   3.800   1.825   2.338 -0.0093 -0.2639 -0.3457
    11RH     S1 5108   4.019   1.955   2.266 -0.1268 -0.0438 -0.3064
    11RH     C3 5109   3.835   1.939   2.269 -0.1104 -0.2476 -0.3713
    11RH     C4 5110   3.659   1.787   2.353  0.5569  0.2865 -0.3345
    11RH     S2 5111   3.733   2.052   2.197 -0.2091 -0.3864 -0.4494
    11RH     O1 5112   3.880   1.639   2.454  0.1538 -0.1344 -0.2508
    11RH     C5 5113   4.151   1.742   2.400  0.0601  0.1494 -0.1823
    21BTZ    C6 5114   4.290   1.775   2.393  0.0851  0.0127 -0.1321
    21BTZ    C7 5115   4.338   1.891   2.339  0.1043  0.0221 -0.0951
    21BTZ    C8 5116   4.384   1.680   2.445  0.0644  0.0235 -0.0752
    21BTZ    C9 5117   4.479   1.920   2.333  0.1041  0.0426 -0.0010
    21BTZ   C10 5118   4.573   1.832   2.382  0.0848  0.0536  0.0559
    21BTZ   C11 5119   4.528   1.709   2.440  0.0641  0.0444  0.0204
    21BTZ    N2 5120   4.350   1.563   2.501  0.0448  0.0159 -0.1034
    21BTZ    N3 5121   4.609   1.616   2.490  0.0442  0.0535  0.0693
    21BTZ    S3 5122   4.503   1.484   2.549  0.0245  0.0355 -0.0067
    31IDT   C12 5123   4.716   1.869   2.367  0.3165  0.0197 -0.1008
    31IDT   C13 5124   4.829   1.811   2.417  0.5196  0.0454 -0.5191
    31IDT   C14 5125   4.948   1.884   2.386  0.3569  0.2288 -0.7153
    31IDT   C15 5126   4.926   1.998   2.311  0.0296  0.3440 -0.4486
    31IDT    S4 5127   4.752   2.022   2.275 -0.0991  0.2279  0.0765
    4IDB    C16 5128   5.059   2.055   2.274  0.1650 -0.1553 -0.1792
    4IDB    C17 5129   5.159   1.987   2.349  0.0812 -0.2342 -0.1385
    51IDQ   C18 5130   5.092   1.876   2.432 -0.2125  0.0750  0.5280
    4IDB    C19 5131   5.293   2.022   2.337  0.0863 -0.1699  0.1067
    51IDQ   C20 5132   5.167   1.738   2.400  0.1602 -0.4315  0.0402
    51IDQ   C21 5133   5.096   1.889   2.592  0.0731 -0.9107  0.1076
    51IDQ   C22 5134   5.158   2.007   2.663  0.2058  0.0315  0.2076
    51IDQ   C23 5135   5.101   1.620   2.336  0.3365 -0.2999  0.4490
    51IDQ   C24 5136   5.148   1.982   2.816  0.6250  0.2054  0.1405
    51IDQ   C25 5137   5.205   2.107   2.879  0.5430 -0.1334 -0.0789
    51IDQ   C26 5138   5.146   2.129   3.017 -0.2078 -0.0006 -0.3141
    51IDQ   C27 5139   5.172   2.023   3.129 -0.2846 -0.2932  0.0141
    51IDQ   C28 5140   5.315   2.013   3.186  0.2366 -0.2505 -0.7093
    51IDQ   C29 5141   5.323   1.888   3.271 -0.1104 -0.2428  0.5130
    51IDQ   C30 5142   5.178   1.500   2.366 -0.1868  0.2258 -0.4154
    51IDQ   C31 5143   5.122   1.377   2.291 -0.5488  0.5955  0.3562
    51IDQ   C32 5144   5.169   1.230   2.327  0.1279 -0.4503  0.0267
    51IDQ   C33 5145   5.050   1.150   2.375 -0.2686  0.0081  0.3569
    51IDQ   C34 5146   5.071   0.998   2.378 -0.4446  0.3884 -0.4419
    51IDQ   C35 5147   4.947   0.932   2.425  0.9005  0.1654 -0.4394
    4IDB    C36 5148   5.092   2.160   2.186  0.2550 -0.0105  0.0267
    4IDB    C37 5149   5.229   2.194   2.176  0.2588  0.0535  0.2760
    11RH    C38 5150   3.601   1.719   2.231  0.0977  0.0354  0.3784
    4IDB    C39 5151   5.326   2.126   2.250  0.1763 -0.0251  0.3126
    62IDT   C40 5152   5.456   2.181   2.210  0.1369 -0.1611 -0.5239
    72IDQ   C41 5153   5.295   2.302   2.088  0.1199 -0.6235  0.3391
    62IDT   C42 5154   5.443   2.285   2.120  0.3761 -0.2397 -0.6531
    72IDQ   C43 5155   5.230   2.433   2.126  0.9388 -0.6760 -0.1056
    72IDQ   C44 5156   5.293   2.277   1.933 -0.1969  0.4595  0.5444
    62IDT    S5 5157   5.628   2.150   2.251  0.0247 -0.0859  0.0130
    62IDT   C45 5158   5.675   2.286   2.140  0.3212 -0.1689  0.0355
    62IDT   C46 5159   5.566   2.345   2.081  0.4805 -0.2443 -0.3371
    82BTZ   C47 5160   5.815   2.305   2.108 -0.0311  0.1054  0.1867
    82BTZ   C48 5161   5.898   2.198   2.125 -0.0827  0.0463  0.0694
    82BTZ   C49 5162   6.041   2.210   2.106 -0.0927 -0.0373 -0.0610
    82BTZ   C50 5163   6.099   2.328   2.070 -0.0511 -0.0617 -0.0741
    82BTZ   C51 5164   5.871   2.432   2.071  0.0138  0.0829  0.1783
    82BTZ   C52 5165   6.016   2.443   2.052  0.0037 -0.0020  0.0457
    92RH    C53 5166   6.243   2.354   2.068 -0.0164  0.0274  0.6596
    82BTZ    N4 5167   5.800   2.543   2.052  0.0662  0.1348  0.2854
    82BTZ    N5 5168   6.061   2.564   2.017  0.0476 -0.0184  0.0461
    82BTZ    S6 5169   5.917   2.670   2.007  0.1051  0.0763  0.2195
    92RH    C54 5170   6.351   2.278   2.090 -0.0186 -0.0712  0.3464
    92RH     S7 5171   6.360   2.094   2.081 -0.1087 -0.0568 -0.0781
    92RH    C55 5172   6.483   2.333   2.127  0.0546 -0.2119  0.2953
    92RH     O2 5173   6.510   2.453   2.141  0.1251 -0.2546  0.5311
    92RH     N6 5174   6.579   2.230   2.145  0.0346 -0.2945 -0.0615
    92RH    C56 5175   6.539   2.100   2.127 -0.0457 -0.2372 -0.3026
    92RH    C57 5176   6.716   2.259   2.190 -0.1230 -0.2652 -0.0106
    92RH    C58 5177   6.718   2.271   2.345 -0.1279  0.0891 -0.6467
    92RH     S8 5178   6.632   1.960   2.141 -0.0851 -0.3128 -0.7400
    72IDQ   C59 5179   5.163   2.285   1.856  0.0567 -0.2709 -0.0431
    72IDQ   C60 5180   5.169   2.267   1.700 -0.6317  0.2815  0.3094
    72IDQ   C61 5181   5.025   2.244   1.660 -0.5678  0.3015  0.2636
    72IDQ   C62 5182   5.005   2.225   1.506 -0.1282 -0.1599  0.8729
    72IDQ   C63 5183   5.085   2.114   1.429  0.0779  0.3909  0.2182
    72IDQ   C64 5184   5.071   1.975   1.490  0.1827 -0.5129  0.5516
    72IDQ   C65 5185   5.177   1.884   1.434  0.2733  0.2438  0.5895
    72IDQ   C66 5186   5.298   2.571   2.105  0.1691  0.9866  0.1098
    72IDQ   C67 5187   5.223   2.671   2.185  0.1745 -0.5844 -0.1920
    72IDQ   C68 5188   5.263   2.817   2.154  0.2589  0.1380  0.1213
    72IDQ   C69 5189   5.239   2.870   2.012 -0.3010 -0.1898 -0.0450
    72IDQ   C70 5190   5.295   3.009   1.980  0.8986 -0.2450 -0.9155
    72IDQ   C71 5191   5.299   3.036   1.833 -0.1767 -0.3043 -0.0197
    72IDQ   C72 5192   5.371   3.168   1.801 -0.1594 -0.0878 -0.5467
    11RH     C1 5193   5.328   6.291   2.371 -0.1566  0.0182 -0.1556
    11RH     C2 5194   5.265   6.178   2.443  0.0851  0.0095  0.0440
    11RH     N1 5195   5.409   6.246   2.265 -0.2575  0.0167 -0.2326
    11RH     S1 5196   5.317   6.020   2.367  0.1638 -0.0004  0.1175
    11RH     C3 5197   5.419   6.111   2.243 -0.1264  0.0077 -0.1190
    11RH     C4 5198   5.471   6.357   2.176 -0.0105  0.0848  0.2529
    11RH     S2 5199   5.509   6.031   2.124 -0.2048  0.0038 -0.1759
    11RH     O1 5200   5.313   6.412   2.398 -0.2613  0.0263 -0.2470
    11RH     C5 5201   5.184   6.194   2.548  0.2198  0.0090  0.1498
    21BTZ    C6 5202   5.122   6.095   2.635 -0.0211  0.0833 -0.0018
    21BTZ    C7 5203   5.155   5.962   2.635 -0.1445  0.0527 -0.0665
    21BTZ    C8 5204   5.010   6.139   2.713 -0.0073  0.1429 -0.0148
    21BTZ    C9 5205   5.079   5.866   2.712 -0.2595  0.0788 -0.1466
    21BTZ   C10 5206   4.971   5.903   2.788 -0.2512  0.1356 -0.1619
    21BTZ   C11 5207   4.933   6.041   2.791 -0.1241  0.1695 -0.0963
    21BTZ    N2 5208   4.968   6.265   2.721  0.1075  0.1774  0.0432
    21BTZ    N3 5209   4.830   6.088   2.861 -0.1034  0.2253 -0.1036
    21BTZ    S3 5210   4.826   6.265   2.830  0.0702  0.2467 -0.0047
    31IDT   C12 5211   4.894   5.803   2.855 -0.0649 -0.1619 -0.3254
    31IDT   C13 5212   4.821   5.701   2.797 -0.4339  0.0660 -0.2707
    31IDT   C14 5213   4.735   5.636   2.889 -0.3386  0.1369 -0.1298
    31IDT   C15 5214   4.740   5.686   3.018  0.1025 -0.0360 -0.0763
    31IDT    S4 5215   4.856   5.822   3.032  0.4345 -0.3044 -0.2014
    4IDB    C16 5216   4.644   5.608   3.099  0.0563 -0.2788  0.1116
    4IDB    C17 5217   4.591   5.501   3.021 -0.2490 -0.1174  0.0896
    51IDQ   C18 5218   4.622   5.532   2.875  0.1388  0.2734  0.2814
    4IDB    C19 5219   4.510   5.404   3.079 -0.5069  0.0868  0.0745
    51IDQ   C20 5220   4.655   5.407   2.785  0.2210  1.1262 -0.3523
    51IDQ   C21 5221   4.493   5.601   2.804  0.2153  0.9309 -0.0351
    51IDQ   C22 5222   4.346   5.612   2.866 -0.0149 -0.0125  0.2639
    51IDQ   C23 5223   4.790   5.380   2.727 -0.3833  0.6720  0.4705
    51IDQ   C24 5224   4.251   5.675   2.764 -0.4133 -0.9093  0.2563
    51IDQ   C25 5225   4.112   5.685   2.823  0.3236  0.3069 -0.5753
    51IDQ   C26 5226   4.002   5.768   2.754 -0.4330 -0.0861 -0.1779
    51IDQ   C27 5227   3.856   5.731   2.781  0.4187 -0.1255 -0.3930
    51IDQ   C28 5228   3.739   5.813   2.723 -0.4188 -0.1928  0.3172
    51IDQ   C29 5229   3.743   5.961   2.767  0.4823  0.4578  0.5240
    51IDQ   C30 5230   4.784   5.281   2.613  0.3764 -0.4989 -0.3832
    51IDQ   C31 5231   4.917   5.272   2.540  0.3484 -0.2490 -0.6869
    51IDQ   C32 5232   4.973   5.376   2.445  0.6580  0.1151  0.4148
    51IDQ   C33 5233   5.111   5.349   2.389  0.7476 -0.5664  0.1643
    51IDQ   C34 5234   5.228   5.321   2.482 -0.4852  0.4560  0.4967
    51IDQ   C35 5235   5.289   5.442   2.540  0.0400 -0.0784 -0.2770
    4IDB    C36 5236   4.615   5.620   3.236  0.1054 -0.2365  0.1186
    4IDB    C37 5237   4.532   5.519   3.293 -0.1609 -0.0269  0.1029
    11RH    C38 5238   5.606   6.405   2.219  0.5676 -0.4604 -1.1024
    4IDB    C39 5239   4.481   5.415   3.216 -0.4577  0.1290  0.0815
    62IDT   C40 5240   4.396   5.329   3.299  0.2399 -0.1130  0.1729
    72IDQ   C41 5241   4.486   5.501   3.437  0.3080 -0.3010  0.2376
    62IDT   C42 5242   4.398   5.375   3.429 -0.0870 -0.1841  0.2044
    72IDQ   C43 5243   4.405   5.621   3.501  0.0532  0.0912 -0.4194
    72IDQ   C44 5244   4.595   5.459   3.539 -0.4396  0.0385 -0.0246
    62IDT    S5 5245   4.271   5.203   3.274  0.1067  0.1050 -0.2785
    62IDT   C45 5246   4.226   5.219   3.450 -0.4093  0.0877 -0.4070
    62IDT   C46 5247   4.302   5.313   3.515 -0.4545 -0.0707 -0.1234
    82BTZ   C47 5248   4.107   5.162   3.507  0.1605 -0.3849 -0.0629
    82BTZ   C48 5249   4.001   5.143   3.423  0.1698 -0.4500 -0.0595
    82BTZ   C49 5250   3.888   5.062   3.461  0.0880 -0.2830  0.0586
    82BTZ   C50 5251   3.881   5.000   3.583 -0.0024 -0.0510  0.1731
    82BTZ   C51 5252   4.105   5.099   3.636  0.0674 -0.1438  0.0546
    82BTZ   C52 5253   3.990   5.017   3.674 -0.0156  0.0259  0.1746
    92RH    C53 5254   3.768   4.919   3.622 -0.2853 -0.0813  0.1211
    82BTZ    N4 5255   4.202   5.110   3.727  0.0496 -0.0590  0.0637
    82BTZ    N5 5256   3.995   4.961   3.796 -0.1000  0.2470  0.2802
    82BTZ    S6 5257   4.150   5.013   3.868 -0.0765  0.2476  0.2294
    92RH    C54 5258   3.661   4.872   3.557 -0.2484  0.0325 -0.0236
    92RH     S7 5259   3.623   4.892   3.379  0.0059  0.0872 -0.0723
    92RH    C55 5260   3.553   4.794   3.623 -0.4141  0.1349 -0.1712
    92RH     O2 5261   3.549   4.763   3.743 -0.6030  0.1280 -0.1785
    92RH     N6 5262   3.453   4.757   3.530 -0.3310  0.2446 -0.3064
    92RH    C56 5263   3.467   4.796   3.399 -0.1190  0.2425 -0.2853
    92RH    C57 5264   3.328   4.694   3.576 -0.6391  0.1120 -0.1300
    92RH    C58 5265   3.327   4.536   3.595 -0.1735 -0.0114 -0.0113
    92RH     S8 5266   3.362   4.765   3.271  0.0182  0.3598 -0.4257
    72IDQ   C59 5267   4.711   5.550   3.574 -0.3269  0.6998  0.2474
    72IDQ   C60 5268   4.780   5.528   3.702 -0.8539 -0.2471 -0.2336
    72IDQ   C61 5269   4.892   5.631   3.737  0.3540 -0.1713  0.0633
    72IDQ   C62 5270   4.953   5.631   3.878 -0.1644 -0.0265 -0.6153
    72IDQ   C63 5271   5.068   5.732   3.897 -0.4037 -0.1843 -0.6666
    72IDQ   C64 5272   5.198   5.701   3.823 -0.9265 -0.1160  0.1115
    72IDQ   C65 5273   5.304   5.812   3.837 -0.0951 -0.2029 -0.3104
    72IDQ   C66 5274   4.322   5.734   3.430  0.5086 -0.2298 -0.1877
    72IDQ   C67 5275   4.234   5.699   3.309  0.1472 -0.0216  0.2170
    72IDQ   C68 5276   4.137   5.577   3.319  0.2865  0.5920  0.2418
    72IDQ   C69 5277   4.077   5.552   3.183 -0.2475  0.3339  0.6657
    72IDQ   C70 5278   3.986   5.432   3.162  0.4221  0.1704  0.4237
    72IDQ   C71 5279   3.856   5.456   3.229  0.4390  0.2748  0.4444
    72IDQ   C72 5280   3.768   5.334   3.210  0.9596  0.1605  0.3040
    11RH     C1 5281   1.726   6.402   2.413  0.4876 -0.1527 -0.2809
    11RH     C2 5282   1.610   6.388   2.322  0.2631 -0.2114  0.0126
    11RH     N1 5283   1.798   6.521   2.387  0.1733  0.0460 -0.2473
    11RH     S1 5284   1.602   6.533   2.209 -0.3467 -0.0012  0.3137
    11RH     C3 5285   1.753   6.604   2.287 -0.2756  0.1538  0.0373
    11RH     C4 5286   1.908   6.566   2.478  0.1625  0.4024 -0.5735
    11RH     S2 5287   1.820   6.751   2.237 -0.7145  0.3916  0.1379
    11RH     O1 5288   1.759   6.321   2.501  0.8985 -0.2615 -0.5283
    11RH     C5 5289   1.525   6.285   2.325  0.4843 -0.3918  0.0434
    21BTZ    C6 5290   1.400   6.254   2.252  0.2851 -0.2263 -0.1218
    21BTZ    C7 5291   1.345   6.341   2.162  0.3004 -0.1028 -0.0138
    21BTZ    C8 5292   1.337   6.127   2.274  0.2202 -0.2118 -0.2258
    21BTZ    C9 5293   1.225   6.307   2.088  0.2529  0.0402 -0.0025
    21BTZ   C10 5294   1.162   6.187   2.105  0.1903  0.0595 -0.0993
    21BTZ   C11 5295   1.216   6.093   2.199  0.1720 -0.0665 -0.2144
    21BTZ    N2 5296   1.382   6.035   2.359  0.1996 -0.3240 -0.3358
    21BTZ    N3 5297   1.163   5.973   2.224  0.1126 -0.0618 -0.3152
    21BTZ    S3 5298   1.268   5.897   2.347  0.1158 -0.2469 -0.4314
    31IDT   C12 5299   1.041   6.159   2.026  0.0763 -0.5432 -0.0552
    31IDT   C13 5300   1.049   6.145   1.890  0.3199 -0.3883 -0.0585
    31IDT   C14 5301   0.924   6.108   1.831  0.3960 -0.2005 -0.3395
    31IDT   C15 5302   0.821   6.094   1.921  0.2112 -0.2112 -0.5518
    31IDT    S4 5303   0.873   6.127   2.089 -0.0759 -0.4620 -0.4111
    4IDB    C16 5304   0.699   6.049   1.854 -0.2299 -0.0489  0.3299
    4IDB    C17 5305   0.720   6.062   1.713 -0.0058  0.1285  0.3793
    51IDQ   C18 5306   0.869   6.093   1.686 -0.5409  0.1898 -0.6995
    4IDB    C19 5307   0.618   6.037   1.623  0.1115  0.3301  0.1876
    51IDQ   C20 5308   0.914   5.959   1.603 -0.4429 -0.7676 -0.2444
    51IDQ   C21 5309   0.909   6.221   1.605  0.2887  0.4539  0.2470
    51IDQ   C22 5310   0.816   6.335   1.575  0.2119  0.1288  0.2036
    51IDQ   C23 5311   1.008   5.861   1.664  0.5656  0.5967  0.0068
    51IDQ   C24 5312   0.794   6.436   1.688  0.1941  0.6663  0.4632
    51IDQ   C25 5313   0.656   6.515   1.692  0.3250  0.4959  0.3936
    51IDQ   C26 5314   0.627   6.610   1.802 -0.1117 -0.3073 -0.0584
    51IDQ   C27 5315   0.649   6.554   1.941 -0.1767  0.2984  0.2296
    51IDQ   C28 5316   0.535   6.450   1.975  0.2932  0.0704  0.6223
    51IDQ   C29 5317   0.560   6.378   2.108 -0.1542  0.3434 -0.6389
    51IDQ   C30 5318   1.070   5.775   1.559 -0.5179 -0.5836 -0.0344
    51IDQ   C31 5319   1.192   5.689   1.610 -0.0635  0.3275 -0.9395
    51IDQ   C32 5320   1.275   5.618   1.507  0.5097  0.4133  0.4253
    51IDQ   C33 5321   1.317   5.696   1.380 -0.5060  0.1669  0.0030
    51IDQ   C34 5322   1.436   5.798   1.385  0.4433 -0.0875 -0.2461
    51IDQ   C35 5323   1.578   5.749   1.424 -0.3093 -0.0731  0.0558
    4IDB    C36 5324   0.575   6.009   1.905 -0.3385 -0.0253  0.0868
    4IDB    C37 5325   0.471   5.984   1.811 -0.2159  0.1819 -0.1068
    11RH    C38 5326   2.040   6.502   2.456  0.2719 -0.6439 -0.1027
    4IDB    C39 5327   0.493   5.998   1.674  0.0030  0.3539 -0.0555
    62IDT   C40 5328   0.377   5.957   1.603  0.0773 -0.7505  0.0855
    72IDQ   C41 5329   0.331   5.928   1.843  0.0147 -0.0061  0.3833
    62IDT   C42 5330   0.277   5.927   1.694  0.2010 -1.0399  0.1283
    72IDQ   C43 5331   0.237   6.016   1.928 -0.3603  0.2034 -0.6083
    72IDQ   C44 5332   0.322   5.780   1.888 -0.5016  0.2164  0.0293
    62IDT    S5 5333   0.321   5.936   1.434 -0.3064  0.2669  0.0738
    62IDT   C45 5334   0.158   5.886   1.498 -0.2779  0.2465  0.1301
    62IDT   C46 5335   0.154   5.887   1.635  0.0004 -0.4766  0.1535
    82BTZ   C47 5336   0.059   5.835   1.398  0.1379  0.2944  0.1850
    82BTZ   C48 5337   0.070   5.705   1.358  0.2747  0.2644  0.3183
    82BTZ   C49 5338  -0.025   5.645   1.268  0.3880  0.0975  0.3084
    82BTZ   C50 5339  -0.130   5.716   1.217  0.3642 -0.0391  0.1652
    82BTZ   C51 5340  -0.049   5.914   1.348  0.1075  0.1556  0.0322
    82BTZ   C52 5341  -0.146   5.853   1.255  0.2228 -0.0141  0.0221
    92RH    C53 5342  -0.227   5.657   1.124  0.1568 -0.0796 -0.0870
    82BTZ    N4 5343  -0.070   6.042   1.379 -0.0213  0.1689 -0.1061
    82BTZ    N5 5344  -0.244   5.933   1.213  0.1864 -0.1370 -0.1243
    82BTZ    S6 5345  -0.217   6.092   1.290 -0.0006 -0.0390 -0.2583
    92RH    C54 5346  -0.238   5.537   1.065 -0.0007 -0.0707 -0.0778
    92RH     S7 5347  -0.122   5.395   1.084 -0.2040 -0.2326 -0.0410
    92RH    C55 5348  -0.348   5.500   0.974 -0.0352  0.0768 -0.0967
    92RH     O2 5349  -0.442   5.573   0.941  0.0755  0.2071 -0.1227
    92RH     N6 5350  -0.334   5.367   0.927 -0.2126  0.0520 -0.0813
    92RH    C56 5351  -0.226   5.294   0.970 -0.3247 -0.0973 -0.0524
    92RH    C57 5352  -0.435   5.317   0.824 -0.2859 -0.1590 -0.3037
    92RH    C58 5353  -0.542   5.223   0.874  0.2208  0.3634 -0.0429
    92RH     S8 5354  -0.186   5.135   0.929 -0.5404 -0.1577 -0.0294
    72IDQ   C59 5355   0.366   5.749   2.036  0.3033  0.4903  0.4372
    72IDQ   C60 5356   0.432   5.611   2.050 -0.1271 -0.3202 -0.8116
    72IDQ   C61 5357   0.572   5.593   1.992  0.3850  0.6057  0.9218
    72IDQ   C62 5358   0.688   5.692   2.025  0.1180 -0.0943 -0.2762
    72IDQ   C63 5359   0.822   5.624   2.024 -0.2202  0.2020 -0.5245
    72IDQ   C64 5360   0.937   5.714   2.028  0.0080 -0.4402 -0.3906
    72IDQ   C65 5361   1.057   5.626   2.025 -0.2202  0.2367  0.5403
    72IDQ   C66 5362   0.257   6.165   1.956  0.2396 -0.5951  0.2238
    72IDQ   C67 5363   0.138   6.234   2.025 -0.0673  0.1256  0.0913
    72IDQ   C68 5364   0.181   6.382   2.045  0.5059 -0.2028  0.3748
    72IDQ   C69 5365   0.083   6.488   2.095 -0.0340  0.2710  0.1608
    72IDQ   C70 5366   0.020   6.456   2.230 -0.1421 -0.8301 -0.3152
    72IDQ   C71 5367  -0.002   6.574   2.328 -0.5923  0.8629  0.3444
    72IDQ   C72 5368  -0.057   6.536   2.468  0.3264  0.0885 -0.3237
    11RH     C1 5369   3.266   3.320   5.416  0.2813  0.1314 -0.0950
    11RH     C2 5370   3.223   3.354   5.553  0.2909  0.0632 -0.0750
    11RH     N1 5371   3.407   3.308   5.407  0.2680 -0.0490 -0.0685
    11RH     S1 5372   3.370   3.369   5.663  0.2820 -0.2336 -0.0224
    11RH     C3 5373   3.481   3.328   5.521  0.2658 -0.2534 -0.0294
    11RH     C4 5374   3.474   3.282   5.278 -0.1738  0.6051 -0.3415
    11RH     S2 5375   3.649   3.320   5.538  0.2511 -0.4932  0.0082
    11RH     O1 5376   3.191   3.303   5.318  0.2842  0.3215 -0.1310
    11RH     C5 5377   3.095   3.371   5.588  0.3042  0.2025 -0.0935
    21BTZ    C6 5378   3.024   3.406   5.714 -0.1770  0.4246 -0.0046
    21BTZ    C7 5379   3.088   3.437   5.831 -0.3064  0.1823  0.1318
    21BTZ    C8 5380   2.881   3.410   5.711 -0.1790  0.2836 -0.1129
    21BTZ    C9 5381   3.016   3.473   5.950 -0.4432 -0.2081  0.1684
    21BTZ   C10 5382   2.879   3.478   5.952 -0.4505 -0.3557  0.0686
    21BTZ   C11 5383   2.807   3.446   5.832 -0.3181 -0.1132 -0.0757
    21BTZ    N2 5384   2.807   3.382   5.603 -0.0603  0.4918 -0.2494
    21BTZ    N3 5385   2.674   3.447   5.822 -0.3112 -0.2240 -0.1824
    21BTZ    S3 5386   2.636   3.401   5.653 -0.1226  0.1830 -0.3380
    31IDT   C12 5387   2.817   3.534   6.077 -0.2976  0.7363 -0.0317
    31IDT   C13 5388   2.685   3.561   6.101 -0.1217  1.5221  0.1075
    31IDT   C14 5389   2.658   3.590   6.238  0.1600  1.4657  0.1761
    31IDT   C15 5390   2.769   3.585   6.320  0.2008  0.6390  0.0899
    31IDT    S4 5391   2.918   3.543   6.228 -0.1175 -0.1397 -0.0866
    4IDB    C16 5392   2.731   3.608   6.455 -0.7146 -0.0264 -0.2440
    4IDB    C17 5393   2.589   3.619   6.464 -0.6724  0.2682  0.0858
    51IDQ   C18 5394   2.533   3.615   6.323  0.5308 -0.5468  0.3462
    4IDB    C19 5395   2.526   3.634   6.587 -0.3737  0.1549  0.2541
    51IDQ   C20 5396   2.414   3.511   6.327  0.1459 -0.0137  0.4258
    51IDQ   C21 5397   2.471   3.751   6.273 -0.4692  0.0025 -0.2917
    51IDQ   C22 5398   2.483   3.879   6.363 -0.6063  0.1236  0.1997
    51IDQ   C23 5399   2.425   3.380   6.233  0.0880 -0.1521 -0.4368
    51IDQ   C24 5400   2.443   3.996   6.279  0.1779 -0.0611  1.0908
    51IDQ   C25 5401   2.439   4.129   6.359 -0.1452  0.3298  0.1074
    51IDQ   C26 5402   2.394   4.238   6.274  0.1803  0.0663  0.2418
    51IDQ   C27 5403   2.387   4.373   6.349  0.1738 -0.0031  0.8020
    51IDQ   C28 5404   2.373   4.483   6.248 -0.0301  0.4848  0.7760
    51IDQ   C29 5405   2.241   4.525   6.172 -0.5893 -0.2925 -0.6909
    51IDQ   C30 5406   2.309   3.281   6.248 -0.3791 -0.1335 -0.8591
    51IDQ   C31 5407   2.306   3.188   6.369  0.3465 -0.3377  0.3498
    51IDQ   C32 5408   2.164   3.134   6.393 -0.7520  0.4317  0.1733
    51IDQ   C33 5409   2.168   3.026   6.500 -0.6518 -0.3651 -0.1909
    51IDQ   C34 5410   2.035   2.974   6.545 -0.4557  0.2017  0.1499
    51IDQ   C35 5411   2.044   2.865   6.660  0.5904 -0.5130  0.2850
    4IDB    C36 5412   2.811   3.611   6.569 -0.4565 -0.4386 -0.4086
    4IDB    C37 5413   2.745   3.626   6.694 -0.1529 -0.5487 -0.2331
    11RH    C38 5414   3.463   3.136   5.239 -0.5603  0.3284  0.2415
    4IDB    C39 5415   2.606   3.638   6.702 -0.1155 -0.2572  0.0893
    62IDT   C40 5416   2.565   3.651   6.835 -0.0515 -0.1991 -0.1418
    72IDQ   C41 5417   2.805   3.640   6.835 -0.7266  0.1528 -0.0393
    62IDT   C42 5418   2.675   3.659   6.918  0.0044 -0.3735 -0.1989
    72IDQ   C43 5419   2.909   3.744   6.862 -0.1244 -0.8058  0.2523
    72IDQ   C44 5420   2.893   3.512   6.868  0.4157 -0.5393  0.1139
    62IDT    S5 5421   2.411   3.669   6.925  0.0242  0.0599 -0.0638
    62IDT   C45 5422   2.509   3.687   7.078  0.1326 -0.0884 -0.1148
    62IDT   C46 5423   2.643   3.679   7.055  0.1084 -0.3113 -0.1837
    82BTZ   C47 5424   2.438   3.703   7.211 -0.0419 -0.0386 -0.1088
    82BTZ   C48 5425   2.301   3.694   7.214 -0.0359 -0.1043 -0.0096
    82BTZ   C49 5426   2.226   3.724   7.333  0.0340 -0.1036  0.0345
    82BTZ   C50 5427   2.287   3.762   7.449  0.0979 -0.0372 -0.0207
    82BTZ   C51 5428   2.507   3.742   7.330  0.0235  0.0324 -0.1698
    82BTZ   C52 5429   2.430   3.772   7.452  0.0945  0.0332 -0.1250
    92RH    C53 5430   2.209   3.812   7.563 -0.0244 -0.2587  0.1393
    82BTZ    N4 5431   2.640   3.754   7.340  0.0247  0.1002 -0.2673
    82BTZ    N5 5432   2.502   3.808   7.559  0.1529  0.1014 -0.1865
    82BTZ    S6 5433   2.673   3.805   7.508  0.1188  0.1691 -0.3068
    92RH    C54 5434   2.077   3.833   7.579 -0.0209 -0.0695 -0.0786
    92RH     S7 5435   1.947   3.813   7.450  0.1419 -0.0520 -0.2475
    92RH    C55 5436   2.016   3.877   7.706 -0.1532  0.1626 -0.2207
    92RH     O2 5437   2.077   3.899   7.812 -0.2806  0.2088 -0.1566
    92RH     N6 5438   1.876   3.891   7.694 -0.1175  0.3303 -0.4437
    92RH    C56 5439   1.818   3.864   7.572  0.0273  0.2609 -0.4977
    92RH    C57 5440   1.792   3.933   7.811 -0.1039  0.1273  0.2610
    92RH    C58 5441   1.775   4.079   7.827  0.0154 -0.0913  0.4670
    92RH     S8 5442   1.655   3.873   7.531  0.0985  0.4252 -0.7492
    72IDQ   C59 5443   2.828   3.376   6.862 -0.5782  0.6071  0.5255
    72IDQ   C60 5444   2.900   3.251   6.921  0.0341 -0.0959  0.0766
    72IDQ   C61 5445   2.812   3.131   6.889 -0.1370 -0.1653  0.4008
    72IDQ   C62 5446   2.849   2.992   6.943 -0.4205 -0.2501 -0.5384
    72IDQ   C63 5447   2.850   2.957   7.100 -0.2164  0.7293 -0.0313
    72IDQ   C64 5448   2.903   2.811   7.120 -0.5036  0.3133  0.2559
    72IDQ   C65 5449   2.878   2.760   7.255  0.0532  0.3195  0.3107
    72IDQ   C66 5450   2.917   3.884   6.793  0.1665  0.2367  1.0258
    72IDQ   C67 5451   2.982   3.992   6.884  0.1468  0.1938 -0.2905
    72IDQ   C68 5452   2.925   4.020   7.027 -0.2751 -0.2862  0.1620
    72IDQ   C69 5453   2.776   4.039   7.040 -0.2298 -0.0179  0.0306
    72IDQ   C70 5454   2.733   4.080   7.183 -0.2977  0.0701 -0.1353
    72IDQ   C71 5455   2.585   4.117   7.217  1.0293  0.3899 -0.2409
    72IDQ   C72 5456   2.563   4.117   7.372 -0.3738  0.3393  0.0475
    11RH     C1 5457   3.124   0.197   5.703 -0.3019 -0.3029 -0.1587
    11RH     C2 5458   3.060   0.287   5.803 -0.0676 -0.1413 -0.1520
    11RH     N1 5459   3.029   0.112   5.642 -0.4747 -0.2783  0.0724
    11RH     S1 5460   2.880   0.253   5.810 -0.0895  0.0325  0.1576
    11RH     C3 5461   2.897   0.122   5.681 -0.4072 -0.1168  0.2632
    11RH     C4 5462   3.076   0.021   5.531 -0.0027 -0.0352 -0.4292
    11RH     S2 5463   2.766   0.033   5.624 -0.5773 -0.0538  0.5543
    11RH     O1 5464   3.245   0.196   5.675 -0.3461 -0.4438 -0.3412
    11RH     C5 5465   3.127   0.377   5.875  0.1264 -0.1294 -0.3467
    21BTZ    C6 5466   3.092   0.487   5.970 -0.1203  0.1821 -0.0039
    21BTZ    C7 5467   2.968   0.525   6.015 -0.0665  0.1807  0.1479
    21BTZ    C8 5468   3.206   0.560   6.015 -0.0515  0.0844 -0.0190
    21BTZ    C9 5469   2.950   0.636   6.105  0.0566  0.0838  0.2913
    21BTZ   C10 5470   3.057   0.709   6.151  0.1258 -0.0115  0.2830
    21BTZ   C11 5471   3.189   0.673   6.107  0.0736 -0.0141  0.1268
    21BTZ    N2 5472   3.332   0.533   5.979 -0.0938  0.0756 -0.1601
    21BTZ    N3 5473   3.300   0.737   6.145  0.1319 -0.1020  0.1030
    21BTZ    S3 5474   3.435   0.653   6.062  0.0270 -0.0617 -0.1113
    31IDT   C12 5475   3.022   0.817   6.243 -0.2957 -0.4219 -0.1139
    31IDT   C13 5476   3.107   0.899   6.312  0.0792 -0.8526 -0.0514
    31IDT   C14 5477   3.039   0.995   6.393  0.5093 -0.7252  0.1689
    31IDT   C15 5478   2.901   0.986   6.387  0.4654 -0.1978  0.2758
    31IDT    S4 5479   2.847   0.854   6.276 -0.1298  0.1818  0.1040
    4IDB    C16 5480   2.845   1.098   6.463 -0.2993  0.2707 -0.0166
    4IDB    C17 5481   2.949   1.163   6.535 -0.1647 -0.3447  0.3582
    51IDQ   C18 5482   3.088   1.100   6.499  0.0764  0.4723  0.1774
    4IDB    C19 5483   2.921   1.268   6.622  0.1157 -0.3403  0.4445
    51IDQ   C20 5484   3.172   1.224   6.448 -0.2536 -0.0838  0.8219
    51IDQ   C21 5485   3.171   1.023   6.609 -0.3382  0.1862 -0.2841
    51IDQ   C22 5486   3.132   1.010   6.762  0.4866  0.5168  0.2076
    51IDQ   C23 5487   3.175   1.274   6.296  0.3844  0.1575 -1.5639
    51IDQ   C24 5488   3.264   1.004   6.834 -0.4013  0.3354 -0.1226
    51IDQ   C25 5489   3.265   1.014   6.992 -0.1179  0.3733  0.5552
    51IDQ   C26 5490   3.407   1.002   7.048 -0.4088  0.3264  1.1379
    51IDQ   C27 5491   3.422   1.024   7.198 -0.2741 -0.2146  0.1044
    51IDQ   C28 5492   3.379   1.160   7.250 -0.2415 -0.1210  0.1544
    51IDQ   C29 5493   3.414   1.158   7.397  0.8332 -0.2431 -0.4056
    51IDQ   C30 5494   3.243   1.406   6.275 -0.1584 -0.8371  0.6060
    51IDQ   C31 5495   3.210   1.466   6.137  0.1671  0.4279 -0.9074
    51IDQ   C32 5496   3.308   1.579   6.098 -0.0735 -0.0634  0.7119
    51IDQ   C33 5497   3.303   1.644   5.955 -0.3351  0.1265 -0.5171
    51IDQ   C34 5498   3.387   1.771   5.958  0.0084  0.6093  0.6036
    51IDQ   C35 5499   3.397   1.840   5.817 -0.3442 -0.2798  0.2715
    4IDB    C36 5500   2.711   1.138   6.477 -0.1531  0.8978 -0.3086
    4IDB    C37 5501   2.684   1.245   6.567  0.1332  0.8925 -0.2152
    11RH    C38 5502   3.109  -0.120   5.564  0.5682 -0.0864 -0.1439
    4IDB    C39 5503   2.787   1.308   6.637  0.2617  0.2868  0.1523
    62IDT   C40 5504   2.732   1.399   6.736 -0.0221 -0.1050  0.5191
    72IDQ   C41 5505   2.551   1.287   6.634 -0.5714 -0.1292  0.2422
    62IDT   C42 5506   2.594   1.403   6.730 -0.0266 -0.1091  0.6167
    72IDQ   C43 5507   2.474   1.175   6.713 -0.5144  0.2695  0.1239
    72IDQ   C44 5508   2.449   1.362   6.535  0.1608 -0.0969  0.2357
    62IDT    S5 5509   2.797   1.506   6.865  0.0939  0.2998  0.1318
    62IDT   C45 5510   2.626   1.553   6.906  0.1320  0.4493  0.1217
    62IDT   C46 5511   2.534   1.490   6.826  0.0605  0.2042  0.3922
    82BTZ   C47 5512   2.598   1.656   7.008 -0.0154  0.1234 -0.2017
    82BTZ   C48 5513   2.706   1.733   7.042  0.0076  0.0381 -0.0837
    82BTZ   C49 5514   2.702   1.824   7.153  0.0661 -0.2010  0.1183
    82BTZ   C50 5515   2.589   1.840   7.230  0.1015 -0.3543  0.2020
    82BTZ   C51 5516   2.478   1.668   7.085  0.0199 -0.0303 -0.1207
    82BTZ   C52 5517   2.473   1.762   7.198  0.0794 -0.2733  0.0846
    92RH    C53 5518   2.582   1.928   7.346  0.0777 -0.0220 -0.2429
    82BTZ    N4 5519   2.366   1.599   7.061  0.0023  0.0324 -0.2208
    82BTZ    N5 5520   2.358   1.768   7.265  0.1096 -0.4059  0.1495
    82BTZ    S6 5521   2.248   1.652   7.184  0.0623 -0.2219 -0.0533
    92RH    C54 5522   2.666   2.015   7.403 -0.0023 -0.0430 -0.0934
    92RH     S7 5523   2.832   2.064   7.342 -0.1206  0.3476 -0.1085
    92RH    C55 5524   2.635   2.088   7.528 -0.0070 -0.3991  0.1141
    92RH     O2 5525   2.530   2.077   7.594  0.0610 -0.7139  0.1733
    92RH     N6 5526   2.741   2.173   7.566 -0.1000 -0.3389  0.2408
    92RH    C56 5527   2.853   2.178   7.486 -0.1705  0.0218  0.1601
    92RH    C57 5528   2.728   2.260   7.692 -0.2176 -0.5736  0.0611
    92RH    C58 5529   2.662   2.398   7.670  0.2951  0.3831 -0.2416
    92RH     S8 5530   2.992   2.271   7.508 -0.2863  0.1681  0.2777
    72IDQ   C59 5531   2.349   1.280   6.445 -1.0210  0.5753  0.6559
    72IDQ   C60 5532   2.272   1.352   6.330 -0.8194 -0.6680  0.8886
    72IDQ   C61 5533   2.192   1.458   6.388  0.4224  0.4175 -0.3918
    72IDQ   C62 5534   2.096   1.529   6.291  0.0274  0.4386 -0.5608
    72IDQ   C63 5535   1.993   1.442   6.221  0.1058 -0.4292 -0.0023
    72IDQ   C64 5536   1.881   1.378   6.302  0.0115 -0.1973 -0.1913
    72IDQ   C65 5537   1.819   1.271   6.211 -0.5783 -0.0498 -0.2272
    72IDQ   C66 5538   2.545   1.053   6.781  0.3582 -0.1806 -0.5578
    72IDQ   C67 5539   2.435   0.963   6.847  0.6350 -0.3811 -0.6660
    72IDQ   C68 5540   2.329   1.032   6.942 -0.4042 -0.1393  0.1564
    72IDQ   C69 5541   2.377   1.092   7.070 -0.4468 -0.6341 -0.8221
    72IDQ   C70 5542   2.272   1.151   7.170 -0.5263  0.1028 -0.5043
    72IDQ   C71 5543   2.339   1.248   7.263  0.2133  0.3909  0.2460
    72IDQ   C72 5544   2.261   1.272   7.402 -0.1532  0.3396  0.6035
    11RH     C1 5545   4.196   3.181   6.057  0.3315 -0.2814  0.4567
    11RH     C2 5546   4.225   3.040   6.020  0.1389 -0.2847  0.3151
    11RH     N1 5547   4.270   3.271   5.977  0.2919 -0.2977  0.4018
    11RH     S1 5548   4.347   3.036   5.882 -0.0818 -0.3089  0.1190
    11RH     C3 5549   4.354   3.220   5.880  0.0912 -0.3136  0.2337
    11RH     C4 5550   4.246   3.418   5.993 -0.4192 -0.1644 -0.2800
    11RH     S2 5551   4.452   3.305   5.773  0.0031 -0.3347  0.1366
    11RH     O1 5552   4.118   3.218   6.146  0.5074 -0.2664  0.6058
    11RH     C5 5553   4.169   2.935   6.080  0.1335 -0.2715  0.3330
    21BTZ    C6 5554   4.195   2.795   6.073  0.0205  0.1074  0.1880
    21BTZ    C7 5555   4.298   2.747   5.997  0.0304  0.0656  0.2277
    21BTZ    C8 5556   4.123   2.704   6.157 -0.0468  0.1374  0.1630
    21BTZ    C9 5557   4.335   2.608   5.999 -0.0252  0.0511  0.2446
    21BTZ   C10 5558   4.269   2.517   6.078 -0.0903  0.0785  0.2219
    21BTZ   C11 5559   4.161   2.563   6.160 -0.1032  0.1227  0.1802
    21BTZ    N2 5560   4.021   2.739   6.236 -0.0627  0.1791  0.1241
    21BTZ    N3 5561   4.089   2.484   6.241 -0.1643  0.1525  0.1552
    21BTZ    S3 5562   3.968   2.590   6.319 -0.1522  0.2016  0.1073
    31IDT   C12 5563   4.303   2.377   6.063  0.1270  0.0773 -0.2928
    31IDT   C13 5564   4.237   2.268   6.112  0.0205  0.0890 -0.4071
    31IDT   C14 5565   4.299   2.144   6.077 -0.1005  0.0652 -0.5375
    31IDT   C15 5566   4.412   2.158   6.000 -0.0872  0.0353 -0.5238
    31IDT    S4 5567   4.450   2.331   5.966  0.0813  0.0347 -0.3426
    4IDB    C16 5568   4.467   2.031   5.967  0.3684  0.1618 -0.3521
    4IDB    C17 5569   4.381   1.931   6.022  0.4603  0.3612  0.1621
    51IDQ   C18 5570   4.259   1.993   6.092  0.5930 -0.3077  0.1604
    4IDB    C19 5571   4.400   1.797   5.992  0.1767  0.2835  0.3236
    51IDQ   C20 5572   4.122   1.956   6.019 -0.4384  0.2545 -0.2827
    51IDQ   C21 5573   4.237   1.951   6.240 -0.2801  0.3177  0.3760
    51IDQ   C22 5574   4.331   1.849   6.308  0.4138  0.1179  0.5847
    51IDQ   C23 5575   4.043   2.044   5.915 -0.7663  0.1840  0.6761
    51IDQ   C24 5576   4.267   1.766   6.421  0.2338  0.2859  0.4256
    51IDQ   C25 5577   4.174   1.839   6.512  0.0744 -0.0720  0.3926
    51IDQ   C26 5578   4.182   1.775   6.650 -0.0874  0.2509 -0.7127
    51IDQ   C27 5579   4.141   1.873   6.763  0.6293  0.8268 -0.1427
    51IDQ   C28 5580   3.990   1.867   6.780  0.5704 -0.6194  0.0452
    51IDQ   C29 5581   3.943   1.930   6.907  0.0278  0.0548  0.4505
    51IDQ   C30 5582   4.141   2.083   5.792  0.0558  0.2506  0.1576
    51IDQ   C31 5583   4.064   2.136   5.667  0.2035 -0.3118  0.1005
    51IDQ   C32 5584   4.148   2.237   5.581 -0.1265  0.0565  0.0262
    51IDQ   C33 5585   4.167   2.370   5.649  0.8281  0.1502  0.0253
    51IDQ   C34 5586   4.254   2.483   5.602 -0.1303 -0.1995  0.7007
    51IDQ   C35 5587   4.403   2.451   5.566  0.1213 -0.0886 -0.2939
    4IDB    C36 5588   4.572   1.998   5.880 -0.0100 -0.1184 -0.7098
    4IDB    C37 5589   4.589   1.860   5.850 -0.2960 -0.1940 -0.5378
    11RH    C38 5590   4.346   3.481   6.083 -0.6131  0.6945 -0.1534
    4IDB    C39 5591   4.505   1.763   5.905 -0.2017  0.0034 -0.0339
    62IDT   C40 5592   4.544   1.636   5.848 -0.0838  0.0900 -0.0051
    72IDQ   C41 5593   4.684   1.797   5.743  0.1126 -1.0812  0.6843
    62IDT   C42 5594   4.648   1.655   5.760 -0.0559  0.2376  0.0579
    72IDQ   C43 5595   4.833   1.835   5.774  0.5058 -0.2844  0.6141
    72IDQ   C44 5596   4.648   1.855   5.599 -0.8070  0.1231  0.6530
    62IDT    S5 5597   4.500   1.463   5.865  0.0269  0.0449 -0.1750
    62IDT   C45 5598   4.631   1.422   5.746  0.1086  0.2374 -0.1509
    62IDT   C46 5599   4.697   1.534   5.702  0.0528  0.3211 -0.0246
    82BTZ   C47 5600   4.637   1.286   5.687 -0.0603  0.2639 -0.0314
    82BTZ   C48 5601   4.539   1.197   5.722 -0.0393  0.3281  0.1940
    82BTZ   C49 5602   4.537   1.063   5.669 -0.0315  0.2063  0.4987
    82BTZ   C50 5603   4.632   1.018   5.582 -0.0444  0.0205  0.5775
    82BTZ   C51 5604   4.739   1.245   5.595 -0.0744  0.0703  0.0397
    82BTZ   C52 5605   4.737   1.108   5.542 -0.0664 -0.0535  0.3495
    92RH    C53 5606   4.617   0.885   5.521  0.0953 -0.1463  0.1962
    82BTZ    N4 5607   4.839   1.323   5.554 -0.0949 -0.0087 -0.1602
    82BTZ    N5 5608   4.835   1.077   5.457 -0.0805 -0.2319  0.3985
    82BTZ    S6 5609   4.937   1.223   5.442 -0.1052 -0.2496  0.0435
    92RH    C54 5610   4.532   0.783   5.540  0.0426 -0.1089  0.1627
    92RH     S7 5611   4.406   0.769   5.673 -0.1679  0.0469 -0.0186
    92RH    C55 5612   4.528   0.663   5.454  0.1509 -0.1913  0.2714
    92RH     O2 5613   4.600   0.642   5.355  0.3002 -0.3024  0.4039
    92RH     N6 5614   4.429   0.572   5.498  0.0627 -0.1276  0.2060
    92RH    C56 5615   4.354   0.605   5.608 -0.1028 -0.0043  0.0581
    92RH    C57 5616   4.399   0.452   5.411 -0.3998  0.2367 -0.6165
    92RH    C58 5617   4.471   0.319   5.439 -0.1208  0.1894  0.0314
    92RH     S8 5618   4.231   0.514   5.680 -0.2346  0.0920 -0.0458
    72IDQ   C59 5619   4.574   1.783   5.487  0.5785 -0.3361 -0.0039
    72IDQ   C60 5620   4.541   1.876   5.367  0.1247  0.2000 -0.1884
    72IDQ   C61 5621   4.449   1.993   5.387  0.1500  0.3221 -0.2359
    72IDQ   C62 5622   4.455   2.084   5.265 -0.4479 -0.1346 -0.3401
    72IDQ   C63 5623   4.571   2.181   5.248  0.0912  0.1355  0.1631
    72IDQ   C64 5624   4.553   2.274   5.127 -0.0747 -0.2029  0.2568
    72IDQ   C65 5625   4.671   2.363   5.090  0.5911  0.6685 -0.5816
    72IDQ   C66 5626   4.951   1.732   5.759  0.2722 -0.3644  0.4294
    72IDQ   C67 5627   5.083   1.790   5.799 -0.6199 -0.3554  0.1716
    72IDQ   C68 5628   5.180   1.696   5.729 -0.0395 -0.6946 -0.6730
    72IDQ   C69 5629   5.314   1.750   5.766 -1.4208  0.5425  0.0082
    72IDQ   C70 5630   5.423   1.663   5.705 -0.1195 -0.1556  0.1603
    72IDQ   C71 5631   5.569   1.712   5.743 -0.4290  0.0767  0.3641
    72IDQ   C72 5632   5.682   1.633   5.665  0.3044 -0.1320  1.0358
    11RH     C1 5633   5.939   2.464   5.145 -0.1575  0.0515  0.3067
    11RH     C2 5634   6.016   2.356   5.211 -0.1335  0.0427  0.2644
    11RH     N1 5635   6.021   2.544   5.063 -0.2054  0.0026  0.2109
    11RH     S1 5636   6.192   2.366   5.160 -0.1759 -0.0295  0.1014
    11RH     C3 5637   6.155   2.513   5.055 -0.2230 -0.0445  0.0970
    11RH     C4 5638   5.960   2.653   4.992  0.5856  0.0424  0.2034
    11RH     S2 5639   6.274   2.591   4.964 -0.2785 -0.1077 -0.0316
    11RH     O1 5640   5.817   2.485   5.159 -0.1383  0.0958  0.4123
    11RH     C5 5641   5.962   2.267   5.294 -0.0879  0.0824  0.3370
    21BTZ    C6 5642   6.008   2.145   5.368  0.1846  0.2264  0.0319
    21BTZ    C7 5643   6.138   2.103   5.364  0.1416  0.1070 -0.1782
    21BTZ    C8 5644   5.913   2.071   5.445  0.2044  0.2052  0.0360
    21BTZ    C9 5645   6.181   1.986   5.437  0.1161 -0.0381 -0.3934
    21BTZ   C10 5646   6.095   1.912   5.513  0.1336 -0.0637 -0.3983
    21BTZ   C11 5647   5.957   1.953   5.520  0.1785  0.0576 -0.1827
    21BTZ    N2 5648   5.784   2.102   5.456  0.2459  0.3127  0.2292
    21BTZ    N3 5649   5.863   1.889   5.590  0.1990  0.0466 -0.1653
    21BTZ    S3 5650   5.711   1.979   5.564  0.2538  0.2281  0.1381
    31IDT   C12 5651   6.152   1.789   5.567 -0.1653  0.0987 -0.3332
    31IDT   C13 5652   6.163   1.751   5.698 -0.1431  0.5178 -0.2106
    31IDT   C14 5653   6.253   1.641   5.717 -0.1281  0.5862  0.1267
    31IDT   C15 5654   6.311   1.595   5.601 -0.1389  0.2209  0.2632
    31IDT    S4 5655   6.256   1.688   5.457 -0.1690 -0.2426 -0.0276
    4IDB    C16 5656   6.410   1.494   5.630 -0.2929 -0.4167 -0.2754
    4IDB    C17 5657   6.411   1.474   5.771 -0.2028  0.0037 -0.2133
    51IDQ   C18 5658   6.314   1.574   5.840  0.2443 -0.5591  0.5989
    4IDB    C19 5659   6.501   1.386   5.831 -0.2718  0.0583 -0.0270
    51IDQ   C20 5660   6.216   1.491   5.929 -0.5312  0.6154  0.3202
    51IDQ   C21 5661   6.379   1.699   5.926  0.2602  0.4389 -0.1264
    51IDQ   C22 5662   6.534   1.727   5.931  0.6647  0.6316  0.4160
    51IDQ   C23 5663   6.064   1.475   5.926  0.3611  0.1616 -0.9366
    51IDQ   C24 5664   6.623   1.746   5.806 -0.2953  0.5722  0.5520
    51IDQ   C25 5665   6.590   1.878   5.731  0.1346 -0.2800 -0.0262
    51IDQ   C26 5666   6.718   1.952   5.682 -0.2027  0.3036 -0.2660
    51IDQ   C27 5667   6.756   1.923   5.535  0.1920 -0.0805 -0.8554
    51IDQ   C28 5668   6.870   2.018   5.480  0.1652 -0.0047 -0.3947
    51IDQ   C29 5669   6.905   1.999   5.334 -0.2272  0.0706  0.2415
    51IDQ   C30 5670   5.994   1.449   5.799 -0.4851 -0.4603  0.2553
    51IDQ   C31 5671   6.041   1.326   5.729  0.0917 -0.1532 -0.5626
    51IDQ   C32 5672   5.934   1.267   5.642  0.2136 -0.3010  0.2165
    51IDQ   C33 5673   5.895   1.326   5.504  0.1730 -0.1202 -0.1311
    51IDQ   C34 5674   5.806   1.253   5.406 -0.0412 -0.0240  0.0537
    51IDQ   C35 5675   5.680   1.199   5.467  0.2083 -0.2624  0.5646
    4IDB    C36 5676   6.501   1.426   5.547 -0.4532 -0.7873 -0.1508
    4IDB    C37 5677   6.592   1.337   5.609 -0.5218 -0.7253  0.0390
    11RH    C38 5678   5.956   2.792   5.059 -0.1028  0.2110 -0.1504
    4IDB    C39 5679   6.591   1.318   5.748 -0.4322 -0.3123  0.0977
    62IDT   C40 5680   6.698   1.227   5.786  0.1057 -0.1289 -0.0309
    72IDQ   C41 5681   6.715   1.265   5.553  0.2997 -0.2088 -0.0745
    62IDT   C42 5682   6.768   1.187   5.674  0.2312 -0.3066  0.1103
    72IDQ   C43 5683   6.826   1.363   5.492  0.0350 -0.1179 -0.9285
    72IDQ   C44 5684   6.679   1.145   5.452 -0.0333 -0.4306  0.1283
    62IDT    S5 5685   6.768   1.159   5.937 -0.1175  0.0361  0.1477
    62IDT   C45 5686   6.895   1.076   5.836 -0.0247 -0.1530  0.4168
    62IDT   C46 5687   6.880   1.102   5.702  0.1577 -0.3204  0.3636
    82BTZ   C47 5688   7.010   1.017   5.900 -0.0858 -0.1092 -0.3821
    82BTZ   C48 5689   7.002   0.896   5.964 -0.0725 -0.0277 -0.2248
    82BTZ   C49 5690   7.113   0.842   6.039 -0.1499  0.1955  0.0547
    82BTZ   C50 5691   7.232   0.910   6.050 -0.2405  0.3370  0.1769
    82BTZ   C51 5692   7.132   1.091   5.909 -0.1793  0.0325 -0.2636
    82BTZ   C52 5693   7.245   1.037   5.985 -0.2580  0.2594  0.0206
    92RH    C53 5694   7.342   0.868   6.133 -0.1321  0.0441 -0.0421
    82BTZ    N4 5695   7.152   1.210   5.851 -0.2011 -0.0278 -0.3958
    82BTZ    N5 5696   7.356   1.112   5.988 -0.3430  0.3815  0.1168
    82BTZ    S6 5697   7.319   1.258   5.892 -0.3258  0.2079 -0.1576
    92RH    C54 5698   7.361   0.774   6.226  0.0570  0.1058 -0.0166
    92RH     S7 5699   7.236   0.653   6.286  0.1789  0.1430  0.3134
    92RH    C55 5700   7.489   0.753   6.297  0.2008  0.1550 -0.2606
    92RH     O2 5701   7.593   0.819   6.279  0.1645  0.1452 -0.5128
    92RH     N6 5702   7.480   0.647   6.390  0.3893  0.2160 -0.1726
    92RH    C56 5703   7.360   0.581   6.402  0.4140  0.2217  0.1127
    92RH    C57 5704   7.596   0.617   6.484  0.1076  0.2761  0.4033
    92RH    C58 5705   7.692   0.515   6.418  0.1644  0.4130 -0.6482
    92RH     S8 5706   7.324   0.452   6.505  0.6218  0.2885  0.2723
    72IDQ   C59 5707   6.600   1.166   5.320  0.0108 -0.5065 -0.3113
    72IDQ   C60 5708   6.643   1.281   5.229 -0.3939  0.4234  0.7470
    72IDQ   C61 5709   6.546   1.324   5.112 -0.1586 -0.3575  0.4718
    72IDQ   C62 5710   6.416   1.395   5.154  0.1575 -0.1154 -0.2629
    72IDQ   C63 5711   6.343   1.450   5.030  0.1587  0.3639 -0.3170
    72IDQ   C64 5712   6.211   1.516   5.035  0.5263  0.0362  0.1606
    72IDQ   C65 5713   6.153   1.572   4.904 -0.3257  0.6670 -0.6540
    72IDQ   C66 5714   6.888   1.474   5.582 -0.1531 -0.4522  0.2750
    72IDQ   C67 5715   6.978   1.581   5.511 -0.1400 -0.6489  0.1596
    72IDQ   C68 5716   7.114   1.528   5.483 -0.3410  0.3277 -0.0235
    72IDQ   C69 5717   7.215   1.641   5.440  0.5840 -0.4109  0.1533
    72IDQ   C70 5718   7.302   1.687   5.554  0.0261  0.2651 -0.1007
    72IDQ   C71 5719   7.395   1.800   5.514 -0.3675  0.1045  0.2759
    72IDQ   C72 5720   7.502   1.844   5.615  0.4772 -0.4321 -0.3552
    11RH     C1 5721   3.807   1.972   5.381  0.0326 -0.4257 -0.0057
    11RH     C2 5722   3.911   2.057   5.319 -0.2449 -0.1740 -0.1260
    11RH     N1 5723   3.851   1.838   5.393  0.3835 -0.3152 -0.0222
    11RH     S1 5724   4.059   1.956   5.279 -0.0263  0.1915 -0.2529
    11RH     C3 5725   3.976   1.806   5.347  0.4211 -0.0057 -0.1411
    11RH     C4 5726   3.755   1.735   5.444  0.0528 -0.3004  0.0196
    11RH     S2 5727   4.052   1.655   5.349  0.8062  0.1831 -0.1855
    11RH     O1 5728   3.696   2.010   5.420 -0.0279 -0.7007  0.0976
    11RH     C5 5729   3.895   2.188   5.296 -0.5988 -0.2170 -0.1364
    21BTZ    C6 5730   3.983   2.293   5.233 -0.2075 -0.1131  0.0233
    21BTZ    C7 5731   4.107   2.271   5.179 -0.2601 -0.1749 -0.0732
    21BTZ    C8 5732   3.933   2.428   5.236 -0.1233 -0.0836  0.0948
    21BTZ    C9 5733   4.188   2.378   5.127 -0.2328 -0.2103 -0.1038
    21BTZ   C10 5734   4.145   2.508   5.128 -0.1531 -0.1841 -0.0381
    21BTZ   C11 5735   4.016   2.537   5.183 -0.0956 -0.1197  0.0635
    21BTZ    N2 5736   3.814   2.463   5.286 -0.0663 -0.0238  0.1909
    21BTZ    N3 5737   3.963   2.659   5.190 -0.0163 -0.0889  0.1343
    21BTZ    S3 5738   3.802   2.640   5.266  0.0272 -0.0109  0.2465
    31IDT   C12 5739   4.234   2.620   5.073  0.3419 -0.0151  0.1538
    31IDT   C13 5740   4.237   2.750   5.114  0.5451 -0.0214  0.1578
    31IDT   C14 5741   4.339   2.826   5.048  0.5704 -0.1433  0.0559
    31IDT   C15 5742   4.414   2.753   4.958  0.3871 -0.2306 -0.0266
    31IDT    S4 5743   4.360   2.582   4.948  0.1660 -0.1646  0.0190
    4IDB    C16 5744   4.524   2.843   4.907 -0.2640  0.4456  0.0832
    4IDB    C17 5745   4.524   2.966   4.979 -0.3430  0.6640 -0.2857
    51IDQ   C18 5746   4.398   2.968   5.070  0.8270  0.1263  0.7384
    4IDB    C19 5747   4.621   3.063   4.956 -0.1361  0.4641 -0.2499
    51IDQ   C20 5748   4.449   2.993   5.219  0.2679 -0.9579  0.4922
    51IDQ   C21 5749   4.286   3.074   5.029 -0.2137 -0.6596 -0.2820
    51IDQ   C22 5750   4.310   3.166   4.909 -0.1039  0.1236  0.3979
    51IDQ   C23 5751   4.420   2.917   5.347  0.2623  0.8563 -0.5528
    51IDQ   C24 5752   4.207   3.260   4.865  0.2411 -0.1502  0.2917
    51IDQ   C25 5753   4.192   3.377   4.963  0.3496 -0.1425 -0.2989
    51IDQ   C26 5754   4.310   3.483   4.968  0.7592 -0.2600  0.0360
    51IDQ   C27 5755   4.270   3.605   5.048 -0.4369 -0.0579  0.4953
    51IDQ   C28 5756   4.394   3.689   5.068 -0.0482  0.2910  0.2353
    51IDQ   C29 5757   4.376   3.783   5.193 -0.4734  0.5518  0.1553
    51IDQ   C30 5758   4.527   2.947   5.453  0.2124  0.6427 -0.2991
    51IDQ   C31 5759   4.516   2.853   5.568 -0.4830 -0.3105 -0.0707
    51IDQ   C32 5760   4.644   2.860   5.654 -0.2198  0.1436  0.1775
    51IDQ   C33 5761   4.634   2.760   5.772 -0.4418  0.5255  0.5582
    51IDQ   C34 5762   4.766   2.752   5.845 -0.0976 -0.4286 -0.3088
    51IDQ   C35 5763   4.771   2.663   5.967  0.6152  0.7547 -0.1266
    4IDB    C36 5764   4.622   2.815   4.811  0.0243  0.0235  0.4927
    4IDB    C37 5765   4.721   2.915   4.788  0.2329 -0.1755  0.5231
    11RH    C38 5766   3.755   1.730   5.592  0.0835 -0.2911 -0.2861
    4IDB    C39 5767   4.720   3.035   4.860  0.1522  0.0420  0.1597
    62IDT   C40 5768   4.830   3.123   4.820 -0.0037  0.0701  0.1359
    72IDQ   C41 5769   4.836   2.924   4.684 -0.9493 -0.6965  0.1941
    62IDT   C42 5770   4.891   3.063   4.712 -0.2958  0.0340 -0.0088
    72IDQ   C43 5771   4.804   2.914   4.530 -0.3121  0.2521  0.4917
    72IDQ   C44 5772   4.963   2.831   4.720  0.3164 -0.9077 -0.3912
    62IDT    S5 5773   4.908   3.279   4.863  0.2354 -0.0093 -0.0027
    62IDT   C45 5774   5.023   3.254   4.725 -0.0879 -0.0912 -0.2615
    62IDT   C46 5775   5.000   3.137   4.658 -0.3439 -0.0572 -0.2339
    82BTZ   C47 5776   5.119   3.359   4.694  0.0727  0.0631 -0.2383
    82BTZ   C48 5777   5.092   3.478   4.757 -0.0411  0.0780 -0.3134
    82BTZ   C49 5778   5.182   3.590   4.747 -0.1376  0.1500 -0.3656
    82BTZ   C50 5779   5.297   3.584   4.673 -0.1200  0.2067 -0.3428
    82BTZ   C51 5780   5.238   3.348   4.616  0.0956  0.1207 -0.2115
    82BTZ   C52 5781   5.329   3.462   4.605 -0.0023  0.1938 -0.2648
    92RH    C53 5782   5.388   3.695   4.647 -0.2472  0.2676 -0.1991
    82BTZ    N4 5783   5.275   3.237   4.550  0.2028  0.1128 -0.1396
    82BTZ    N5 5784   5.439   3.444   4.531  0.0261  0.2446 -0.2354
    82BTZ    S6 5785   5.430   3.276   4.470  0.1823  0.2003 -0.1369
    92RH    C54 5786   5.388   3.822   4.687 -0.2474  0.2494 -0.1419
    92RH     S7 5787   5.271   3.900   4.806 -0.0480  0.1162  0.1438
    92RH    C55 5788   5.486   3.923   4.641 -0.4157  0.3377 -0.3076
    92RH     O2 5789   5.578   3.902   4.560 -0.5729  0.4369 -0.5147
    92RH     N6 5790   5.463   4.049   4.700 -0.3757  0.2952 -0.2006
    92RH    C56 5791   5.358   4.062   4.788 -0.1963  0.1837  0.0306
    92RH    C57 5792   5.549   4.163   4.658  0.1756  0.3039 -0.1964
    92RH    C58 5793   5.685   4.186   4.732  0.0750  0.9891  0.4528
    92RH     S8 5794   5.309   4.200   4.871 -0.1130  0.1129  0.1978
    72IDQ   C59 5795   4.984   2.692   4.667  0.1001  0.0861  0.3359
    72IDQ   C60 5796   5.114   2.631   4.716 -0.2664 -0.0859 -0.2154
    72IDQ   C61 5797   5.116   2.482   4.735 -0.0609  0.7041 -0.2127
    72IDQ   C62 5798   5.250   2.418   4.755  0.0221 -0.2004 -0.2709
    72IDQ   C63 5799   5.347   2.408   4.634  0.0961 -0.0868 -0.2190
    72IDQ   C64 5800   5.494   2.366   4.661 -0.4901  0.1103 -0.9738
    72IDQ   C65 5801   5.561   2.444   4.776  0.3170 -0.1285 -0.3690
    72IDQ   C66 5802   4.669   2.959   4.475 -0.0392 -1.0351  0.2812
    72IDQ   C67 5803   4.635   2.903   4.337  0.9146 -0.2221  0.4913
    72IDQ   C68 5804   4.605   2.756   4.345  0.4074 -0.6143  0.1019
    72IDQ   C69 5805   4.545   2.694   4.214 -0.1023  0.1233 -0.3370
    72IDQ   C70 5806   4.639   2.700   4.093 -0.1787  0.3828 -0.1951
    72IDQ   C71 5807   4.589   2.628   3.968 -0.6914  0.1896  0.3704
    72IDQ   C72 5808   4.690   2.642   3.852  0.1359 -0.3024  0.4666
    11RH     C1 5809   1.147   1.204   3.391 -0.0062  0.0857 -0.0910
    11RH     C2 5810   1.183   1.335   3.332 -0.0966  0.1329 -0.0416
    11RH     N1 5811   1.017   1.164   3.352  0.1091 -0.0963 -0.2907
    11RH     S1 5812   1.044   1.398   3.230 -0.0241 -0.0650 -0.2609
    11RH     C3 5813   0.945   1.247   3.269  0.1221 -0.2005 -0.4073
    11RH     C4 5814   0.954   1.035   3.407 -0.6078  0.3080  0.5745
    11RH     S2 5815   0.790   1.223   3.208  0.2487 -0.4193 -0.6479
    11RH     O1 5816   1.219   1.136   3.465 -0.0266  0.1899  0.0252
    11RH     C5 5817   1.300   1.396   3.354 -0.2127  0.2968  0.1379
    21BTZ    C6 5818   1.368   1.516   3.301 -0.2147 -0.2032  0.2155
    21BTZ    C7 5819   1.306   1.593   3.206 -0.2572 -0.2793  0.1812
    21BTZ    C8 5820   1.503   1.547   3.338 -0.2299 -0.1156  0.1980
    21BTZ    C9 5821   1.374   1.703   3.142 -0.3164 -0.2734  0.1284
    21BTZ   C10 5822   1.503   1.737   3.174 -0.3330 -0.1913  0.1100
    21BTZ   C11 5823   1.572   1.659   3.273 -0.2900 -0.1096  0.1444
    21BTZ    N2 5824   1.574   1.479   3.429 -0.1923 -0.0366  0.2276
    21BTZ    N3 5825   1.697   1.682   3.312 -0.3009 -0.0257  0.1309
    21BTZ    S3 5826   1.734   1.558   3.436 -0.2332  0.0506  0.1875
    31IDT   C12 5827   1.567   1.849   3.099  0.2253  0.1727  0.2518
    31IDT   C13 5828   1.699   1.871   3.070  0.1597  0.1136 -0.0938
    31IDT   C14 5829   1.719   1.978   2.978 -0.0452 -0.0440 -0.3263
    31IDT   C15 5830   1.602   2.040   2.938 -0.1369 -0.1059 -0.1600
    31IDT    S4 5831   1.457   1.965   3.013  0.0306  0.0317  0.3083
    4IDB    C16 5832   1.627   2.157   2.860 -0.1396  0.3081  0.4405
    4IDB    C17 5833   1.767   2.172   2.842 -0.1139  0.2768  0.6136
    51IDQ   C18 5834   1.836   2.052   2.919 -0.7470 -0.0573  0.4922
    4IDB    C19 5835   1.819   2.273   2.761 -0.0047  0.0435  0.3915
    51IDQ   C20 5836   1.913   1.985   2.795 -0.3119  0.3650 -0.6106
    51IDQ   C21 5837   1.947   2.100   3.017  0.2841  0.4834  0.2018
    51IDQ   C22 5838   1.985   2.244   3.063  0.0132  0.7452  0.5642
    51IDQ   C23 5839   1.851   1.877   2.705  0.0981  0.1032 -0.2682
    51IDQ   C24 5840   2.137   2.243   3.095 -0.9519  0.5733 -0.6854
    51IDQ   C25 5841   2.242   2.220   2.989  0.0287  0.9537  0.1287
    51IDQ   C26 5842   2.258   2.311   2.868 -0.1311 -0.1627 -0.0084
    51IDQ   C27 5843   2.328   2.269   2.743 -0.0233 -0.4207  0.1701
    51IDQ   C28 5844   2.265   2.170   2.643  0.0801 -0.3670 -0.5907
    51IDQ   C29 5845   2.278   2.027   2.679  0.7750  0.1061 -0.2292
    51IDQ   C30 5846   1.922   1.836   2.578 -0.5247 -0.4273  0.5449
    51IDQ   C31 5847   1.934   1.955   2.474 -0.8513  0.1747 -0.2348
    51IDQ   C32 5848   1.805   2.007   2.405 -0.0514  1.1743  0.0280
    51IDQ   C33 5849   1.832   2.132   2.319 -0.2873  0.6135  0.1914
    51IDQ   C34 5850   1.949   2.121   2.218 -0.6381  0.1234 -0.5621
    51IDQ   C35 5851   1.991   2.256   2.165 -0.8661 -0.1931  0.1226
    4IDB    C36 5852   1.536   2.243   2.796 -0.0556  0.1049  0.0416
    4IDB    C37 5853   1.590   2.345   2.713  0.0555 -0.1321 -0.1808
    11RH    C38 5854   0.978   0.901   3.333 -0.5278  0.2169  0.2008
    4IDB    C39 5855   1.728   2.358   2.697  0.0793 -0.1597 -0.0073
    62IDT   C40 5856   1.757   2.469   2.612 -0.1920 -0.0852 -0.1709
    72IDQ   C41 5857   1.519   2.456   2.633 -0.2948  0.1695 -0.0058
    62IDT   C42 5858   1.639   2.530   2.577 -0.1788  0.1504  0.1791
    72IDQ   C43 5859   1.433   2.555   2.728 -0.1047  0.7649  0.0017
    72IDQ   C44 5860   1.432   2.382   2.522 -0.5981 -0.5386  0.1316
    62IDT    S5 5861   1.899   2.550   2.537 -0.2155 -0.0377 -0.1641
    62IDT   C45 5862   1.785   2.667   2.458 -0.2058  0.3155  0.3357
    62IDT   C46 5863   1.654   2.642   2.489 -0.1867  0.3773  0.4659
    82BTZ   C47 5864   1.832   2.776   2.377  0.2293  0.3349 -0.0350
    82BTZ   C48 5865   1.825   2.905   2.424  0.2826  0.3667 -0.1135
    82BTZ   C49 5866   1.862   3.017   2.342  0.3107  0.3026 -0.1891
    82BTZ   C50 5867   1.907   3.002   2.213  0.2856  0.2069 -0.1861
    82BTZ   C51 5868   1.877   2.754   2.243  0.2013  0.2353 -0.0284
    82BTZ   C52 5869   1.916   2.869   2.160  0.2298  0.1702 -0.1053
    92RH    C53 5870   1.917   3.121   2.125  0.0910  0.1720 -0.0951
    82BTZ    N4 5871   1.888   2.634   2.186  0.1494  0.1959  0.0445
    82BTZ    N5 5872   1.957   2.841   2.036  0.2010  0.0784 -0.0941
    82BTZ    S6 5873   1.949   2.663   2.020  0.1347  0.0713  0.0173
    92RH    C54 5874   1.889   3.250   2.145  0.0083  0.1593 -0.1297
    92RH     S7 5875   1.824   3.326   2.299  0.0598  0.1759 -0.1163
    92RH    C55 5876   1.906   3.354   2.041 -0.1431  0.1290 -0.1861
    92RH     O2 5877   1.948   3.335   1.926 -0.2100  0.1118 -0.2076
    92RH     N6 5878   1.869   3.482   2.089 -0.2045  0.1213 -0.2134
    92RH    C56 5879   1.824   3.492   2.219 -0.1209  0.1418 -0.1858
    92RH    C57 5880   1.891   3.603   2.002 -0.0861 -0.2492 -0.4186
    92RH    C58 5881   1.785   3.623   1.900  0.3838 -0.5513  0.0291
    92RH     S8 5882   1.773   3.631   2.299 -0.1679  0.1383 -0.2088
    72IDQ   C59 5883   1.487   2.303   2.402 -0.3431  0.1109 -0.8653
    72IDQ   C60 5884   1.383   2.232   2.321  0.1200 -0.4278 -0.4944
    72IDQ   C61 5885   1.309   2.113   2.383  0.0900  0.4040 -0.0050
    72IDQ   C62 5886   1.170   2.088   2.336  0.3014  1.2014  0.0003
    72IDQ   C63 5887   1.110   1.957   2.382  0.1566  0.0205  0.2361
    72IDQ   C64 5888   0.983   1.907   2.314  0.6113  0.0848 -0.0660
    72IDQ   C65 5889   0.863   2.006   2.328  0.4966  0.1109 -0.6156
    72IDQ   C66 5890   1.282   2.539   2.729  0.2196  0.2598 -0.4688
    72IDQ   C67 5891   1.201   2.663   2.771 -0.7016  0.5362  0.3037
    72IDQ   C68 5892   1.053   2.648   2.754  0.0073 -0.8588 -0.0900
    72IDQ   C69 5893   0.975   2.772   2.794 -0.0349  0.0204  0.7715
    72IDQ   C70 5894   0.976   2.904   2.712 -0.6158 -0.0597  0.2091
    72IDQ   C71 5895   0.969   2.888   2.560 -0.4200 -0.5215  0.4523
    72IDQ   C72 5896   0.981   3.031   2.483  0.0061 -0.4301  0.2919
    11RH     C1 5897   0.182   6.577   3.094  0.1325  0.0997 -0.2753
    11RH     C2 5898   0.319   6.524   3.110  0.1547  0.2002 -0.1333
    11RH     N1 5899   0.159   6.623   2.962  0.2742  0.1952 -0.2666
    11RH     S1 5900   0.410   6.538   2.951  0.3605  0.4137  0.0025
    11RH     C3 5901   0.262   6.613   2.871  0.4072  0.3598 -0.1350
    11RH     C4 5902   0.035   6.696   2.936  0.8839  0.0139 -0.1747
    11RH     S2 5903   0.261   6.661   2.709  0.5893  0.4995 -0.0958
    11RH     O1 5904   0.095   6.581   3.183  0.0068 -0.0495 -0.3892
    11RH     C5 5905   0.366   6.474   3.225  0.0390  0.1396 -0.1119
    21BTZ    C6 5906   0.489   6.404   3.266 -0.3077 -0.3183 -0.1392
    21BTZ    C7 5907   0.592   6.375   3.180 -0.3718 -0.2098 -0.2525
    21BTZ    C8 5908   0.500   6.363   3.402 -0.0259 -0.1357 -0.1050
    21BTZ    C9 5909   0.709   6.305   3.223 -0.1636  0.0814 -0.3373
    21BTZ   C10 5910   0.725   6.263   3.353  0.1082  0.2638 -0.3087
    21BTZ   C11 5911   0.620   6.291   3.447  0.1856  0.1603 -0.1912
    21BTZ    N2 5912   0.407   6.385   3.496  0.0619 -0.2168  0.0026
    21BTZ    N3 5913   0.623   6.255   3.575  0.4435  0.3172 -0.1529
    21BTZ    S3 5914   0.470   6.313   3.647  0.4264  0.0886 -0.0018
    31IDT   C12 5915   0.845   6.192   3.391  0.0078  0.0989  0.0831
    31IDT   C13 5916   0.921   6.206   3.503  0.0158  0.1171  0.0754
    31IDT   C14 5917   1.046   6.136   3.495  0.0162  0.1175  0.0767
    31IDT   C15 5918   1.065   6.069   3.376  0.0085  0.1001  0.0852
    31IDT    S4 5919   0.926   6.089   3.264  0.0000  0.0813  0.0925
    4IDB    C16 5920   1.208   6.028   3.361  0.1772 -0.4200  0.2475
    4IDB    C17 5921   1.275   6.056   3.484  0.1041 -0.2655  0.2527
    51IDQ   C18 5922   1.176   6.126   3.585  0.0683  1.1089  0.4260
    4IDB    C19 5923   1.409   6.026   3.501  0.1674  0.0192  0.2728
    51IDQ   C20 5924   1.168   6.043   3.717 -1.4342  0.5804  0.3615
    51IDQ   C21 5925   1.227   6.272   3.629 -0.0214 -0.2218 -0.0493
    51IDQ   C22 5926   1.344   6.360   3.588  0.0800  0.3122  0.7019
    51IDQ   C23 5927   1.041   5.969   3.762 -0.1726  0.0213 -0.4189
    51IDQ   C24 5928   1.381   6.385   3.439  0.0458 -0.4358  0.2631
    51IDQ   C25 5929   1.269   6.439   3.349  1.0195 -0.3221 -0.4725
    51IDQ   C26 5930   1.308   6.474   3.212  0.0211  0.6783 -0.3702
    51IDQ   C27 5931   1.199   6.516   3.113  0.1046  0.1783 -0.0485
    51IDQ   C28 5932   1.079   6.426   3.082 -0.0789 -0.0163 -0.3144
    51IDQ   C29 5933   1.128   6.320   2.986  0.1644  0.4669  0.1768
    51IDQ   C30 5934   1.054   5.901   3.899 -0.2267  0.0628  0.6857
    51IDQ   C31 5935   1.147   5.773   3.888 -0.1670  0.7307  0.1232
    51IDQ   C32 5936   1.168   5.695   4.016 -0.3731  0.0409 -0.4124
    51IDQ   C33 5937   1.267   5.759   4.116 -0.2544  0.5504 -0.2549
    51IDQ   C34 5938   1.302   5.677   4.236  0.0054  0.3998 -0.0475
    51IDQ   C35 5939   1.364   5.541   4.211 -0.3145 -0.1761 -0.6243
    4IDB    C36 5940   1.276   5.969   3.254  0.3149 -0.2896  0.2626
    4IDB    C37 5941   1.413   5.939   3.273  0.3780  0.0015  0.2831
    11RH    C38 5942  -0.078   6.616   2.874 -0.3305  0.3117  0.3767
    4IDB    C39 5943   1.477   5.967   3.394  0.3051  0.1496  0.2878
    62IDT   C40 5944   1.613   5.918   3.391 -0.0575  0.0264 -0.0401
    72IDQ   C41 5945   1.521   5.895   3.170  0.2076  0.2933 -0.4956
    62IDT   C42 5946   1.641   5.868   3.266  0.0271 -0.0523  0.0101
    72IDQ   C43 5947   1.567   5.999   3.062 -0.0710  0.5672  0.1038
    72IDQ   C44 5948   1.489   5.753   3.114  0.3297 -0.7396 -0.5422
    62IDT    S5 5949   1.754   5.904   3.502 -0.1132  0.1492  0.0468
    62IDT   C45 5950   1.848   5.827   3.367 -0.0143  0.0846  0.1514
    62IDT   C46 5951   1.774   5.817   3.252  0.0517 -0.0194  0.1184
    82BTZ   C47 5952   1.986   5.781   3.389 -0.1983 -0.5137 -0.4492
    82BTZ   C48 5953   2.021   5.739   3.515 -0.2959 -0.4951 -0.4154
    82BTZ   C49 5954   2.157   5.701   3.547 -0.2616 -0.2252 -0.2337
    82BTZ   C50 5955   2.256   5.705   3.453 -0.1298  0.0254 -0.0860
    82BTZ   C51 5956   2.087   5.786   3.288 -0.0587 -0.2571 -0.2989
    82BTZ   C52 5957   2.225   5.747   3.320 -0.0238  0.0172 -0.1142
    92RH    C53 5958   2.395   5.663   3.483  0.0070  0.2075  0.1624
    82BTZ    N4 5959   2.065   5.825   3.162  0.0454 -0.2482 -0.3146
    82BTZ    N5 5960   2.313   5.755   3.221  0.1083  0.2466  0.0187
    82BTZ    S6 5961   2.222   5.813   3.078  0.1955  0.1192 -0.0890
    92RH    C54 5962   2.460   5.626   3.594  0.0271  0.1271  0.1241
    92RH     S7 5963   2.391   5.621   3.764 -0.0639 -0.3793  0.0760
    92RH    C55 5964   2.601   5.581   3.596  0.1297  0.4482  0.1144
    92RH     O2 5965   2.676   5.574   3.497  0.2078  0.8223  0.1402
    92RH     N6 5966   2.643   5.548   3.726  0.1289  0.2769  0.0715
    92RH    C56 5967   2.553   5.560   3.829  0.0381 -0.1422  0.0456
    92RH    C57 5968   2.779   5.505   3.746 -0.4906  0.2290 -0.1688
    92RH    C58 5969   2.803   5.355   3.737 -0.0209  0.5428  0.8508
    92RH     S8 5970   2.577   5.528   3.993  0.0165 -0.4209 -0.0063
    72IDQ   C59 5971   1.381   5.723   3.001 -0.4823 -0.5311  0.4127
    72IDQ   C60 5972   1.452   5.734   2.871  0.2111  0.0656  0.6393
    72IDQ   C61 5973   1.357   5.708   2.755  0.5946  0.5518 -0.0730
    72IDQ   C62 5974   1.417   5.691   2.616 -0.2007 -0.3087  0.5755
    72IDQ   C63 5975   1.511   5.571   2.579 -0.6293 -0.5460 -0.5030
    72IDQ   C64 5976   1.471   5.434   2.622  0.3056  0.3870 -0.0437
    72IDQ   C65 5977   1.578   5.348   2.549  0.1310  0.0765  0.4129
    72IDQ   C66 5978   1.461   6.077   2.982 -0.1869 -0.2592  0.0270
    72IDQ   C67 5979   1.521   6.199   2.899  0.1207  0.3430  0.1317
    72IDQ   C68 5980   1.435   6.276   2.800 -0.4911 -0.3623 -0.1537
    72IDQ   C69 5981   1.520   6.391   2.737  0.5946  0.5480  0.0273
    72IDQ   C70 5982   1.515   6.513   2.822  0.3157 -0.5971 -0.1640
    72IDQ   C71 5983   1.617   6.609   2.773  0.0883 -0.4588 -0.5324
    72IDQ   C72 5984   1.621   6.730   2.855  0.4404 -0.0037 -0.4890
    11RH     C1 5985   5.022   4.251   3.508  0.2662  0.0182 -0.0064
    11RH     C2 5986   4.921   4.292   3.608  0.1117 -0.0979 -0.1144
    11RH     N1 5987   5.105   4.359   3.472  0.2310  0.0948  0.1409
    11RH     S1 5988   4.942   4.470   3.649 -0.0699 -0.0985 -0.0153
    11RH     C3 5989   5.083   4.481   3.532  0.0670  0.0546  0.1641
    11RH     C4 5990   5.216   4.342   3.368  0.5097  0.0979  0.7641
    11RH     S2 5991   5.168   4.625   3.506 -0.0080  0.1276  0.3274
    11RH     O1 5992   5.034   4.137   3.460  0.4100  0.0467 -0.0381
    11RH     C5 5993   4.829   4.208   3.659  0.1102 -0.1865 -0.2612
    21BTZ    C6 5994   4.722   4.213   3.756  0.2086 -0.0139  0.0592
    21BTZ    C7 5995   4.687   4.332   3.814  0.2387  0.0058  0.0361
    21BTZ    C8 5996   4.655   4.094   3.799  0.1239  0.0218  0.0271
    21BTZ    C9 5997   4.586   4.340   3.916  0.1870  0.0615 -0.0191
    21BTZ   C10 5998   4.520   4.229   3.961  0.1057  0.0972 -0.0513
    21BTZ   C11 5999   4.552   4.102   3.903  0.0715  0.0783 -0.0290
    21BTZ    N2 6000   4.680   3.972   3.750  0.0875  0.0072  0.0449
    21BTZ    N3 6001   4.495   3.986   3.938 -0.0069  0.1091 -0.0563
    21BTZ    S3 6002   4.571   3.860   3.837 -0.0172  0.0664 -0.0104
    31IDT   C12 6003   4.421   4.248   4.062  0.5106  0.1181 -0.2898
    31IDT   C13 6004   4.297   4.190   4.069  0.7168 -0.3514 -0.4619
    31IDT   C14 6005   4.233   4.212   4.195  0.4975 -0.6758 -0.5152
    31IDT   C15 6006   4.306   4.287   4.284  0.1231 -0.4567 -0.3846
    31IDT    S4 6007   4.465   4.336   4.215  0.0188  0.1837 -0.1820
    4IDB    C16 6008   4.230   4.309   4.406 -0.1347  0.1136  0.2252
    4IDB    C17 6009   4.099   4.254   4.393 -0.3505  0.6917 -0.1431
    51IDQ   C18 6010   4.087   4.195   4.252  0.1458  0.5468 -0.3282
    4IDB    C19 6011   4.010   4.256   4.499 -0.3257  0.3043 -0.1129
    51IDQ   C20 6012   4.042   4.044   4.267  0.3581  0.6965  0.3836
    51IDQ   C21 6013   3.990   4.269   4.152  0.5340  0.7355  0.3029
    51IDQ   C22 6014   3.930   4.406   4.190 -0.0126  0.1176 -0.0634
    51IDQ   C23 6015   4.120   3.921   4.207  0.1065  0.6678 -0.3295
    51IDQ   C24 6016   4.012   4.529   4.206  0.3152  0.2168  0.2828
    51IDQ   C25 6017   3.944   4.638   4.281  0.1548 -0.2059 -0.2670
    51IDQ   C26 6018   4.038   4.760   4.293  0.2863 -0.5602 -0.7632
    51IDQ   C27 6019   4.162   4.733   4.376 -0.5775  0.4301  0.0477
    51IDQ   C28 6020   4.262   4.839   4.352 -0.3242  0.2252 -0.5754
    51IDQ   C29 6021   4.403   4.808   4.405  0.2521  0.1869 -0.1097
    51IDQ   C30 6022   4.053   3.781   4.228 -0.9127 -1.0142  0.5319
    51IDQ   C31 6023   4.037   3.722   4.374  0.2685 -0.1034 -0.1841
    51IDQ   C32 6024   4.024   3.572   4.365  0.2056  0.2687  0.4520
    51IDQ   C33 6025   3.997   3.514   4.506 -0.1009  0.0799  0.1798
    51IDQ   C34 6026   3.950   3.373   4.508  0.3319  0.1859  0.2728
    51IDQ   C35 6027   3.905   3.356   4.653  0.0708  0.2879 -0.3390
    4IDB    C36 6028   4.272   4.367   4.527  0.1086 -0.8613  0.6279
    4IDB    C37 6029   4.179   4.368   4.634  0.1304 -1.2445  0.6526
    11RH    C38 6030   5.356   4.303   3.398  0.0154 -0.3722  0.2271
    4IDB    C39 6031   4.052   4.314   4.620 -0.0822 -0.6704  0.2898
    62IDT   C40 6032   3.986   4.328   4.747 -0.1510 -0.0761 -0.1493
    72IDQ   C41 6033   4.205   4.421   4.771  0.3301  0.1350 -1.4657
    62IDT   C42 6034   4.071   4.386   4.839 -0.2103  0.1117 -0.2121
    72IDQ   C43 6035   4.239   4.577   4.765  0.1383 -0.3767  0.2861
    72IDQ   C44 6036   4.328   4.342   4.846 -0.2843  0.1032  0.3932
    62IDT    S5 6037   3.828   4.283   4.821 -0.2627  0.2319 -0.1968
    62IDT   C45 6038   3.888   4.348   4.979 -0.3898  0.6172 -0.3044
    62IDT   C46 6039   4.016   4.397   4.970 -0.3453  0.5039 -0.3002
    82BTZ   C47 6040   3.815   4.328   5.110 -0.0224 -0.1449 -0.1738
    82BTZ   C48 6041   3.713   4.236   5.112  0.1982 -0.3893 -0.0902
    82BTZ   C49 6042   3.639   4.207   5.232  0.3558 -0.5566 -0.0327
    82BTZ   C50 6043   3.667   4.270   5.351  0.2924 -0.4792 -0.0589
    82BTZ   C51 6044   3.847   4.397   5.232 -0.0969 -0.0550 -0.2046
    82BTZ   C52 6045   3.772   4.367   5.354  0.0633 -0.2251 -0.1460
    92RH    C53 6046   3.596   4.234   5.476 -0.0114  0.1322  0.2280
    82BTZ    N4 6047   3.944   4.488   5.243 -0.3074  0.1792 -0.2846
    82BTZ    N5 6048   3.808   4.435   5.463 -0.0185 -0.1276 -0.1789
    82BTZ    S6 6049   3.943   4.542   5.413 -0.3097  0.1921 -0.2887
    92RH    C54 6050   3.513   4.134   5.508  0.0367  0.0589  0.1260
    92RH     S7 6051   3.454   4.001   5.397  0.1734  0.0916  0.0137
    92RH    C55 6052   3.454   4.117   5.643 -0.0156 -0.0635  0.0877
    92RH     O2 6053   3.474   4.191   5.741 -0.1081 -0.1124  0.1441
    92RH     N6 6054   3.370   4.004   5.649  0.0536 -0.1206 -0.0232
    92RH    C56 6055   3.354   3.928   5.534  0.1549 -0.0587 -0.0784
    92RH    C57 6056   3.286   3.983   5.773 -0.1671  0.0544 -0.2727
    92RH    C58 6057   3.354   3.907   5.889 -0.5277 -0.0583  0.2946
    92RH     S8 6058   3.260   3.790   5.514  0.2520 -0.1057 -0.2100
    72IDQ   C59 6059   4.362   4.199   4.813 -0.3305  0.1538  0.2961
    72IDQ   C60 6060   4.256   4.091   4.849 -0.0124  0.3005 -0.6347
    72IDQ   C61 6061   4.272   3.947   4.788 -0.1891  0.9235  0.0613
    72IDQ   C62 6062   4.261   3.941   4.640 -0.1773  0.8830  0.6077
    72IDQ   C63 6063   4.336   3.812   4.588  0.5015 -0.4224  0.1152
    72IDQ   C64 6064   4.450   3.858   4.503  0.3205 -0.0047 -0.2284
    72IDQ   C65 6065   4.539   3.746   4.456  0.3910 -0.1421  0.4284
    72IDQ   C66 6066   4.247   4.660   4.892 -0.4137  0.4795 -0.0335
    72IDQ   C67 6067   4.206   4.805   4.882 -0.6608 -0.3641  0.1097
    72IDQ   C68 6068   4.231   4.895   5.001 -0.3190 -0.3338 -0.3746
    72IDQ   C69 6069   4.153   4.856   5.117  0.0668  0.0294 -0.0243
    72IDQ   C70 6070   4.205   4.912   5.248  0.1423  0.2188  0.1337
    72IDQ   C71 6071   4.123   4.875   5.370 -0.0997 -0.3322  0.3671
    72IDQ   C72 6072   4.193   4.903   5.504 -0.1135  0.0918  0.2293
    11RH     C1 6073   0.705   3.136   4.155 -0.1433 -0.2371 -0.0371
    11RH     C2 6074   0.613   3.028   4.197 -0.1359 -0.2663 -0.0947
    11RH     N1 6075   0.799   3.089   4.060 -0.0460 -0.2166  0.0494
    11RH     S1 6076   0.655   2.872   4.110 -0.0015 -0.2649 -0.0316
    11RH     C3 6077   0.793   2.957   4.022  0.0385 -0.2258  0.0678
    11RH     C4 6078   0.909   3.180   4.012  0.2907  0.4674  0.0303
    11RH     S2 6079   0.893   2.876   3.912  0.1620 -0.2060  0.1648
    11RH     O1 6080   0.703   3.253   4.195 -0.2237 -0.2307 -0.0598
    11RH     C5 6081   0.514   3.046   4.286 -0.2169 -0.2895 -0.1797
    21BTZ    C6 6082   0.402   2.963   4.336 -0.0256  0.0676 -0.2263
    21BTZ    C7 6083   0.373   2.834   4.299 -0.0066  0.0504 -0.1804
    21BTZ    C8 6084   0.306   3.033   4.416 -0.0087  0.0614 -0.2006
    21BTZ    C9 6085   0.251   2.768   4.339  0.0297  0.0262 -0.1075
    21BTZ   C10 6086   0.157   2.832   4.415  0.0470  0.0194 -0.0806
    21BTZ   C11 6087   0.182   2.967   4.457  0.0283  0.0368 -0.1265
    21BTZ    N2 6088   0.322   3.159   4.459 -0.0244  0.0768 -0.2403
    21BTZ    N3 6089   0.098   3.039   4.531  0.0422  0.0325 -0.1065
    21BTZ    S3 6090   0.176   3.199   4.554  0.0081  0.0601 -0.1832
    31IDT   C12 6091   0.031   2.759   4.460  0.1688 -0.3958  0.1887
    31IDT   C13 6092  -0.098   2.805   4.457  0.2272 -0.2304  0.1955
    31IDT   C14 6093  -0.193   2.704   4.489  0.0809 -0.1729 -0.0548
    31IDT   C15 6094  -0.138   2.581   4.516 -0.0893 -0.2937 -0.2535
    31IDT    S4 6095   0.041   2.583   4.503 -0.0777 -0.4915 -0.1381
    4IDB    C16 6096  -0.237   2.486   4.568 -0.0952  0.1030  0.5900
    4IDB    C17 6097  -0.364   2.551   4.567 -0.2093 -0.1183  0.1245
    51IDQ   C18 6098  -0.351   2.688   4.492 -0.2260 -0.3932  0.2304
    4IDB    C19 6099  -0.476   2.489   4.622 -0.2691 -0.2464 -0.1405
    51IDQ   C20 6100  -0.423   2.696   4.350 -0.0750 -0.0358 -0.3738
    51IDQ   C21 6101  -0.412   2.817   4.565 -0.4392 -0.2441 -0.4461
    51IDQ   C22 6102  -0.483   2.825   4.703 -0.5980 -0.3531 -0.0781
    51IDQ   C23 6103  -0.347   2.733   4.221  0.2087 -0.0492  0.0584
    51IDQ   C24 6104  -0.544   2.968   4.739  0.2040 -0.1398  0.6358
    51IDQ   C25 6105  -0.459   3.093   4.708  0.0828 -0.3741 -0.4596
    51IDQ   C26 6106  -0.325   3.095   4.777 -0.3124  0.3868 -0.7192
    51IDQ   C27 6107  -0.240   3.223   4.769  0.3530 -1.0623  0.2484
    51IDQ   C28 6108  -0.211   3.277   4.631 -0.0299  0.5995  0.4396
    51IDQ   C29 6109  -0.106   3.381   4.632  0.2765  0.1382  0.6472
    51IDQ   C30 6110  -0.259   2.620   4.166 -0.0258 -0.4580  0.2324
    51IDQ   C31 6111  -0.143   2.673   4.073 -0.0899  0.5443 -0.2428
    51IDQ   C32 6112  -0.166   2.789   3.970  0.0784  0.7846  0.4198
    51IDQ   C33 6113  -0.244   2.742   3.845  0.3305 -0.2838  0.3113
    51IDQ   C34 6114  -0.316   2.842   3.748 -0.0102  0.1944  0.0508
    51IDQ   C35 6115  -0.426   2.924   3.810  0.4466 -0.1609  0.4652
    4IDB    C36 6116  -0.220   2.359   4.624 -0.0399  0.1979  0.7942
    4IDB    C37 6117  -0.336   2.297   4.679 -0.1024  0.0645  0.5181
    11RH    C38 6118   0.863   3.256   3.896 -0.1715 -0.2409 -0.1109
    4IDB    C39 6119  -0.459   2.361   4.678 -0.2138 -0.1515  0.0636
    62IDT   C40 6120  -0.550   2.278   4.749  0.6170 -0.0673  0.4392
    72IDQ   C41 6121  -0.347   2.153   4.737  0.1616  0.6025  0.0392
    62IDT   C42 6122  -0.492   2.162   4.795  0.3330 -0.0373  0.8866
    72IDQ   C43 6123  -0.249   2.152   4.860 -0.3989  0.4588 -0.4257
    72IDQ   C44 6124  -0.307   2.039   4.627  0.3855 -0.3084 -0.2271
    62IDT    S5 6125  -0.723   2.291   4.797  0.4525  0.2185 -0.1956
    62IDT   C45 6126  -0.706   2.131   4.882 -0.0140  0.3710  0.1964
    62IDT   C46 6127  -0.580   2.078   4.870 -0.0241  0.2105  0.7498
    82BTZ   C47 6128  -0.824   2.078   4.965  0.3746 -0.0811 -0.0284
    82BTZ   C48 6129  -0.942   2.145   4.953  0.4368 -0.0007 -0.2010
    82BTZ   C49 6130  -1.058   2.108   5.031  0.2825  0.0423 -0.4104
    82BTZ   C50 6131  -1.056   2.004   5.120  0.0664  0.0047 -0.4466
    82BTZ   C51 6132  -0.816   1.968   5.057  0.1501 -0.1233 -0.0582
    82BTZ   C52 6133  -0.934   1.930   5.135 -0.0067 -0.0796 -0.2710
    92RH    C53 6134  -1.172   1.959   5.195  0.0174  0.0297  0.0762
    82BTZ    N4 6135  -0.706   1.894   5.077  0.0701 -0.2015  0.0975
    82BTZ    N5 6136  -0.919   1.827   5.219 -0.2127 -0.1228 -0.2862
    82BTZ    S6 6137  -0.750   1.772   5.200 -0.2153 -0.2232 -0.0240
    92RH    C54 6138  -1.298   2.005   5.191  0.0145  0.0240  0.1023
    92RH     S7 6139  -1.365   2.132   5.077  0.0025  0.0736  0.1649
    92RH    C55 6140  -1.405   1.956   5.281  0.0209 -0.0249  0.0837
    92RH     O2 6141  -1.392   1.870   5.370  0.0294 -0.0657  0.0428
    92RH     N6 6142  -1.528   2.021   5.255  0.0160 -0.0198  0.1190
    92RH    C56 6143  -1.532   2.115   5.155  0.0064  0.0273  0.1634
    92RH    C57 6144  -1.653   1.975   5.331 -0.0760 -0.2552  0.2476
    92RH    C58 6145  -1.680   2.053   5.458 -0.1433 -0.8247 -0.2561
    92RH     S8 6146  -1.664   2.206   5.104 -0.0010  0.0434  0.2114
    72IDQ   C59 6147  -0.420   1.991   4.532 -0.0408  0.5122 -0.0055
    72IDQ   C60 6148  -0.492   2.087   4.442  0.0488  0.2540 -0.0341
    72IDQ   C61 6149  -0.638   2.056   4.404 -0.3669  0.1324 -0.2791
    72IDQ   C62 6150  -0.745   2.052   4.514  0.2207 -0.1823 -0.0480
    72IDQ   C63 6151  -0.882   2.058   4.443 -0.1349 -0.3548 -0.2893
    72IDQ   C64 6152  -1.004   2.057   4.540  0.5253 -0.4873  0.2477
    72IDQ   C65 6153  -1.143   2.063   4.469 -0.3712  0.2812  0.1943
    72IDQ   C66 6154  -0.229   2.020   4.936 -0.3329  1.2125  0.2357
    72IDQ   C67 6155  -0.143   2.044   5.061  0.1194 -0.4245 -0.2845
    72IDQ   C68 6156  -0.084   1.921   5.136  0.2467 -0.0861  0.0489
    72IDQ   C69 6157   0.005   1.829   5.042  0.7271 -0.3137  0.2196
    72IDQ   C70 6158   0.061   1.705   5.104  0.2525  0.1129 -0.0690
    72IDQ   C71 6159   0.178   1.640   5.030 -0.4024  0.7183 -0.3951
    72IDQ   C72 6160   0.256   1.516   5.098  0.4892 -0.2432  0.1340
    11RH     C1 6161   5.259   1.141   0.232 -0.1581  0.1793 -0.1520
    11RH     C2 6162   5.287   1.010   0.168 -0.0045  0.1502 -0.0273
    11RH     N1 6163   5.140   1.138   0.308 -0.2006  0.1370 -0.2205
    11RH     S1 6164   5.154   0.891   0.212  0.0742  0.0692 -0.0081
    11RH     C3 6165   5.069   1.021   0.312 -0.0998  0.0776 -0.1658
    11RH     C4 6166   5.106   1.254   0.392  0.3048 -0.5865 -0.5770
    11RH     S2 6167   4.924   0.991   0.395 -0.1223  0.0188 -0.2269
    11RH     O1 6168   5.330   1.243   0.222 -0.2414  0.2337 -0.1935
    11RH     C5 6169   5.393   0.986   0.091  0.0625  0.1802  0.0560
    21BTZ    C6 6170   5.435   0.874   0.006 -0.1661  0.1192 -0.0893
    21BTZ    C7 6171   5.365   0.757  -0.002 -0.1954  0.1335 -0.0413
    21BTZ    C8 6172   5.546   0.894  -0.083 -0.1397  0.0412 -0.0739
    21BTZ    C9 6173   5.400   0.654  -0.096 -0.1998  0.0722  0.0240
    21BTZ   C10 6174   5.505   0.668  -0.183 -0.1753 -0.0032  0.0409
    21BTZ   C11 6175   5.581   0.789  -0.179 -0.1442 -0.0211 -0.0077
    21BTZ    N2 6176   5.622   1.004  -0.086 -0.1101  0.0200 -0.1166
    21BTZ    N3 6177   5.686   0.815  -0.259 -0.1184 -0.0923  0.0030
    21BTZ    S3 6178   5.744   0.978  -0.213 -0.0865 -0.0825 -0.0727
    31IDT   C12 6179   5.537   0.556  -0.281  0.0407 -0.3017 -0.0857
    31IDT   C13 6180   5.450   0.463  -0.330  0.2737 -0.5329 -0.0658
    31IDT   C14 6181   5.508   0.377  -0.428  0.4725 -0.3736 -0.0868
    31IDT   C15 6182   5.640   0.405  -0.456  0.3930 -0.0207 -0.1230
    31IDT    S4 6183   5.702   0.543  -0.358  0.0568  0.1386 -0.1330
    4IDB    C16 6184   5.692   0.304  -0.548 -0.3028  0.1492 -0.4295
    4IDB    C17 6185   5.583   0.220  -0.584 -0.2536  0.0444 -0.3369
    51IDQ   C18 6186   5.462   0.254  -0.498 -0.2896  0.1317 -0.2981
    4IDB    C19 6187   5.599   0.118  -0.678 -0.1801 -0.0872 -0.1832
    51IDQ   C20 6188   5.334   0.277  -0.597  0.0267 -0.1285 -0.2749
    51IDQ   C21 6189   5.425   0.141  -0.395  0.0347 -0.3790  0.4568
    51IDQ   C22 6190   5.520   0.029  -0.359  0.1225  0.7662 -0.1062
    51IDQ   C23 6191   5.270   0.414  -0.612  0.3381 -0.4334 -0.0800
    51IDQ   C24 6192   5.657   0.074  -0.292  0.3760  0.1237  0.5051
    51IDQ   C25 6193   5.770  -0.027  -0.293 -0.4185  0.5310 -0.3746
    51IDQ   C26 6194   5.916   0.027  -0.281  0.3442 -0.0005 -0.0436
    51IDQ   C27 6195   5.956   0.158  -0.205 -0.0176 -0.2155  0.2392
    51IDQ   C28 6196   6.082   0.215  -0.268 -0.1061 -0.4604  0.4090
    51IDQ   C29 6197   6.142   0.325  -0.193 -0.2139 -0.1200 -0.4514
    51IDQ   C30 6198   5.145   0.440  -0.709  0.1625  0.2728  0.0915
    51IDQ   C31 6199   5.034   0.337  -0.710  0.9400 -0.5089 -0.2900
    51IDQ   C32 6200   4.910   0.391  -0.788  0.3068 -0.0140 -0.4475
    51IDQ   C33 6201   4.796   0.293  -0.797  0.1871 -0.3322 -0.0571
    51IDQ   C34 6202   4.662   0.369  -0.799 -0.0332  0.2950 -0.9185
    51IDQ   C35 6203   4.542   0.293  -0.836 -0.3478 -0.4964  0.4092
    4IDB    C36 6204   5.819   0.287  -0.605 -0.2787  0.1229 -0.3685
    4IDB    C37 6205   5.834   0.183  -0.701 -0.2035 -0.0122 -0.2111
    11RH    C38 6206   5.004   1.349   0.340 -0.1282  0.4701  0.1526
    4IDB    C39 6207   5.726   0.101  -0.736 -0.1560 -0.1136 -0.1220
    62IDT   C40 6208   5.774   0.011  -0.835  0.0030  0.1351  0.0453
    72IDQ   C41 6209   5.963   0.141  -0.771  0.3271  0.2453 -0.3276
    62IDT   C42 6210   5.910   0.020  -0.857  0.0225 -0.0057  0.1072
    72IDQ   C43 6211   6.073   0.096  -0.669  0.4362 -0.0805  0.0804
    72IDQ   C44 6212   5.997   0.244  -0.878 -0.3082 -0.4815  0.6088
    62IDT    S5 6213   5.703  -0.135  -0.912 -0.1656  0.3640 -0.2391
    62IDT   C45 6214   5.869  -0.179  -0.972 -0.2028  0.2517 -0.2600
    62IDT   C46 6215   5.963  -0.087  -0.935 -0.0937  0.0600 -0.0653
    82BTZ   C47 6216   5.884  -0.306  -1.046 -0.0302 -0.1447  0.4507
    82BTZ   C48 6217   5.770  -0.381  -1.063 -0.0541 -0.1280  0.5406
    82BTZ   C49 6218   5.768  -0.499  -1.144 -0.1762 -0.0354  0.4076
    82BTZ   C50 6219   5.880  -0.544  -1.209 -0.2743  0.0407  0.1847
    82BTZ   C51 6220   6.004  -0.349  -1.112 -0.1299 -0.0672  0.2182
    82BTZ   C52 6221   6.002  -0.470  -1.195 -0.2539  0.0271  0.0829
    92RH    C53 6222   5.882  -0.676  -1.274 -0.0688 -0.0011 -0.2653
    82BTZ    N4 6223   6.121  -0.285  -1.104 -0.1181 -0.0745  0.1115
    82BTZ    N5 6224   6.117  -0.503  -1.254 -0.3420  0.0954 -0.1326
    82BTZ    S6 6225   6.236  -0.379  -1.204 -0.2684  0.0413 -0.1723
    92RH    C54 6226   5.787  -0.767  -1.301 -0.0964  0.0088 -0.2007
    92RH     S7 6227   5.607  -0.751  -1.269 -0.0463 -0.0574  0.1206
    92RH    C55 6228   5.816  -0.899  -1.362 -0.1748  0.0780 -0.3871
    92RH     O2 6229   5.928  -0.940  -1.396 -0.2232  0.1338 -0.6202
    92RH     N6 6230   5.698  -0.975  -1.378 -0.1889  0.0733 -0.2667
    92RH    C56 6231   5.578  -0.919  -1.338 -0.1314  0.0091 -0.0069
    92RH    C57 6232   5.703  -1.103  -1.452  0.6527 -0.7570  0.1564
    92RH    C58 6233   5.690  -1.083  -1.602 -0.3054 -0.2688  0.2078
    92RH     S8 6234   5.425  -0.988  -1.346 -0.1332 -0.0105  0.1812
    72IDQ   C59 6235   6.046   0.388  -0.842 -0.4564  0.2869 -0.2366
    72IDQ   C60 6236   6.045   0.485  -0.956 -0.1522 -0.5281  0.0721
    72IDQ   C61 6237   6.105   0.623  -0.916 -0.1167 -0.1656 -0.6709
    72IDQ   C62 6238   6.134   0.707  -1.036 -0.4066  0.4709 -0.6325
    72IDQ   C63 6239   6.204   0.829  -0.989  0.5041 -0.0873 -0.2825
    72IDQ   C64 6240   6.231   0.924  -1.101  0.4811  0.2872 -0.0454
    72IDQ   C65 6241   6.335   1.021  -1.060 -0.2937  0.1431 -0.1339
    72IDQ   C66 6242   6.209   0.056  -0.721 -0.7865 -0.7697 -0.5209
    72IDQ   C67 6243   6.309  -0.019  -0.618  0.2130 -0.2758 -0.4825
    72IDQ   C68 6244   6.324   0.040  -0.476  0.0277 -0.2777 -0.5418
    72IDQ   C69 6245   6.433  -0.026  -0.392 -0.2149  0.3512  0.2756
    72IDQ   C70 6246   6.578   0.016  -0.413 -0.4483  0.3324 -0.5579
    72IDQ   C71 6247   6.674  -0.048  -0.307 -0.2133  0.3164 -0.0550
    72IDQ   C72 6248   6.816   0.003  -0.324  0.0131  0.1736 -0.3075
    11RH     C1 6249   3.739   0.902   1.283  0.2458 -0.3513 -0.0791
    11RH     C2 6250   3.815   1.029   1.285  0.1012 -0.2658  0.0370
    11RH     N1 6251   3.798   0.804   1.365  0.3550 -0.3573 -0.1652
    11RH     S1 6252   3.961   1.011   1.396  0.1183 -0.1987  0.0254
    11RH     C3 6253   3.913   0.836   1.433  0.3157 -0.2869 -0.1324
    11RH     C4 6254   3.752   0.662   1.363 -0.1551 -0.1307  0.1718
    11RH     S2 6255   4.004   0.739   1.537  0.4240 -0.2773 -0.2173
    11RH     O1 6256   3.635   0.881   1.218  0.2708 -0.4114 -0.1005
    11RH     C5 6257   3.780   1.137   1.216 -0.0208 -0.2434  0.1336
    21BTZ    C6 6258   3.833   1.272   1.205 -0.0500  0.2248 -0.1332
    21BTZ    C7 6259   3.949   1.307   1.271 -0.1197  0.1923  0.0082
    21BTZ    C8 6260   3.770   1.370   1.121  0.0156  0.2821 -0.1166
    21BTZ    C9 6261   4.007   1.438   1.257 -0.1285  0.2141  0.1720
    21BTZ   C10 6262   3.950   1.534   1.177 -0.0675  0.2685  0.1941
    21BTZ   C11 6263   3.829   1.503   1.107  0.0066  0.3043  0.0498
    21BTZ    N2 6264   3.657   1.348   1.053  0.0865  0.3179 -0.2448
    21BTZ    N3 6265   3.765   1.588   1.027  0.0703  0.3579  0.0554
    21BTZ    S3 6266   3.622   1.500   0.965  0.1460  0.3829 -0.1564
    31IDT   C12 6267   4.014   1.666   1.169  0.1709 -0.5096  0.0209
    31IDT   C13 6268   3.989   1.771   1.085 -0.3097 -0.5975  0.0487
    31IDT   C14 6269   4.082   1.879   1.102 -0.6167 -0.3021 -0.1294
    31IDT   C15 6270   4.177   1.856   1.199 -0.3729  0.0121 -0.2937
    31IDT    S4 6271   4.158   1.695   1.276  0.2705 -0.0421 -0.2352
    4IDB    C16 6272   4.269   1.968   1.204 -0.2158  0.0804 -0.3909
    4IDB    C17 6273   4.229   2.068   1.111 -0.0132  0.0817 -0.4791
    51IDQ   C18 6274   4.107   2.017   1.036  0.3753  0.2228 -0.3619
    4IDB    C19 6275   4.297   2.188   1.101  0.0880  0.0291 -0.4198
    51IDQ   C20 6276   3.992   2.131   1.059  0.4026  0.4679  0.2150
    51IDQ   C21 6277   4.115   1.997   0.882 -0.4507  0.0120 -0.4020
    51IDQ   C22 6278   4.237   2.048   0.802 -0.8033  0.5208  0.1413
    51IDQ   C23 6279   3.860   2.112   1.130  0.5136 -0.0455  0.2603
    51IDQ   C24 6280   4.363   1.955   0.809 -0.2029  0.2157  0.6702
    51IDQ   C25 6281   4.473   2.003   0.713 -0.1277  0.0816 -0.4997
    51IDQ   C26 6282   4.611   1.929   0.702  0.4313  0.1568 -0.5245
    51IDQ   C27 6283   4.609   1.774   0.713  0.3237  0.7453 -0.1367
    51IDQ   C28 6284   4.745   1.726   0.681 -0.5879  0.5652 -0.1501
    51IDQ   C29 6285   4.744   1.578   0.643 -0.7022 -0.2360 -0.1173
    51IDQ   C30 6286   3.781   2.243   1.147  0.1511  0.8180  0.6405
    51IDQ   C31 6287   3.644   2.234   1.202  0.2048 -0.1004 -0.7177
    51IDQ   C32 6288   3.627   2.184   1.348  0.0802 -0.3856 -0.1235
    51IDQ   C33 6289   3.488   2.200   1.399 -0.2994 -0.2439 -0.3733
    51IDQ   C34 6290   3.476   2.143   1.539 -0.1512 -0.0547  0.2147
    51IDQ   C35 6291   3.349   2.204   1.596 -0.1817 -0.2731  0.7777
    4IDB    C36 6292   4.380   1.987   1.288 -0.3191  0.0261 -0.2420
    4IDB    C37 6293   4.449   2.111   1.277 -0.2133 -0.0272 -0.1833
    11RH    C38 6294   3.669   0.612   1.477  0.0245  0.9305 -0.0922
    4IDB    C39 6295   4.408   2.208   1.185 -0.0152 -0.0253 -0.2709
    62IDT   C40 6296   4.498   2.319   1.198  0.0576 -0.0353  0.1566
    72IDQ   C41 6297   4.570   2.166   1.360 -0.4592  0.2228 -0.0531
    62IDT   C42 6298   4.593   2.303   1.297 -0.0093  0.1175  0.2458
    72IDQ   C43 6299   4.701   2.077   1.370 -0.4225 -0.1919  0.9904
    72IDQ   C44 6300   4.542   2.204   1.508  0.4534  0.7170 -0.1247
    62IDT    S5 6301   4.516   2.475   1.111  0.1815 -0.2163 -0.1456
    62IDT   C45 6302   4.658   2.513   1.218  0.1341 -0.0686 -0.1350
    62IDT   C46 6303   4.684   2.413   1.308  0.0336  0.0989  0.0811
    82BTZ   C47 6304   4.732   2.641   1.199 -0.1083  0.1004  0.3183
    82BTZ   C48 6305   4.673   2.737   1.121 -0.1334  0.0688  0.2986
    82BTZ   C49 6306   4.739   2.861   1.091 -0.0485 -0.0376  0.0397
    82BTZ   C50 6307   4.864   2.890   1.139  0.0615 -0.1122 -0.1990
    82BTZ   C51 6308   4.863   2.666   1.252  0.0056  0.0250  0.0741
    82BTZ   C52 6309   4.930   2.793   1.221  0.0919 -0.0831 -0.1890
    92RH    C53 6310   4.930   3.012   1.101 -0.0112 -0.0498  0.1867
    82BTZ    N4 6311   4.930   2.581   1.329  0.0404  0.0464  0.0672
    82BTZ    N5 6312   5.052   2.809   1.273  0.1961 -0.1487 -0.4074
    82BTZ    S6 6313   5.086   2.660   1.366  0.1881 -0.0735 -0.2833
    92RH    C54 6314   4.903   3.118   1.023 -0.0048 -0.0777  0.1469
    92RH     S7 6315   4.767   3.132   0.901 -0.2354  0.0304  0.4167
    92RH    C55 6316   4.984   3.242   1.023  0.1975 -0.2052 -0.1320
    92RH     O2 6317   5.083   3.264   1.094  0.3814 -0.2994 -0.3575
    92RH     N6 6318   4.934   3.336   0.931  0.1571 -0.2078 -0.1125
    92RH    C56 6319   4.823   3.303   0.857 -0.0533 -0.0979  0.1480
    92RH    C57 6320   4.983   3.472   0.927  0.0599 -0.9596  0.2344
    92RH    C58 6321   5.118   3.505   0.853 -0.4963 -0.8363 -0.4903
    92RH     S8 6322   4.743   3.396   0.741 -0.1446 -0.0758  0.2279
    72IDQ   C59 6323   4.480   2.097   1.599  0.5172  0.1296  0.5602
    72IDQ   C60 6324   4.495   2.125   1.747  0.3715  0.3053  0.2255
    72IDQ   C61 6325   4.395   2.067   1.843  0.0567 -0.1374  0.0779
    72IDQ   C62 6326   4.339   1.924   1.821 -0.0642  0.3299  0.2391
    72IDQ   C63 6327   4.231   1.874   1.916  0.5238 -0.1489 -0.0903
    72IDQ   C64 6328   4.217   1.721   1.905 -0.3789 -0.9103  0.1753
    72IDQ   C65 6329   4.113   1.684   2.007  0.3920  0.0200  0.9313
    72IDQ   C66 6330   4.751   2.003   1.249 -0.0032  0.6428 -0.3966
    72IDQ   C67 6331   4.776   2.073   1.116  0.2663  0.2478 -0.6254
    72IDQ   C68 6332   4.840   1.985   1.006 -0.0050 -0.2200  0.8814
    72IDQ   C69 6333   4.985   1.945   1.005  0.0131  0.6193  0.2607
    72IDQ   C70 6334   5.036   1.842   1.110 -0.2244 -0.2721 -0.0566
    72IDQ   C71 6335   4.952   1.712   1.140 -0.7749 -1.0511  0.4127
    72IDQ   C72 6336   5.012   1.617   1.248 -0.4272  0.1165  0.2647
    11RH     C1 6337   6.571   4.953   4.681  0.1534 -0.4393 -0.2897
    11RH     C2 6338   6.516   5.028   4.566  0.2313 -0.3238 -0.2524
    11RH     N1 6339   6.528   4.819   4.681 -0.1231 -0.3533 -0.2651
    11RH     S1 6340   6.412   4.916   4.464 -0.0641 -0.1093 -0.1875
    11RH     C3 6341   6.446   4.776   4.579 -0.2763 -0.1830 -0.2128
    11RH     C4 6342   6.588   4.714   4.775 -0.3179 -0.2249  0.1283
    11RH     S2 6343   6.381   4.622   4.555 -0.6078 -0.0517 -0.1748
    11RH     O1 6344   6.645   5.000   4.769  0.3073 -0.5929 -0.3365
    11RH     C5 6345   6.541   5.157   4.543  0.4818 -0.3736 -0.2654
    21BTZ    C6 6346   6.494   5.259   4.446 -0.0526 -0.0704  0.3632
    21BTZ    C7 6347   6.390   5.227   4.363 -0.0726 -0.1271  0.4103
    21BTZ    C8 6348   6.570   5.377   4.418 -0.0327 -0.1131  0.2394
    21BTZ    C9 6349   6.356   5.308   4.249 -0.0739 -0.2279  0.3388
    21BTZ   C10 6350   6.426   5.422   4.218 -0.0552 -0.2719  0.2201
    21BTZ   C11 6351   6.536   5.460   4.302 -0.0339 -0.2155  0.1667
    21BTZ    N2 6352   6.674   5.419   4.491 -0.0120 -0.0653  0.1833
    21BTZ    N3 6353   6.612   5.568   4.282 -0.0143 -0.2500  0.0521
    21BTZ    S3 6354   6.733   5.569   4.413  0.0069 -0.1511  0.0321
    31IDT   C12 6355   6.367   5.511   4.116 -0.1760 -0.1470  0.2492
    31IDT   C13 6356   6.426   5.622   4.063 -0.4187  0.2260  0.7412
    31IDT   C14 6357   6.345   5.686   3.963 -0.4729  0.3786  0.8813
    31IDT   C15 6358   6.224   5.623   3.941 -0.2725  0.1233  0.4981
    31IDT    S4 6359   6.203   5.478   4.044  0.0033 -0.3343 -0.0752
    4IDB    C16 6360   6.146   5.706   3.852  0.4708 -0.2766 -0.1365
    4IDB    C17 6361   6.222   5.816   3.803  0.2015 -0.1547 -0.2890
    51IDQ   C18 6362   6.362   5.813   3.873  0.0140 -0.2772 -0.8167
    4IDB    C19 6363   6.162   5.918   3.730 -0.1058 -0.2440 -0.1651
    51IDQ   C20 6364   6.474   5.802   3.767 -0.0193  0.1716 -0.3030
    51IDQ   C21 6365   6.397   5.932   3.970  0.5577 -0.0614 -0.4849
    51IDQ   C22 6366   6.297   6.037   4.026 -0.5524 -0.0851 -0.4392
    51IDQ   C23 6367   6.541   5.665   3.739 -0.2536 -0.4316  0.4767
    51IDQ   C24 6368   6.178   6.000   4.109  0.3236  0.1827 -0.1977
    51IDQ   C25 6369   6.196   5.900   4.228 -0.1094 -1.1981 -0.0075
    51IDQ   C26 6370   6.082   5.836   4.301  0.1572  0.1124  0.1285
    51IDQ   C27 6371   5.983   5.767   4.212  0.5930 -0.1084 -0.5145
    51IDQ   C28 6372   5.901   5.667   4.283  0.5338 -0.0425  0.0806
    51IDQ   C29 6373   5.776   5.649   4.195 -0.2719  0.2785 -0.0656
    51IDQ   C30 6374   6.460   5.566   3.659 -0.0285 -0.1017 -0.0174
    51IDQ   C31 6375   6.426   5.599   3.515 -0.1352 -0.3612 -0.1129
    51IDQ   C32 6376   6.355   5.489   3.435 -0.4145 -0.0604 -0.2134
    51IDQ   C33 6377   6.432   5.358   3.399  0.4550 -0.0590  0.4069
    51IDQ   C34 6378   6.539   5.360   3.289 -0.1064 -0.6295 -0.2128
    51IDQ   C35 6379   6.599   5.225   3.259 -0.2632 -0.5363 -0.0993
    4IDB    C36 6380   6.008   5.698   3.828  0.4336 -0.4900  0.1431
    4IDB    C37 6381   5.948   5.803   3.753  0.1175 -0.5788  0.2664
    11RH    C38 6382   6.535   4.689   4.914 -0.3088 -0.3874  0.2618
    4IDB    C39 6383   6.025   5.910   3.706 -0.1431 -0.4574  0.1144
    62IDT   C40 6384   5.937   6.006   3.633 -0.2363 -0.0629 -0.5100
    72IDQ   C41 6385   5.804   5.824   3.706 -0.0614 -0.2862 -0.7880
    62IDT   C42 6386   5.807   5.961   3.632 -0.1838 -0.2164 -0.6927
    72IDQ   C43 6387   5.707   5.832   3.830  0.3004  0.2201 -0.2219
    72IDQ   C44 6388   5.767   5.701   3.611  0.1294 -0.7368  0.2875
    62IDT    S5 6389   5.955   6.165   3.551 -0.3990  0.2225  0.0046
    62IDT   C45 6390   5.776   6.163   3.519 -0.3866  0.1140 -0.0572
    62IDT   C46 6391   5.715   6.050   3.568 -0.2688 -0.1166 -0.4369
    82BTZ   C47 6392   5.723   6.270   3.429  0.2598 -0.0190 -0.1932
    82BTZ   C48 6393   5.809   6.337   3.345  0.2173  0.1585 -0.0974
    82BTZ   C49 6394   5.763   6.437   3.252  0.1341  0.1642 -0.0499
    82BTZ   C50 6395   5.630   6.470   3.243  0.0933 -0.0075 -0.0983
    82BTZ   C51 6396   5.583   6.302   3.423  0.2198 -0.2029 -0.2471
    82BTZ   C52 6397   5.536   6.404   3.328  0.1352 -0.1971 -0.1987
    92RH    C53 6398   5.587   6.569   3.146  0.2074 -0.1590  0.2345
    82BTZ    N4 6399   5.490   6.245   3.499  0.2549 -0.3850 -0.3406
    82BTZ    N5 6400   5.405   6.428   3.328  0.1022 -0.3746 -0.2535
    82BTZ    S6 6401   5.334   6.319   3.452  0.1795 -0.5603 -0.3716
    92RH    C54 6402   5.648   6.637   3.049  0.0011 -0.0228  0.1985
    92RH     S7 6403   5.826   6.631   3.006  0.0142  0.4626  0.1739
    92RH    C55 6404   5.578   6.731   2.958 -0.2786 -0.2540  0.1726
    92RH     O2 6405   5.456   6.758   2.961 -0.3541 -0.5940  0.1807
    92RH     N6 6406   5.667   6.789   2.865 -0.4549 -0.0387  0.1364
    92RH    C56 6407   5.800   6.753   2.870 -0.3507  0.3369  0.1304
    92RH    C57 6408   5.611   6.867   2.758 -0.1916 -0.4735  0.7604
    92RH    C58 6409   5.581   7.009   2.789  0.5861 -0.2597  0.0913
    92RH     S8 6410   5.925   6.807   2.772 -0.5164  0.6528  0.0902
    72IDQ   C59 6411   5.829   5.703   3.463  0.6705  0.1209  0.3655
    72IDQ   C60 6412   5.797   5.566   3.394  0.3713 -0.2876  0.4786
    72IDQ   C61 6413   5.897   5.536   3.279  0.3788  0.2657 -0.4505
    72IDQ   C62 6414   5.883   5.403   3.207  0.4247 -0.1457 -0.1791
    72IDQ   C63 6415   5.770   5.387   3.110  0.2245  0.0023  0.4724
    72IDQ   C64 6416   5.783   5.261   3.025 -0.1498 -0.2446 -0.3736
    72IDQ   C65 6417   5.689   5.248   2.912 -0.5951 -0.3926 -0.4295
    72IDQ   C66 6418   5.723   5.946   3.930 -0.0352 -0.0062  0.0800
    72IDQ   C67 6419   5.611   5.940   4.032 -0.8622 -0.2894  0.2734
    72IDQ   C68 6420   5.608   6.046   4.139 -0.0920  0.3806 -0.0155
    72IDQ   C69 6421   5.715   6.051   4.247  0.2748 -0.0018  0.1108
    72IDQ   C70 6422   5.737   6.173   4.334 -0.4424  0.4209 -0.1837
    72IDQ   C71 6423   5.791   6.293   4.252  0.3375  0.0202 -0.1161
    72IDQ   C72 6424   5.787   6.419   4.338 -0.1214  0.0143  0.3600
    11RH     C1 6425   0.066   2.561   1.036  0.0829 -0.1040 -0.0949
    11RH     C2 6426  -0.020   2.673   1.081  0.0616 -0.1642  0.0141
    11RH     N1 6427  -0.008   2.465   0.964  0.0979 -0.0562 -0.1746
    11RH     S1 6428  -0.193   2.644   1.026  0.0629 -0.1541  0.0047
    11RH     C3 6429  -0.143   2.486   0.946  0.0916 -0.0708 -0.1427
    11RH     C4 6430   0.055   2.341   0.917  0.3397  0.3207  0.5802
    11RH     S2 6431  -0.253   2.387   0.864  0.1063 -0.0229 -0.2210
    11RH     O1 6432   0.188   2.550   1.057  0.0873 -0.0952 -0.1160
    11RH     C5 6433   0.025   2.777   1.151  0.0445 -0.2169  0.1037
    21BTZ    C6 6434  -0.040   2.891   1.218  0.0566  0.1208  0.0348
    21BTZ    C7 6435  -0.176   2.905   1.229  0.0697  0.2875 -0.0183
    21BTZ    C8 6436   0.045   2.989   1.279  0.1510  0.0941 -0.0532
    21BTZ    C9 6437  -0.235   3.016   1.300  0.1757  0.4353 -0.1598
    21BTZ   C10 6438  -0.158   3.112   1.360  0.2683  0.4162 -0.2478
    21BTZ   C11 6439  -0.015   3.101   1.351  0.2589  0.2443 -0.1970
    21BTZ    N2 6440   0.178   2.985   1.275  0.1487 -0.0619 -0.0134
    21BTZ    N3 6441   0.070   3.189   1.405  0.3431  0.2090 -0.2727
    21BTZ    S3 6442   0.234   3.129   1.365  0.2871 -0.0225 -0.1611
    31IDT   C12 6443  -0.220   3.231   1.421 -0.0108 -0.1132 -0.5316
    31IDT   C13 6444  -0.171   3.314   1.519  0.1915 -0.3009 -0.4752
    31IDT   C14 6445  -0.261   3.418   1.555  0.3482 -0.2483 -0.2309
    31IDT   C15 6446  -0.380   3.416   1.486  0.2667 -0.0206 -0.0998
    31IDT    S4 6447  -0.387   3.281   1.368 -0.0174  0.1463 -0.2772
    4IDB    C16 6448  -0.465   3.523   1.529 -0.1945  0.1311 -0.0442
    4IDB    C17 6449  -0.407   3.591   1.641 -0.2942 -0.3552  0.3096
    51IDQ   C18 6450  -0.272   3.522   1.676  0.6000  0.2078  0.7683
    4IDB    C19 6451  -0.469   3.702   1.696 -0.0814 -0.2875  0.4120
    51IDQ   C20 6452  -0.162   3.639   1.673 -0.0531 -0.0667  0.0328
    51IDQ   C21 6453  -0.256   3.458   1.816  0.1376 -0.3122  0.7015
    51IDQ   C22 6454  -0.364   3.443   1.921  0.3413 -0.0643  0.8957
    51IDQ   C23 6455  -0.080   3.658   1.549  0.3516 -0.0344  0.6686
    51IDQ   C24 6456  -0.489   3.369   1.877 -0.0159  0.0470 -0.0282
    51IDQ   C25 6457  -0.593   3.416   1.980 -0.0154  0.3274  0.3583
    51IDQ   C26 6458  -0.735   3.387   1.930  0.3732  0.2672  0.0898
    51IDQ   C27 6459  -0.844   3.430   2.030  0.0734 -0.1133  0.4633
    51IDQ   C28 6460  -0.986   3.407   1.977 -0.9252 -0.5738  0.1419
    51IDQ   C29 6461  -1.089   3.453   2.075  0.6337 -0.0340 -0.0577
    51IDQ   C30 6462   0.031   3.755   1.556 -0.2305 -0.4412 -0.0050
    51IDQ   C31 6463   0.017   3.904   1.592  0.2531  0.0602  0.0723
    51IDQ   C32 6464   0.002   4.011   1.481  0.7788 -0.2945 -0.0468
    51IDQ   C33 6465   0.119   4.011   1.383 -0.0350 -0.0066  0.1542
    51IDQ   C34 6466   0.112   4.124   1.285  0.3465 -0.6093  0.2907
    51IDQ   C35 6467  -0.002   4.143   1.188  0.7059  0.0850  0.5232
    4IDB    C36 6468  -0.586   3.567   1.472  0.1205  0.6912 -0.2992
    4IDB    C37 6469  -0.648   3.681   1.531  0.3346  0.7520 -0.1897
    11RH    C38 6470   0.123   2.363   0.781  0.1886  0.1167  0.1404
    4IDB    C39 6471  -0.590   3.746   1.640  0.2337  0.2725  0.1571
    62IDT   C40 6472  -0.673   3.852   1.677 -0.8540 -0.6131 -0.0573
    72IDQ   C41 6473  -0.778   3.755   1.485 -0.9762  0.2070 -0.0496
    62IDT   C42 6474  -0.785   3.859   1.597 -0.8534 -0.3359 -0.0333
    72IDQ   C43 6475  -0.906   3.670   1.493  0.1623  0.3242 -0.7934
    72IDQ   C44 6476  -0.764   3.825   1.342 -0.8910  0.5535  0.9641
    62IDT    S5 6477  -0.677   3.973   1.810 -0.2392 -0.1914 -0.4168
    62IDT   C45 6478  -0.837   4.031   1.746 -0.0023  0.3647 -0.5208
    62IDT   C46 6479  -0.878   3.961   1.636 -0.3718  0.2173 -0.2953
    82BTZ   C47 6480  -0.920   4.119   1.833  0.0080 -0.1786  0.0971
    82BTZ   C48 6481  -0.861   4.160   1.949  0.0124 -0.0817  0.0608
    82BTZ   C49 6482  -0.930   4.248   2.042  0.0505  0.0685 -0.0520
    82BTZ   C50 6483  -1.056   4.294   2.018  0.0842  0.1213 -0.1281
    82BTZ   C51 6484  -1.053   4.164   1.803  0.0424 -0.1284  0.0204
    82BTZ   C52 6485  -1.122   4.253   1.897  0.0811  0.0242 -0.0942
    92RH    C53 6486  -1.130   4.381   2.117  0.0987 -0.0182  0.2192
    82BTZ    N4 6487  -1.121   4.131   1.693  0.0418 -0.2122  0.0459
    82BTZ    N5 6488  -1.245   4.291   1.862  0.1116  0.0631 -0.1607
    82BTZ    S6 6489  -1.279   4.214   1.705  0.0918 -0.0973 -0.0781
    92RH    C54 6490  -1.094   4.427   2.237  0.0967 -0.1132  0.2559
    92RH     S7 6491  -0.937   4.390   2.325  0.0373 -0.2918  0.2889
    92RH    C55 6492  -1.178   4.517   2.320  0.1442 -0.0871  0.2759
    92RH     O2 6493  -1.290   4.560   2.288  0.1904  0.0236  0.2615
    92RH     N6 6494  -1.115   4.549   2.442  0.1307 -0.2053  0.3144
    92RH    C56 6495  -0.990   4.496   2.467  0.0781 -0.3231  0.3276
    92RH    C57 6496  -1.165   4.657   2.523 -0.7330 -0.1946 -0.1583
    92RH    C58 6497  -1.282   4.613   2.617  0.3381 -0.1648 -0.4555
    92RH     S8 6498  -0.894   4.518   2.604  0.0514 -0.4766  0.3719
    72IDQ   C59 6499  -0.699   3.753   1.225  0.0206  0.2766 -0.4817
    72IDQ   C60 6500  -0.715   3.828   1.100  0.3770  0.2439  0.1209
    72IDQ   C61 6501  -0.647   3.764   0.976 -0.4134  0.2700 -0.3026
    72IDQ   C62 6502  -0.653   3.835   0.845  0.2355 -0.7650  0.2030
    72IDQ   C63 6503  -0.577   3.765   0.731 -0.0560 -0.5591 -0.1015
    72IDQ   C64 6504  -0.577   3.831   0.590 -0.1950 -0.4710 -0.0253
    72IDQ   C65 6505  -0.713   3.842   0.522 -0.3292  0.1502 -0.2408
    72IDQ   C66 6506  -0.912   3.547   1.600  0.1939 -0.0721  0.5769
    72IDQ   C67 6507  -1.041   3.468   1.615  0.0661  0.9143  0.3270
    72IDQ   C68 6508  -1.095   3.395   1.478 -0.1308 -0.7991 -0.4506
    72IDQ   C69 6509  -1.089   3.249   1.469  0.4699  0.6293  0.8678
    72IDQ   C70 6510  -1.206   3.197   1.376 -0.2179 -0.4290  0.0628
    72IDQ   C71 6511  -1.205   3.047   1.353 -0.5437 -0.1800 -0.2667
    72IDQ   C72 6512  -1.331   3.022   1.267 -0.2772  0.0128 -0.3204
    11RH     C1 6513   5.662   0.877   3.897  0.1029  0.2042 -0.0524
    11RH     C2 6514   5.783   0.855   3.981  0.1142  0.0769 -0.1014
    11RH     N1 6515   5.560   0.942   3.969  0.1971  0.3018 -0.0073
    11RH     S1 6516   5.754   0.922   4.149  0.2478  0.0937 -0.0851
    11RH     C3 6517   5.584   0.975   4.101  0.2824  0.2682 -0.0142
    11RH     C4 6518   5.446   0.994   3.899 -0.3967  0.2425 -0.2887
    11RH     S2 6519   5.480   1.053   4.208  0.4029  0.3653  0.0325
    11RH     O1 6520   5.650   0.843   3.778  0.0222  0.2254 -0.0501
    11RH     C5 6521   5.894   0.795   3.937  0.0364 -0.0317 -0.1495
    21BTZ    C6 6522   6.027   0.797   3.984  0.0885  0.0754 -0.2975
    21BTZ    C7 6523   6.065   0.877   4.088  0.1491  0.0507 -0.3008
    21BTZ    C8 6524   6.124   0.711   3.923 -0.0143 -0.1246 -0.1827
    21BTZ    C9 6525   6.201   0.878   4.137  0.1119 -0.1704 -0.1923
    21BTZ   C10 6526   6.298   0.798   4.082  0.0144 -0.3663 -0.0806
    21BTZ   C11 6527   6.262   0.712   3.973 -0.0521 -0.3493 -0.0723
    21BTZ    N2 6528   6.099   0.628   3.822 -0.0805 -0.1224 -0.1679
    21BTZ    N3 6529   6.347   0.629   3.911 -0.1485 -0.5277  0.0313
    21BTZ    S3 6530   6.253   0.546   3.785 -0.1963 -0.4135 -0.0089
    31IDT   C12 6531   6.436   0.821   4.123 -0.3983 -0.1103  0.2203
    31IDT   C13 6532   6.536   0.729   4.124 -0.5316 -0.2569  0.1433
    31IDT   C14 6533   6.654   0.776   4.190 -0.3860 -0.4001 -0.0139
    31IDT   C15 6534   6.644   0.904   4.238 -0.1418 -0.3637 -0.0577
    31IDT    S4 6535   6.483   0.977   4.205 -0.0762 -0.1432  0.0981
    4IDB    C16 6536   6.780   0.940   4.286  0.0120  0.2146 -0.2846
    4IDB    C17 6537   6.864   0.825   4.272  0.0342  0.2552 -0.4971
    51IDQ   C18 6538   6.783   0.702   4.235 -0.0272 -0.6565 -0.3360
    4IDB    C19 6539   7.001   0.834   4.293 -0.0168  0.1657 -0.0955
    51IDQ   C20 6540   6.869   0.630   4.123 -0.9286 -0.0355  0.5176
    51IDQ   C21 6541   6.749   0.589   4.339 -0.1453 -0.5623  1.0180
    51IDQ   C22 6542   6.766   0.603   4.491 -0.3768 -0.1244  0.8936
    51IDQ   C23 6543   6.815   0.626   3.980 -0.4094 -0.5334  0.2184
    51IDQ   C24 6544   6.726   0.466   4.550  0.2669 -0.7984 -0.1571
    51IDQ   C25 6545   6.761   0.462   4.700 -0.4107  0.1362 -0.2940
    51IDQ   C26 6546   6.738   0.332   4.778  0.4638  0.3019  0.0490
    51IDQ   C27 6547   6.765   0.331   4.928 -1.0092  0.9191 -0.0842
    51IDQ   C28 6548   6.738   0.191   4.972 -0.6719 -0.3288 -0.1769
    51IDQ   C29 6549   6.794   0.159   5.113 -0.0255  0.2795  0.1094
    51IDQ   C30 6550   6.901   0.577   3.866  0.7271 -0.1644  0.6190
    51IDQ   C31 6551   6.833   0.570   3.726  0.5667 -0.2340  0.1342
    51IDQ   C32 6552   6.908   0.479   3.626 -0.1070  0.1092 -0.1385
    51IDQ   C33 6553   6.910   0.337   3.671 -0.7982 -0.3844  0.7845
    51IDQ   C34 6554   7.004   0.247   3.592 -0.6099 -0.0308 -0.2652
    51IDQ   C35 6555   7.002   0.102   3.634  0.3143  1.0118 -0.5942
    4IDB    C36 6556   6.833   1.065   4.320 -0.0618  0.0834  0.3349
    4IDB    C37 6557   6.974   1.072   4.340 -0.1131 -0.0068  0.7384
    11RH    C38 6558   5.326   0.897   3.907 -0.2023 -0.8578  0.2525
    4IDB    C39 6559   7.054   0.959   4.327 -0.0906  0.0344  0.5238
    62IDT   C40 6560   7.192   0.991   4.358  0.2137  0.2548  0.2706
    72IDQ   C41 6561   7.063   1.189   4.384  0.5428 -0.5903 -0.1430
    62IDT   C42 6562   7.198   1.123   4.398  0.4112  0.2863  0.1367
    72IDQ   C43 6563   7.019   1.235   4.523 -0.0775 -0.4940  0.1889
    72IDQ   C44 6564   7.077   1.321   4.286 -0.2115 -0.4528  0.5294
    62IDT    S5 6565   7.353   0.911   4.365  0.1149  0.0525  0.2424
    62IDT   C45 6566   7.423   1.068   4.424  0.3576  0.0195  0.0413
    62IDT   C46 6567   7.329   1.167   4.435  0.4928  0.1533  0.0068
    82BTZ   C47 6568   7.569   1.071   4.450 -0.2239 -0.1493  0.3817
    82BTZ   C48 6569   7.629   0.949   4.430 -0.2283 -0.1484  0.3637
    82BTZ   C49 6570   7.767   0.926   4.466 -0.1993 -0.1286  0.2658
    82BTZ   C50 6571   7.845   1.024   4.522 -0.1658 -0.1095  0.1863
    82BTZ   C51 6572   7.646   1.177   4.508 -0.1894 -0.1297  0.3010
    82BTZ   C52 6573   7.786   1.153   4.545 -0.1599 -0.1095  0.2016
    92RH    C53 6574   7.985   1.003   4.558 -0.1379  0.0404  0.1802
    82BTZ    N4 6575   7.599   1.299   4.533 -0.1818 -0.1284  0.3091
    82BTZ    N5 6576   7.851   1.256   4.599 -0.1285 -0.0919  0.1299
    82BTZ    S6 6577   7.734   1.391   4.605 -0.1356 -0.1007  0.1877
    92RH    C54 6578   8.066   0.897   4.554 -0.1914  0.0021  0.1149
    92RH     S7 6579   8.023   0.729   4.494 -0.2634  0.0708 -0.0274
    92RH    C55 6580   8.207   0.899   4.600 -0.2004 -0.1055  0.1495
    92RH     O2 6581   8.266   0.998   4.646 -0.1605 -0.1717  0.2410
    92RH     N6 6582   8.268   0.773   4.584 -0.2612 -0.1249  0.0643
    92RH    C56 6583   8.194   0.670   4.532 -0.3020 -0.0460 -0.0343
    92RH    C57 6584   8.407   0.749   4.639  0.7951 -0.0363 -0.4517
    92RH    C58 6585   8.521   0.777   4.544  0.4793  0.6222  0.0340
    92RH     S8 6586   8.243   0.511   4.504 -0.3765 -0.0489 -0.1481
    72IDQ   C59 6587   6.955   1.379   4.213  0.2358 -0.3231  0.6194
    72IDQ   C60 6588   6.997   1.516   4.145  0.4305 -0.1614 -0.2623
    72IDQ   C61 6589   6.866   1.587   4.113  0.0097  0.0869  0.4658
    72IDQ   C62 6590   6.892   1.734   4.074 -0.5356 -0.0840 -0.8892
    72IDQ   C63 6591   6.771   1.801   4.014 -0.1389 -0.3186  0.4406
    72IDQ   C64 6592   6.800   1.938   3.955 -0.2940  0.4011  0.1307
    72IDQ   C65 6593   6.899   1.956   3.840 -0.1021 -0.2826  0.0751
    72IDQ   C66 6594   6.871   1.285   4.554 -0.2710  0.2571 -0.1617
    72IDQ   C67 6595   6.854   1.373   4.683 -0.6538 -0.4633  0.3450
    72IDQ   C68 6596   6.937   1.503   4.685  0.2479 -0.2507 -0.0215
    72IDQ   C69 6597   6.935   1.603   4.565  0.2450 -0.3121 -0.2030
    72IDQ   C70 6598   7.060   1.690   4.591  0.5012  0.0002  0.4857
    72IDQ   C71 6599   7.035   1.804   4.693 -0.3673 -0.0883 -0.6362
    72IDQ   C72 6600   7.151   1.883   4.737 -0.1644  0.2548 -0.0501
    11RH     C1 6601   1.629   0.468   4.961 -0.1058 -0.1544 -0.0263
    11RH     C2 6602   1.740   0.377   4.926 -0.0385 -0.0992  0.0443
    11RH     N1 6603   1.568   0.432   5.084 -0.0483 -0.0756  0.0254
    11RH     S1 6604   1.759   0.250   5.057  0.0962  0.0529  0.1744
    11RH     C3 6605   1.618   0.323   5.151  0.0570  0.0361  0.1291
    11RH     C4 6606   1.466   0.527   5.143 -0.4970 -0.2499 -0.5246
    11RH     S2 6607   1.565   0.259   5.298  0.1426  0.1460  0.2079
    11RH     O1 6608   1.591   0.565   4.893 -0.2009 -0.2567 -0.1196
    11RH     C5 6609   1.814   0.389   4.816 -0.0737 -0.1549  0.0148
    21BTZ    C6 6610   1.932   0.317   4.769 -0.2353 -0.1199 -0.0382
    21BTZ    C7 6611   1.975   0.212   4.844 -0.1705 -0.0456  0.0291
    21BTZ    C8 6612   2.008   0.354   4.653 -0.2248 -0.1095 -0.0279
    21BTZ    C9 6613   2.094   0.137   4.810 -0.0925  0.0420  0.1092
    21BTZ   C10 6614   2.169   0.169   4.701 -0.0796  0.0552  0.1220
    21BTZ   C11 6615   2.128   0.279   4.618 -0.1457 -0.0204  0.0535
    21BTZ    N2 6616   1.976   0.455   4.571 -0.2834 -0.1767 -0.0888
    21BTZ    N3 6617   2.194   0.319   4.509 -0.1406 -0.0160  0.0579
    21BTZ    S3 6618   2.102   0.458   4.444 -0.2389 -0.1279 -0.0435
    31IDT   C12 6619   2.289   0.083   4.669 -0.0821 -0.1953 -0.1266
    31IDT   C13 6620   2.345   0.062   4.546  0.0356 -0.3468 -0.0479
    31IDT   C14 6621   2.454  -0.030   4.549  0.1471 -0.2061  0.1973
    31IDT   C15 6622   2.483  -0.079   4.675  0.1150  0.0530  0.3070
    31IDT    S4 6623   2.372  -0.013   4.800 -0.0604  0.1397  0.1065
    4IDB    C16 6624   2.591  -0.173   4.662  0.0573  0.4576  0.0983
    4IDB    C17 6625   2.636  -0.179   4.527  0.3518  0.4748  0.1959
    51IDQ   C18 6626   2.563  -0.076   4.443  0.9287  0.3608  0.2491
    4IDB    C19 6627   2.737  -0.268   4.490  0.1897  0.2295  0.3337
    51IDQ   C20 6628   2.659   0.041   4.391 -0.1638 -0.0745  0.4044
    51IDQ   C21 6629   2.489  -0.128   4.311 -0.1578 -0.2274 -0.0324
    51IDQ   C22 6630   2.517  -0.265   4.256  0.4222 -0.0107  0.1415
    51IDQ   C23 6631   2.647   0.182   4.436  0.2636  0.1007 -0.7838
    51IDQ   C24 6632   2.457  -0.280   4.116  0.1280 -0.6166  0.6116
    51IDQ   C25 6633   2.534  -0.207   4.000 -0.1597 -0.3449  0.1817
    51IDQ   C26 6634   2.456  -0.197   3.872  0.2527  0.3292  0.1940
    51IDQ   C27 6635   2.549  -0.151   3.764 -0.8894 -0.3126 -0.8739
    51IDQ   C28 6636   2.485  -0.167   3.626 -0.1917  0.2221 -0.1216
    51IDQ   C29 6637   2.578  -0.144   3.508  0.0091  0.4510  0.5059
    51IDQ   C30 6638   2.746   0.268   4.353  0.0627 -0.1106  0.2181
    51IDQ   C31 6639   2.762   0.412   4.397  0.1395 -0.5661 -0.0529
    51IDQ   C32 6640   2.867   0.497   4.320 -0.4328  0.5239 -0.2798
    51IDQ   C33 6641   3.010   0.462   4.351 -1.2339 -0.2758  0.1567
    51IDQ   C34 6642   3.054   0.435   4.493  0.9825 -0.7370  0.4348
    51IDQ   C35 6643   3.203   0.407   4.490  0.5754  0.1393 -0.6242
    4IDB    C36 6644   2.645  -0.256   4.761 -0.4039  0.1931  0.1383
    4IDB    C37 6645   2.748  -0.346   4.721 -0.5636 -0.0552  0.2797
    11RH    C38 6646   1.529   0.622   5.246  0.1470  0.4205  0.4137
    4IDB    C39 6647   2.792  -0.351   4.589 -0.2715 -0.0347  0.3738
    62IDT   C40 6648   2.900  -0.444   4.579 -0.0539 -0.3091  0.3438
    72IDQ   C41 6649   2.824  -0.455   4.802  0.2731 -0.0681  0.1233
    62IDT   C42 6650   2.917  -0.514   4.697  0.1610 -0.6917  0.0880
    72IDQ   C43 6651   2.729  -0.577   4.838  0.6113  0.2631  0.2039
    72IDQ   C44 6652   2.878  -0.401   4.946 -0.4509 -0.3550 -0.2440
    62IDT    S5 6653   3.021  -0.490   4.455 -0.0996  0.2989  0.0643
    62IDT   C45 6654   3.091  -0.608   4.574  0.1882 -0.0110 -0.4066
    62IDT   C46 6655   3.025  -0.607   4.694  0.2981 -0.5236 -0.3365
    82BTZ   C47 6656   3.211  -0.678   4.544  0.1433  0.1996 -0.0044
    82BTZ   C48 6657   3.294  -0.607   4.462  0.1938  0.1976  0.0451
    82BTZ   C49 6658   3.401  -0.672   4.389  0.2257  0.1924  0.0964
    82BTZ   C50 6659   3.424  -0.806   4.399  0.2070  0.1894  0.0982
    82BTZ   C51 6660   3.231  -0.819   4.558  0.1221  0.1965 -0.0045
    82BTZ   C52 6661   3.339  -0.885   4.484  0.1544  0.1912  0.0478
    92RH    C53 6662   3.540  -0.870   4.338 -0.2427 -0.1865 -0.3322
    82BTZ    N4 6663   3.156  -0.899   4.635  0.0735  0.1981 -0.0501
    82BTZ    N5 6664   3.352  -1.016   4.502  0.1318  0.1887  0.0442
    82BTZ    S6 6665   3.223  -1.064   4.616  0.0670  0.1929 -0.0275
    92RH    C54 6666   3.633  -0.824   4.254 -0.1050 -0.1210 -0.1460
    92RH     S7 6667   3.655  -0.650   4.200  0.0691 -0.0562  0.1286
    92RH    C55 6668   3.736  -0.910   4.189 -0.0718 -0.0905 -0.1345
    92RH     O2 6669   3.748  -1.032   4.206 -0.1655 -0.1209 -0.2921
    92RH     N6 6670   3.821  -0.834   4.105  0.0826 -0.0207  0.0824
    92RH    C56 6671   3.799  -0.699   4.095  0.1771  0.0083  0.2457
    92RH    C57 6672   3.932  -0.909   4.038  0.2936  0.1917 -0.3002
    92RH    C58 6673   4.065  -0.914   4.118  0.4620 -0.0700 -0.8442
    92RH     S8 6674   3.885  -0.588   4.002  0.3643  0.0899  0.5149
    72IDQ   C59 6675   3.032  -0.399   4.967  0.0527 -0.3424 -0.2817
    72IDQ   C60 6676   3.081  -0.306   5.081  0.1349  0.1379 -0.7526
    72IDQ   C61 6677   3.233  -0.298   5.104  0.1484 -0.1376  0.1161
    72IDQ   C62 6678   3.271  -0.206   5.223 -0.5665 -0.2562 -0.0217
    72IDQ   C63 6679   3.418  -0.160   5.230 -0.0204 -0.0151  0.5960
    72IDQ   C64 6680   3.451  -0.078   5.355  0.3049 -0.2955  0.2545
    72IDQ   C65 6681   3.500  -0.156   5.477  0.5241  0.7140 -0.5434
    72IDQ   C66 6682   2.608  -0.556   4.926 -0.1083  0.5293  0.6314
    72IDQ   C67 6683   2.504  -0.663   4.938 -0.1888 -0.0433  0.7317
    72IDQ   C68 6684   2.421  -0.700   4.819  0.9937  0.2711  0.5689
    72IDQ   C69 6685   2.304  -0.797   4.850 -0.3223  0.2308 -0.2976
    72IDQ   C70 6686   2.233  -0.813   4.717 -0.2944  0.1524 -0.1414
    72IDQ   C71 6687   2.118  -0.913   4.717  0.1429  0.4070 -0.3716
    72IDQ   C72 6688   2.046  -0.938   4.588  0.1401  0.7724  0.6746
    11RH     C1 6689   1.154   0.629   2.330 -0.0024 -0.0626  0.0196
    11RH     C2 6690   1.051   0.733   2.311 -0.0364 -0.1183 -0.1048
    11RH     N1 6691   1.105   0.521   2.407 -0.0045 -0.0408  0.0485
    11RH     S1 6692   0.896   0.683   2.396 -0.0689 -0.1384 -0.1756
    11RH     C3 6693   0.975   0.527   2.452 -0.0361 -0.0723 -0.0374
    11RH     C4 6694   1.195   0.414   2.448  0.4901 -0.3781  0.1585
    11RH     S2 6695   0.893   0.413   2.545 -0.0455 -0.0560 -0.0258
    11RH     O1 6696   1.270   0.632   2.284  0.0248 -0.0373  0.0913
    11RH     C5 6697   1.071   0.846   2.241 -0.0414 -0.1480 -0.1546
    21BTZ    C6 6698   0.994   0.967   2.225  0.2094  0.1793 -0.1303
    21BTZ    C7 6699   0.877   0.988   2.292  0.2545  0.1036 -0.0273
    21BTZ    C8 6700   1.027   1.054   2.115  0.0150  0.1442 -0.2171
    21BTZ    C9 6701   0.786   1.094   2.255  0.1119 -0.0097 -0.0044
    21BTZ   C10 6702   0.813   1.179   2.151 -0.0756 -0.0471 -0.0847
    21BTZ   C11 6703   0.935   1.161   2.078 -0.1299  0.0290 -0.1938
    21BTZ    N2 6704   1.138   1.043   2.042 -0.0464  0.2101 -0.3208
    21BTZ    N3 6705   0.972   1.238   1.975 -0.3079  0.0025 -0.2788
    21BTZ    S3 6706   1.130   1.174   1.920 -0.2974  0.1261 -0.3946
    31IDT   C12 6707   0.712   1.275   2.112 -0.1839 -0.4521  0.3259
    31IDT   C13 6708   0.733   1.403   2.067  0.2001 -0.4361  0.5422
    31IDT   C14 6709   0.612   1.478   2.053  0.4125 -0.0845  0.5578
    31IDT   C15 6710   0.498   1.408   2.087  0.1925  0.1693  0.3541
    31IDT    S4 6711   0.535   1.240   2.141 -0.3055 -0.0192  0.1245
    4IDB    C16 6712   0.375   1.475   2.050 -0.1081 -0.1523  0.0211
    4IDB    C17 6713   0.413   1.597   1.986  0.1613 -0.4375 -0.3741
    51IDQ   C18 6714   0.568   1.618   2.009  0.2427 -0.3505 -0.2299
    4IDB    C19 6715   0.319   1.675   1.918  0.2891 -0.3421 -0.4428
    51IDQ   C20 6716   0.637   1.666   1.870 -0.5488 -0.5866 -0.1461
    51IDQ   C21 6717   0.616   1.734   2.109  0.1205  0.3349 -0.3326
    51IDQ   C22 6718   0.506   1.839   2.155  0.2618  0.2726 -0.4709
    51IDQ   C23 6719   0.723   1.577   1.785  0.4561  0.1450 -0.6321
    51IDQ   C24 6720   0.416   1.784   2.270 -0.2180  0.0852  0.4486
    51IDQ   C25 6721   0.328   1.891   2.340  0.1770  0.0877  1.3013
    51IDQ   C26 6722   0.287   1.846   2.479 -0.2772 -0.6477 -0.2352
    51IDQ   C27 6723   0.198   1.958   2.533 -0.3526  0.1165 -0.6587
    51IDQ   C28 6724   0.143   1.956   2.683  0.2852  0.4704 -0.0021
    51IDQ   C29 6725   0.076   2.086   2.717 -0.1021  0.4478 -0.3710
    51IDQ   C30 6726   0.800   1.641   1.674 -0.9463 -0.0626  1.0841
    51IDQ   C31 6727   0.865   1.548   1.566 -0.5508  0.4490 -0.6696
    51IDQ   C32 6728   0.980   1.604   1.493  0.2265  0.0054  0.5054
    51IDQ   C33 6729   1.038   1.513   1.383  0.3320 -0.1764 -0.4382
    51IDQ   C34 6730   1.178   1.560   1.359 -0.2384 -0.2771 -0.1655
    51IDQ   C35 6731   1.263   1.488   1.249  0.4972 -0.5871  0.5136
    4IDB    C36 6732   0.242   1.430   2.046 -0.2520  0.2323  0.3517
    4IDB    C37 6733   0.148   1.511   1.977 -0.1182  0.3245  0.2757
    11RH    C38 6734   1.275   0.447   2.574  0.7265  0.3151  0.2898
    4IDB    C39 6735   0.187   1.630   1.915  0.1452  0.0426 -0.1121
    62IDT   C40 6736   0.073   1.689   1.848  0.2934  0.1397 -0.0766
    72IDQ   C41 6737  -0.002   1.483   1.941 -0.2009 -0.6915 -0.1543
    62IDT   C42 6738  -0.036   1.606   1.853  0.3619  0.0508 -0.0656
    72IDQ   C43 6739  -0.097   1.467   2.068 -0.4065  0.0113  0.1021
    72IDQ   C44 6740  -0.021   1.366   1.844  0.1253  0.6763  0.8458
    62IDT    S5 6741   0.039   1.839   1.755  0.1637  0.1103 -0.0766
    62IDT   C45 6742  -0.130   1.778   1.726  0.2109 -0.0273 -0.0609
    62IDT   C46 6743  -0.151   1.655   1.785  0.3152 -0.0438 -0.0566
    82BTZ   C47 6744  -0.216   1.831   1.622  0.1222 -0.0405  0.0655
    82BTZ   C48 6745  -0.152   1.888   1.515  0.1279 -0.1091  0.0323
    82BTZ   C49 6746  -0.223   1.928   1.397  0.1177 -0.0827  0.0474
    82BTZ   C50 6747  -0.358   1.912   1.385  0.1017  0.0123  0.0957
    82BTZ   C51 6748  -0.358   1.811   1.615  0.1056  0.0601  0.1166
    82BTZ   C52 6749  -0.430   1.853   1.494  0.0952  0.0869  0.1318
    92RH    C53 6750  -0.432   1.933   1.263 -0.0812 -0.2046  0.0137
    82BTZ    N4 6751  -0.432   1.757   1.712  0.0987  0.1335  0.1523
    82BTZ    N5 6752  -0.562   1.831   1.494  0.0798  0.1819  0.1799
    82BTZ    S6 6753  -0.600   1.756   1.652  0.0779  0.2423  0.2082
    92RH    C54 6754  -0.400   1.964   1.137 -0.0999 -0.2524 -0.0030
    92RH     S7 6755  -0.231   1.988   1.070 -0.0987 -0.4872 -0.0869
    92RH    C55 6756  -0.500   1.984   1.030 -0.1249 -0.1172  0.0457
    92RH     O2 6757  -0.623   1.975   1.043 -0.1317  0.0530  0.1066
    92RH     N6 6758  -0.438   2.016   0.907 -0.1409 -0.2059  0.0144
    92RH    C56 6759  -0.300   2.024   0.903 -0.1315 -0.3955 -0.0535
    92RH    C57 6760  -0.521   2.049   0.787 -0.0833  0.2524  0.1576
    92RH    C58 6761  -0.548   2.197   0.762  0.4784  0.3486  0.6102
    92RH     S8 6762  -0.203   2.060   0.770 -0.1463 -0.5335 -0.1025
    72IDQ   C59 6763   0.045   1.223   1.860  0.5195 -0.5861 -0.3984
    72IDQ   C60 6764  -0.025   1.146   1.977 -0.9834 -0.4398 -0.7391
    72IDQ   C61 6765  -0.011   0.998   1.974 -0.4920  0.6370 -0.8974
    72IDQ   C62 6766  -0.085   0.946   2.098  0.4017 -0.3622 -0.1810
    72IDQ   C63 6767  -0.099   0.797   2.111 -0.6705 -0.3007  0.1939
    72IDQ   C64 6768  -0.186   0.753   2.226  0.7217  1.0603 -0.0894
    72IDQ   C65 6769  -0.201   0.605   2.248 -0.3790  0.3881  0.1880
    72IDQ   C66 6770  -0.105   1.584   2.170  0.4148  0.1607 -0.0165
    72IDQ   C67 6771  -0.182   1.558   2.294  0.0287  0.0551 -0.2126
    72IDQ   C68 6772  -0.181   1.677   2.399 -0.5038 -0.0239  0.7446
    72IDQ   C69 6773  -0.261   1.796   2.362  1.2743  0.0290 -0.5501
    72IDQ   C70 6774  -0.247   1.910   2.464  0.3961  0.8541  0.2400
    72IDQ   C71 6775  -0.318   2.039   2.443  0.0321 -0.5196  0.4492
    72IDQ   C72 6776  -0.293   2.126   2.568 -0.3321 -0.3393  0.0219
    11RH     C1 6777   0.424   0.261   1.546  0.0186 -0.0345 -0.0698
    11RH     C2 6778   0.355   0.184   1.440  0.0148 -0.0385 -0.0643
    11RH     N1 6779   0.374   0.393   1.554 -0.1837 -0.1216  0.1223
    11RH     S1 6780   0.229   0.289   1.358 -0.2546 -0.1566  0.1930
    11RH     C3 6781   0.273   0.431   1.467 -0.3491 -0.1949  0.2810
    11RH     C4 6782   0.433   0.483   1.654 -0.3544 -0.1809  0.6970
    11RH     S2 6783   0.197   0.580   1.456 -0.6037 -0.3050  0.5230
    11RH     O1 6784   0.514   0.219   1.620  0.1770  0.0355 -0.2216
    11RH     C5 6785   0.383   0.056   1.412  0.1856  0.0346 -0.2263
    21BTZ    C6 6786   0.335  -0.044   1.315  0.2715 -0.0391 -0.4293
    21BTZ    C7 6787   0.227  -0.015   1.236  0.2627 -0.0292 -0.4136
    21BTZ    C8 6788   0.388  -0.177   1.312  0.1290 -0.0997 -0.2794
    21BTZ    C9 6789   0.166  -0.114   1.151  0.1146 -0.0778 -0.2511
    21BTZ   C10 6790   0.213  -0.242   1.145 -0.0246 -0.1366 -0.1045
    21BTZ   C11 6791   0.326  -0.278   1.226 -0.0216 -0.1491 -0.1143
    21BTZ    N2 6792   0.493  -0.217   1.384  0.1224 -0.1150 -0.2785
    21BTZ    N3 6793   0.381  -0.400   1.229 -0.1493 -0.2044  0.0195
    21BTZ    S3 6794   0.517  -0.390   1.344 -0.0809 -0.1952 -0.0618
    31IDT   C12 6795   0.145  -0.341   1.063  0.0305 -0.3334  0.2986
    31IDT   C13 6796   0.202  -0.449   1.002 -0.4027 -0.8972  0.8623
    31IDT   C14 6797   0.108  -0.527   0.928 -0.6382 -0.6328  0.8799
    31IDT   C15 6798  -0.021  -0.479   0.932 -0.3867  0.1324  0.3310
    31IDT    S4 6799  -0.034  -0.329   1.032  0.1730  0.5815 -0.2560
    4IDB    C16 6800  -0.106  -0.571   0.859 -0.0213  0.1276  0.1605
    4IDB    C17 6801  -0.027  -0.675   0.803  0.0377  0.2652 -0.0129
    51IDQ   C18 6802   0.118  -0.649   0.832 -1.0568  0.0434  0.6040
    4IDB    C19 6803  -0.087  -0.779   0.731  0.0726  0.2229  0.0195
    51IDQ   C20 6804   0.180  -0.773   0.897 -1.0211  0.1658 -0.4773
    51IDQ   C21 6805   0.214  -0.616   0.709  0.1764 -0.1726 -0.1134
    51IDQ   C22 6806   0.165  -0.601   0.562  0.4352  0.1828 -0.0720
    51IDQ   C23 6807   0.224  -0.787   1.043 -0.4230 -0.7632 -0.5714
    51IDQ   C24 6808   0.284  -0.562   0.478 -0.9120  0.4287 -0.6948
    51IDQ   C25 6809   0.254  -0.588   0.337 -0.1278  0.1491 -0.2461
    51IDQ   C26 6810   0.366  -0.547   0.246  0.0424  0.2131 -0.2224
    51IDQ   C27 6811   0.334  -0.564   0.103 -0.2229 -0.0675  0.0269
    51IDQ   C28 6812   0.461  -0.584   0.018  0.3136 -0.1868 -0.3299
    51IDQ   C29 6813   0.521  -0.725   0.025  0.4424 -0.5691 -0.1817
    51IDQ   C30 6814   0.319  -0.901   1.089  0.3829 -0.3821  0.0539
    51IDQ   C31 6815   0.475  -0.867   1.068  0.5992  0.9516 -0.4311
    51IDQ   C32 6816   0.533  -0.758   1.152 -0.1556  0.3347  0.6580
    51IDQ   C33 6817   0.689  -0.735   1.142  0.3098  0.1326  0.5443
    51IDQ   C34 6818   0.743  -0.627   1.241  0.1309 -0.2578  0.5360
    51IDQ   C35 6819   0.894  -0.614   1.229  0.3177  0.0655  0.1908
    4IDB    C36 6820  -0.246  -0.569   0.845 -0.0461 -0.0542  0.3687
    4IDB    C37 6821  -0.305  -0.676   0.772 -0.0099 -0.0949  0.3989
    11RH    C38 6822   0.562   0.561   1.594  0.1888  0.1603 -0.2012
    4IDB    C39 6823  -0.226  -0.777   0.717  0.0477  0.0408  0.2278
    62IDT   C40 6824  -0.311  -0.880   0.656  0.3042  0.3097 -0.3382
    72IDQ   C41 6825  -0.451  -0.712   0.743  0.1377 -0.3252  0.6060
    62IDT   C42 6826  -0.444  -0.847   0.671  0.2985  0.5077 -0.7634
    72IDQ   C43 6827  -0.521  -0.599   0.657 -0.2386 -0.3540  0.4402
    72IDQ   C44 6828  -0.526  -0.715   0.879 -0.3390 -0.3061 -0.4398
    62IDT    S5 6829  -0.289  -1.041   0.581  0.3118  0.1065  0.0949
    62IDT   C45 6830  -0.470  -1.058   0.574  0.3067  0.3101 -0.3431
    62IDT   C46 6831  -0.534  -0.948   0.625  0.2998  0.5082 -0.7668
    82BTZ   C47 6832  -0.531  -1.183   0.506  0.1225 -0.1493  0.0513
    82BTZ   C48 6833  -0.441  -1.269   0.448  0.1454 -0.0741 -0.0243
    82BTZ   C49 6834  -0.481  -1.396   0.393  0.1817 -0.0418 -0.1265
    82BTZ   C50 6835  -0.612  -1.437   0.397  0.1947 -0.0848 -0.1529
    82BTZ   C51 6836  -0.669  -1.222   0.512  0.1348 -0.1967  0.0274
    82BTZ   C52 6837  -0.710  -1.351   0.456  0.1717 -0.1639 -0.0764
    92RH    C53 6838  -0.662  -1.568   0.350  0.0900  0.3705  0.0150
    82BTZ    N4 6839  -0.766  -1.148   0.565  0.1148 -0.2708  0.0945
    82BTZ    N5 6840  -0.840  -1.381   0.465  0.1812 -0.2115 -0.0928
    82BTZ    S6 6841  -0.917  -1.241   0.547  0.1427 -0.3024  0.0263
    92RH    C54 6842  -0.602  -1.670   0.288  0.0161  0.2948  0.0678
    92RH     S7 6843  -0.432  -1.673   0.218  0.0498  0.1042  0.1547
    92RH    C55 6844  -0.667  -1.802   0.265 -0.1082  0.3566  0.0636
    92RH     O2 6845  -0.782  -1.833   0.300 -0.1580  0.4830  0.0118
    92RH     N6 6846  -0.580  -1.891   0.198 -0.1654  0.2527  0.1269
    92RH    C56 6847  -0.455  -1.847   0.163 -0.1023  0.1153  0.1813
    92RH    C57 6848  -0.634  -2.018   0.142 -0.0683  0.2406 -0.1163
    92RH    C58 6849  -0.668  -2.030  -0.007  0.4177 -0.1307  0.6360
    92RH     S8 6850  -0.334  -1.933   0.083 -0.1494 -0.0272  0.2615
    72IDQ   C59 6851  -0.634  -0.814   0.931 -0.9485 -0.4180  0.1766
    72IDQ   C60 6852  -0.667  -0.798   1.081 -0.5566 -0.2414 -0.1996
    72IDQ   C61 6853  -0.782  -0.886   1.131 -0.2954  0.2275  0.1119
    72IDQ   C62 6854  -0.835  -0.863   1.277  0.2938  0.3798  0.8440
    72IDQ   C63 6855  -0.951  -0.960   1.305  0.0598  0.3832  0.1609
    72IDQ   C64 6856  -0.991  -0.931   1.448  1.0222  0.1317  0.0197
    72IDQ   C65 6857  -1.131  -0.981   1.493  0.2337  0.1424  0.2856
    72IDQ   C66 6858  -0.656  -0.614   0.584 -0.8594 -0.6875  0.2804
    72IDQ   C67 6859  -0.770  -0.534   0.644  0.1208 -0.9622  0.1429
    72IDQ   C68 6860  -0.752  -0.376   0.634  0.1075 -0.0920 -0.1720
    72IDQ   C69 6861  -0.870  -0.309   0.692  0.0443 -0.1105 -0.1349
    72IDQ   C70 6862  -0.871  -0.158   0.690  0.3396 -0.2553  0.6269
    72IDQ   C71 6863  -1.003  -0.103   0.726 -0.2719 -0.1394 -0.2682
    72IDQ   C72 6864  -1.003   0.043   0.682  0.7786  0.1279 -0.2195
    11RH     C1 6865   2.299   4.362   0.584 -0.0441  0.0902 -0.0247
    11RH     C2 6866   2.220   4.238   0.572 -0.0849  0.1135  0.0061
    11RH     N1 6867   2.283   4.423   0.710 -0.0380  0.1365 -0.0459
    11RH     S1 6868   2.128   4.209   0.729 -0.1125  0.1943  0.0051
    11RH     C3 6869   2.200   4.362   0.801 -0.0688  0.1936 -0.0359
    11RH     C4 6870   2.360   4.546   0.755  0.1592  0.5155  0.2762
    11RH     S2 6871   2.163   4.414   0.958 -0.0693  0.2558 -0.0564
    11RH     O1 6872   2.372   4.410   0.495 -0.0181  0.0374 -0.0316
    11RH     C5 6873   2.218   4.161   0.463 -0.0983  0.0790  0.0304
    21BTZ    C6 6874   2.133   4.049   0.422 -0.2849 -0.1227  0.1578
    21BTZ    C7 6875   2.028   4.007   0.499 -0.4844 -0.0156 -0.0549
    21BTZ    C8 6876   2.158   3.982   0.298 -0.1797 -0.0639  0.1469
    21BTZ    C9 6877   1.942   3.899   0.458 -0.5900  0.1539 -0.2875
    21BTZ   C10 6878   1.962   3.832   0.340 -0.4960  0.2158 -0.3070
    21BTZ   C11 6879   2.071   3.872   0.256 -0.2871  0.1082 -0.0895
    21BTZ    N2 6880   2.257   4.013   0.214  0.0145 -0.1563  0.3412
    21BTZ    N3 6881   2.100   3.814   0.139 -0.1792  0.1541 -0.0852
    21BTZ    S3 6882   2.243   3.901   0.076  0.0695 -0.0246  0.2279
    31IDT   C12 6883   1.854   3.741   0.304 -0.0705  0.3345  0.3160
    31IDT   C13 6884   1.864   3.640   0.212  0.2835  0.2673  0.4245
    31IDT   C14 6885   1.750   3.554   0.212  0.3544  0.1720  0.1592
    31IDT   C15 6886   1.653   3.589   0.303  0.0558  0.1660 -0.1527
    31IDT    S4 6887   1.699   3.735   0.397 -0.3421  0.2815 -0.1343
    4IDB    C16 6888   1.540   3.500   0.283  0.1757 -0.4406  0.1998
    4IDB    C17 6889   1.576   3.398   0.190 -0.0078 -0.3394  0.0172
    51IDQ   C18 6890   1.721   3.415   0.149 -0.7554 -0.2387  0.4022
    4IDB    C19 6891   1.483   3.303   0.149 -0.1534 -0.1566 -0.0826
    51IDQ   C20 6892   1.795   3.287   0.208  0.3425  0.4420 -0.2729
    51IDQ   C21 6893   1.753   3.418  -0.002 -0.0537  0.5304 -0.3179
    51IDQ   C22 6894   1.648   3.399  -0.116 -0.4703 -0.0787  0.3474
    51IDQ   C23 6895   1.874   3.294   0.349  0.4539 -0.6708  0.2731
    51IDQ   C24 6896   1.697   3.408  -0.257 -0.1141  0.7812 -0.8195
    51IDQ   C25 6897   1.811   3.319  -0.298 -0.4333 -0.2684  0.0122
    51IDQ   C26 6898   1.837   3.305  -0.448 -0.2261 -0.3580  0.0266
    51IDQ   C27 6899   1.718   3.255  -0.522 -0.0381  0.4195 -0.5105
    51IDQ   C28 6900   1.720   3.224  -0.672 -0.5397 -0.3785 -0.4659
    51IDQ   C29 6901   1.781   3.338  -0.760  0.3571 -0.5881  0.1672
    51IDQ   C30 6902   1.917   3.163   0.397 -0.3075  0.2186  0.1163
    51IDQ   C31 6903   2.017   3.169   0.518 -0.0578  0.9306 -0.1447
    51IDQ   C32 6904   1.968   3.208   0.656 -0.2625  0.1911  0.3820
    51IDQ   C33 6905   2.083   3.248   0.753 -0.3008 -0.5299 -0.5637
    51IDQ   C34 6906   2.046   3.318   0.888  0.8340 -0.6908  0.3763
    51IDQ   C35 6907   1.985   3.463   0.882 -0.3710  0.4332 -0.0737
    4IDB    C36 6908   1.410   3.507   0.337  0.2148 -0.3588  0.2839
    4IDB    C37 6909   1.317   3.409   0.294  0.0643 -0.1718  0.1797
    11RH    C38 6910   2.503   4.513   0.803  0.7794 -0.4553 -0.1809
    4IDB    C39 6911   1.354   3.310   0.203 -0.1143 -0.0748  0.0015
    62IDT   C40 6912   1.244   3.222   0.175  0.0701 -0.3282 -0.3796
    72IDQ   C41 6913   1.166   3.392   0.331 -0.6930  0.6161 -0.5464
    62IDT   C42 6914   1.131   3.268   0.239  0.0541  0.1129 -0.7193
    72IDQ   C43 6915   1.087   3.528   0.297 -0.6338  0.1929  0.1341
    72IDQ   C44 6916   1.146   3.339   0.478 -0.9608 -0.2140 -0.2131
    62IDT    S5 6917   1.211   3.077   0.075 -0.0375 -0.6382  0.1012
    62IDT   C45 6918   1.037   3.087   0.127 -0.1017 -0.1305 -0.1971
    62IDT   C46 6919   1.014   3.192   0.212 -0.0431  0.2253 -0.6166
    82BTZ   C47 6920   0.936   2.997   0.067  0.0330  0.0026  0.1297
    82BTZ   C48 6921   0.976   2.894  -0.013  0.0042 -0.0612  0.1971
    82BTZ   C49 6922   0.882   2.804  -0.074 -0.0185 -0.1006  0.2909
    82BTZ   C50 6923   0.747   2.817  -0.054 -0.0122 -0.0761  0.3173
    82BTZ   C51 6924   0.796   3.015   0.091  0.0407  0.0305  0.1539
    82BTZ   C52 6925   0.699   2.923   0.029  0.0176 -0.0095  0.2493
    92RH    C53 6926   0.644   2.739  -0.130  0.3938  0.0208 -0.0450
    82BTZ    N4 6927   0.744   3.112   0.167  0.0680  0.0921  0.0947
    82BTZ    N5 6928   0.570   2.946   0.056  0.0265  0.0199  0.2667
    82BTZ    S6 6929   0.567   3.089   0.164  0.0654  0.1016  0.1595
    92RH    C54 6930   0.644   2.643  -0.224  0.3124 -0.0008 -0.0236
    92RH     S7 6931   0.790   2.551  -0.286  0.1952 -0.3518  0.2117
    92RH    C55 6932   0.522   2.596  -0.293  0.3049  0.2663 -0.1937
    92RH     O2 6933   0.407   2.639  -0.273  0.3717  0.5364 -0.3728
    92RH     N6 6934   0.552   2.495  -0.387  0.2108  0.1772 -0.1280
    92RH    C56 6935   0.683   2.455  -0.401  0.1419 -0.1287  0.0740
    92RH    C57 6936   0.441   2.424  -0.456 -0.0848  0.3139  1.0307
    92RH    C58 6937   0.410   2.483  -0.598 -0.4896 -0.3688  0.2041
    92RH     S8 6938   0.744   2.338  -0.505  0.0253 -0.2937  0.1904
    72IDQ   C59 6939   1.107   3.425   0.600  0.6691 -0.0945  0.7688
    72IDQ   C60 6940   1.215   3.517   0.652  0.0567 -0.0780 -0.1226
    72IDQ   C61 6941   1.178   3.611   0.761  0.7610 -0.0802  0.9092
    72IDQ   C62 6942   1.265   3.726   0.792  0.2028 -0.2129 -1.0465
    72IDQ   C63 6943   1.206   3.821   0.906 -0.1963  0.5397  0.3431
    72IDQ   C64 6944   1.081   3.900   0.883 -0.5341 -0.6470  0.3591
    72IDQ   C65 6945   1.012   3.944   1.009 -0.3825 -0.5772 -0.0151
    72IDQ   C66 6946   0.930   3.534   0.311  0.1966  0.1112  0.4024
    72IDQ   C67 6947   0.866   3.671   0.298  0.6299 -0.1892  0.9539
    72IDQ   C68 6948   0.921   3.758   0.179 -0.4398  0.5309  0.1850
    72IDQ   C69 6949   0.857   3.891   0.173  0.4045  0.0681 -0.4593
    72IDQ   C70 6950   0.704   3.908   0.156 -0.4199  0.3932 -0.8398
    72IDQ   C71 6951   0.670   4.055   0.134 -0.0025 -0.3871  0.0285
    72IDQ   C72 6952   0.517   4.071   0.124  0.2659  0.0170 -0.4521
    11RH     C1 6953   3.621   2.197   4.962 -0.2781  0.0378 -0.1773
    11RH     C2 6954   3.623   2.058   5.013 -0.2012  0.1363  0.0904
    11RH     N1 6955   3.747   2.236   4.912 -0.3178 -0.0119 -0.3182
    11RH     S1 6956   3.792   1.987   4.992 -0.1863  0.1573  0.1397
    11RH     C3 6957   3.850   2.145   4.917 -0.2822  0.0349 -0.1960
    11RH     C4 6958   3.761   2.363   4.832 -0.7896  0.3262  0.4707
    11RH     S2 6959   4.009   2.167   4.865 -0.3169 -0.0077 -0.3194
    11RH     O1 6960   3.522   2.272   4.962 -0.3054  0.0015 -0.2712
    11RH     C5 6961   3.517   1.996   5.066 -0.1519  0.1984  0.2640
    21BTZ    C6 6962   3.501   1.861   5.113  0.1437 -0.1557  0.0398
    21BTZ    C7 6963   3.598   1.765   5.096  0.0291 -0.2466 -0.1069
    21BTZ    C8 6964   3.383   1.827   5.187  0.1138 -0.1214  0.0080
    21BTZ    C9 6965   3.584   1.633   5.151 -0.1198 -0.3082 -0.2915
    21BTZ   C10 6966   3.473   1.596   5.223 -0.1538 -0.2786 -0.3287
    21BTZ   C11 6967   3.369   1.693   5.243 -0.0376 -0.1840 -0.1795
    21BTZ    N2 6968   3.282   1.912   5.210  0.2161 -0.0343  0.1396
    21BTZ    N3 6969   3.256   1.669   5.311 -0.0569 -0.1472 -0.1985
    21BTZ    S3 6970   3.162   1.821   5.307  0.1214 -0.0284  0.0272
    31IDT   C12 6971   3.483   1.470   5.292  0.0924  0.0053 -0.4140
    31IDT   C13 6972   3.379   1.394   5.338 -0.0643 -0.0840 -0.8988
    31IDT   C14 6973   3.422   1.282   5.416 -0.3271 -0.1239 -0.8078
    31IDT   C15 6974   3.559   1.273   5.429 -0.3724 -0.0655 -0.2541
    31IDT    S4 6975   3.645   1.406   5.344 -0.0831  0.0456  0.1988
    4IDB    C16 6976   3.601   1.145   5.489 -0.4898 -0.1472  0.1861
    4IDB    C17 6977   3.483   1.073   5.525 -0.3653 -0.1162  0.6611
    51IDQ   C18 6978   3.358   1.163   5.488 -0.0503  0.6396 -0.2346
    4IDB    C19 6979   3.492   0.949   5.587 -0.1466 -0.2432  0.3806
    51IDQ   C20 6980   3.263   1.072   5.402  0.1610  0.3808 -0.6065
    51IDQ   C21 6981   3.282   1.212   5.626 -0.2971  0.4419  0.6460
    51IDQ   C22 6982   3.326   1.168   5.766  0.0864 -0.0240 -0.1156
    51IDQ   C23 6983   3.267   1.085   5.250 -0.4683  0.0684  0.0041
    51IDQ   C24 6984   3.439   1.254   5.826 -0.2819 -0.2369 -0.2551
    51IDQ   C25 6985   3.488   1.209   5.963 -0.2063 -0.2958 -0.6273
    51IDQ   C26 6986   3.552   1.067   5.974  0.2269 -0.5309 -0.7528
    51IDQ   C27 6987   3.598   1.004   6.106 -0.2068  0.1315 -0.1196
    51IDQ   C28 6988   3.497   0.990   6.215 -0.0011  0.0502  0.1296
    51IDQ   C29 6989   3.546   0.960   6.356 -0.0235 -0.6314  0.1536
    51IDQ   C30 6990   3.149   1.023   5.176  0.3972  0.0022  0.4596
    51IDQ   C31 6991   3.169   1.064   5.026  0.3899  0.2528 -0.2564
    51IDQ   C32 6992   3.057   1.008   4.941  0.0177  0.8655 -0.4741
    51IDQ   C33 6993   3.061   1.031   4.787 -0.1659 -0.3805  0.0619
    51IDQ   C34 6994   2.931   1.013   4.710  0.3661 -0.1283 -0.4334
    51IDQ   C35 6995   2.847   0.885   4.739  0.3049 -0.1467  0.8239
    4IDB    C36 6996   3.729   1.092   5.514 -0.3956 -0.3066 -0.5770
    4IDB    C37 6997   3.735   0.965   5.577 -0.1720 -0.4349 -0.8538
    11RH    C38 6998   3.771   2.487   4.922  0.6609  0.7071 -0.5904
    4IDB    C39 6999   3.619   0.896   5.612 -0.0525 -0.4026 -0.3824
    62IDT   C40 7000   3.655   0.771   5.667 -0.2107  0.2835 -0.3698
    72IDQ   C41 7001   3.857   0.882   5.612 -0.3969  0.5454  0.0276
    62IDT   C42 7002   3.792   0.753   5.661 -0.1496  0.5357  0.1426
    72IDQ   C43 7003   3.943   0.957   5.724  0.3543 -0.1831  0.3794
    72IDQ   C44 7004   3.949   0.866   5.478 -0.5491 -0.4567 -0.3105
    62IDT    S5 7005   3.573   0.633   5.749 -0.2516  0.1857 -0.5749
    62IDT   C45 7006   3.736   0.555   5.771 -0.1807  0.5065  0.0746
    62IDT   C46 7007   3.838   0.631   5.720 -0.1327  0.6621  0.3946
    82BTZ   C47 7008   3.735   0.413   5.815 -0.2067 -0.0500 -0.1228
    82BTZ   C48 7009   3.619   0.342   5.799 -0.2213 -0.0177 -0.1605
    82BTZ   C49 7010   3.604   0.207   5.850 -0.2761 -0.0127 -0.1628
    82BTZ   C50 7011   3.706   0.144   5.917 -0.3162 -0.0400 -0.1274
    82BTZ   C51 7012   3.844   0.351   5.885 -0.2472 -0.0795 -0.0851
    82BTZ   C52 7013   3.829   0.215   5.936 -0.3030 -0.0744 -0.0874
    92RH    C53 7014   3.699   0.002   5.951  0.1621 -0.1219  0.2015
    82BTZ    N4 7015   3.962   0.410   5.907 -0.2379 -0.1122 -0.0467
    82BTZ    N5 7016   3.935   0.164   6.000 -0.3384 -0.1031 -0.0510
    82BTZ    S6 7017   4.061   0.291   5.997 -0.3016 -0.1385 -0.0112
    92RH    C54 7018   3.601  -0.088   5.935  0.1460 -0.1146  0.2568
    92RH     S7 7019   3.440  -0.061   5.852  0.1784 -0.1550  0.1801
    92RH    C55 7020   3.610  -0.228   5.983  0.0978 -0.0713  0.3933
    92RH     O2 7021   3.707  -0.278   6.043  0.0671 -0.0370  0.4714
    92RH     N6 7022   3.494  -0.301   5.952  0.0902 -0.0728  0.4260
    92RH    C56 7023   3.392  -0.237   5.885  0.1266 -0.1124  0.3322
    92RH    C57 7024   3.475  -0.431   6.003  0.1033  0.4093 -0.5022
    92RH    C58 7025   3.513  -0.554   5.914 -0.5381 -0.3523 -0.3140
    92RH     S8 7026   3.243  -0.300   5.837  0.1268 -0.1233  0.3459
    72IDQ   C59 7027   4.036   0.740   5.467 -0.3251 -0.4511 -0.2845
    72IDQ   C60 7028   4.111   0.760   5.333  0.0650  0.1850 -0.1758
    72IDQ   C61 7029   4.094   0.638   5.250 -0.3025  0.0248  0.2221
    72IDQ   C62 7030   4.165   0.655   5.108  0.4399  0.7415 -0.1555
    72IDQ   C63 7031   4.107   0.768   5.026 -0.7246 -0.1425 -0.3604
    72IDQ   C64 7032   4.160   0.778   4.886 -0.5152  0.3288 -0.4084
    72IDQ   C65 7033   4.091   0.880   4.799  0.2678  0.4284  0.3595
    72IDQ   C66 7034   4.044   0.872   5.808  0.0438 -0.4539 -0.2082
    72IDQ   C67 7035   4.128   0.952   5.898 -0.9839  0.0441  0.1118
    72IDQ   C68 7036   4.160   0.876   6.022 -0.2399 -0.3699 -0.3648
    72IDQ   C69 7037   4.270   0.938   6.113  0.2833  0.0361  0.0604
    72IDQ   C70 7038   4.292   0.843   6.231 -0.3347 -0.0275 -0.1871
    72IDQ   C71 7039   4.387   0.893   6.339  0.1128 -0.2829  0.0854
    72IDQ   C72 7040   4.534   0.853   6.332 -0.2023 -0.0171 -0.4093
    11RH     C1 7041   2.871   2.156   5.124 -0.2350 -0.2279  0.1633
    11RH     C2 7042   2.971   2.102   5.028 -0.1680 -0.0293  0.1209
    11RH     N1 7043   2.803   2.052   5.190 -0.1064 -0.3654  0.0827
    11RH     S1 7044   2.969   1.918   5.033  0.0599 -0.0368 -0.0219
    11RH     C3 7045   2.835   1.921   5.160  0.0556 -0.3017 -0.0188
    11RH     C4 7046   2.704   2.081   5.287 -1.0663  0.5715 -0.3821
    11RH     S2 7047   2.769   1.781   5.225  0.2303 -0.4349 -0.1283
    11RH     O1 7048   2.848   2.276   5.144 -0.3846 -0.2717  0.2570
    11RH     C5 7049   3.050   2.179   4.953 -0.2636  0.1275  0.1807
    21BTZ    C6 7050   3.162   2.144   4.864 -0.1452  0.0514 -0.4638
    21BTZ    C7 7051   3.203   2.014   4.850 -0.1912  0.0278 -0.3772
    21BTZ    C8 7052   3.233   2.246   4.792 -0.0024 -0.0015 -0.3997
    21BTZ    C9 7053   3.315   1.978   4.766 -0.0998 -0.0485 -0.2240
    21BTZ   C10 7054   3.385   2.072   4.696  0.0375 -0.1011 -0.1578
    21BTZ   C11 7055   3.346   2.210   4.706  0.0905 -0.0791 -0.2441
    21BTZ    N2 7056   3.202   2.376   4.797  0.0546  0.0147 -0.4727
    21BTZ    N3 7057   3.407   2.310   4.643  0.2222 -0.1251 -0.1920
    21BTZ    S3 7058   3.320   2.459   4.690  0.2331 -0.0701 -0.3431
    31IDT   C12 7059   3.517   2.027   4.635  0.2376  0.2109 -0.4265
    31IDT   C13 7060   3.583   2.089   4.532  0.5922  0.1650 -0.2285
    31IDT   C14 7061   3.710   2.029   4.503  0.6148  0.0418  0.1152
    31IDT   C15 7062   3.740   1.921   4.583  0.2782 -0.0069  0.1819
    31IDT    S4 7063   3.611   1.887   4.703 -0.0968  0.1003 -0.1891
    4IDB    C16 7064   3.873   1.870   4.553  0.0697 -0.4146  0.2384
    4IDB    C17 7065   3.929   1.951   4.451  0.0591  0.1675  0.6849
    51IDQ   C18 7066   3.828   2.054   4.403  0.2776  0.5820 -0.2113
    4IDB    C19 7067   4.060   1.931   4.407  0.0186  0.3392  0.4800
    51IDQ   C20 7068   3.893   2.194   4.407 -0.0104  0.0003  0.2616
    51IDQ   C21 7069   3.772   2.019   4.255  0.4845 -1.0668 -0.5020
    51IDQ   C22 7070   3.836   1.923   4.162 -0.3813  0.9352  0.1215
    51IDQ   C23 7071   3.853   2.314   4.486 -0.2581  0.0675 -0.0716
    51IDQ   C24 7072   3.779   1.920   4.022 -0.0340 -0.0277  0.1432
    51IDQ   C25 7073   3.664   1.815   4.007 -0.7106  0.1501 -0.5026
    51IDQ   C26 7074   3.599   1.808   3.875  0.5454  0.0435  0.2682
    51IDQ   C27 7075   3.542   1.924   3.796  0.1222 -0.2629  0.6557
    51IDQ   C28 7076   3.424   1.993   3.853  0.3514 -0.0737  0.5489
    51IDQ   C29 7077   3.324   2.052   3.750  0.2511  0.3344  0.3280
    51IDQ   C30 7078   3.743   2.399   4.422 -0.4175 -0.1485 -0.0253
    51IDQ   C31 7079   3.704   2.509   4.514 -0.0643 -0.0728 -0.5456
    51IDQ   C32 7080   3.588   2.580   4.447  0.5304  0.3232  0.1446
    51IDQ   C33 7081   3.516   2.688   4.534  0.2275  0.2150  0.5950
    51IDQ   C34 7082   3.415   2.760   4.445  0.4396  0.0511 -0.1302
    51IDQ   C35 7083   3.325   2.844   4.537 -0.2231 -0.3825 -0.0170
    4IDB    C36 7084   3.947   1.766   4.613  0.0397 -0.8308 -0.4196
    4IDB    C37 7085   4.080   1.747   4.568 -0.0014 -0.6473 -0.6202
    11RH    C38 7086   2.743   2.104   5.432  0.0085 -0.1082 -0.0525
    4IDB    C39 7087   4.134   1.828   4.467 -0.0112 -0.0769 -0.1782
    62IDT   C40 7088   4.261   1.775   4.425  0.0258 -0.1949 -0.0106
    72IDQ   C41 7089   4.182   1.640   4.601  0.1916  0.5818  0.0265
    62IDT   C42 7090   4.280   1.652   4.483  0.3905 -0.1515 -0.0364
    72IDQ   C43 7091   4.119   1.494   4.614 -0.2213 -0.6699 -0.2791
    72IDQ   C44 7092   4.289   1.674   4.719  0.0639 -0.1952 -0.0692
    62IDT    S5 7093   4.388   1.813   4.304 -0.0526  0.2294  0.0371
    62IDT   C45 7094   4.464   1.652   4.340  0.4356  0.4540  0.0183
    62IDT   C46 7095   4.395   1.582   4.435  0.6226  0.2154 -0.0201
    82BTZ   C47 7096   4.586   1.615   4.265 -0.0317  0.1110  0.0863
    82BTZ   C48 7097   4.639   1.716   4.189 -0.0546  0.1515  0.1243
    82BTZ   C49 7098   4.747   1.693   4.097 -0.0325  0.2157  0.1342
    82BTZ   C50 7099   4.803   1.569   4.081  0.0124  0.2394  0.1059
    82BTZ   C51 7100   4.640   1.483   4.251  0.0153  0.1335  0.0556
    82BTZ   C52 7101   4.751   1.459   4.158  0.0376  0.1988  0.0657
    92RH    C53 7102   4.914   1.546   3.986 -0.1592  0.1155  0.0297
    82BTZ    N4 7103   4.597   1.376   4.319  0.0410  0.0986  0.0173
    82BTZ    N5 7104   4.796   1.334   4.150  0.0813  0.2164  0.0355
    82BTZ    S6 7105   4.698   1.239   4.265  0.0961  0.1488 -0.0079
    92RH    C54 7106   4.983   1.624   3.902 -0.1116  0.1163  0.0695
    92RH     S7 7107   4.954   1.803   3.870 -0.0796  0.1218  0.0710
    92RH    C55 7108   5.097   1.577   3.820 -0.0767  0.1129  0.1203
    92RH     O2 7109   5.142   1.461   3.819 -0.0868  0.1089  0.1319
    92RH     N6 7110   5.151   1.680   3.741 -0.0289  0.1147  0.1553
    92RH    C56 7111   5.094   1.805   3.750 -0.0216  0.1193  0.1388
    92RH    C57 7112   5.261   1.654   3.652 -0.7087  0.3546 -0.1421
    92RH    C58 7113   5.226   1.592   3.524  0.5693 -0.4087  0.4407
    92RH     S8 7114   5.139   1.945   3.667  0.0312  0.1223  0.1724
    72IDQ   C59 7115   4.253   1.758   4.845 -0.4919  0.2276 -0.3626
    72IDQ   C60 7116   4.133   1.719   4.931  0.1210 -0.8812  0.0183
    72IDQ   C61 7117   4.092   1.573   4.952 -0.1178 -0.6476 -0.1434
    72IDQ   C62 7118   4.165   1.490   5.057  0.2539  0.3388 -0.2610
    72IDQ   C63 7119   4.133   1.338   5.054 -0.2549 -0.5247  0.1824
    72IDQ   C64 7120   4.175   1.253   4.929  0.1385  0.2901 -0.3836
    72IDQ   C65 7121   4.319   1.256   4.877 -0.2178 -0.0051  0.3758
    72IDQ   C66 7122   4.059   1.430   4.489  0.5522  0.3930  0.2738
    72IDQ   C67 7123   3.974   1.304   4.521  0.3059  0.5562  0.0861
    72IDQ   C68 7124   3.900   1.269   4.389  0.3662 -0.1500 -0.4091
    72IDQ   C69 7125   3.781   1.176   4.407 -0.4305  0.0775  0.5548
    72IDQ   C70 7126   3.720   1.124   4.280 -0.6517  0.7946  0.2494
    72IDQ   C71 7127   3.598   1.040   4.305 -0.0031 -0.1898  0.2805
    72IDQ   C72 7128   3.550   0.981   4.173 -0.1584 -0.0291  0.1301
    11RH     C1 7129   3.916   6.138   6.622 -0.0650  0.1022  0.0247
    11RH     C2 7130   3.798   6.049   6.610  0.0576 -0.0788  0.1597
    11RH     N1 7131   3.890   6.246   6.709 -0.1711  0.1305 -0.0406
    11RH     S1 7132   3.661   6.113   6.715  0.0252 -0.2002  0.1923
    11RH     C3 7133   3.767   6.254   6.769 -0.1486 -0.0057  0.0256
    11RH     C4 7134   3.999   6.346   6.726 -0.8386 -0.1727  0.1597
    11RH     S2 7135   3.712   6.372   6.876 -0.2573 -0.0062 -0.0292
    11RH     O1 7136   4.024   6.122   6.563 -0.0759  0.2172 -0.0274
    11RH     C5 7137   3.795   5.939   6.534  0.1723 -0.1395  0.2426
    21BTZ    C6 7138   3.701   5.835   6.502 -0.0881  0.4297 -0.3972
    21BTZ    C7 7139   3.575   5.834   6.558 -0.1186  0.5407 -0.4625
    21BTZ    C8 7140   3.737   5.730   6.411 -0.0538  0.2719 -0.2044
    21BTZ    C9 7141   3.480   5.730   6.526 -0.1168  0.5026 -0.3426
    21BTZ   C10 7142   3.510   5.628   6.440 -0.0846  0.3535 -0.1576
    21BTZ   C11 7143   3.639   5.625   6.379 -0.0519  0.2332 -0.0825
    21BTZ    N2 7144   3.855   5.721   6.350 -0.0222  0.1537 -0.1245
    21BTZ    N3 7145   3.680   5.531   6.293 -0.0188  0.0837  0.0952
    21BTZ    S3 7146   3.848   5.574   6.248  0.0119 -0.0159  0.1149
    31IDT   C12 7147   3.401   5.531   6.412 -0.3567  0.0281 -0.1014
    31IDT   C13 7148   3.396   5.443   6.307 -0.2802  0.0154 -0.0945
    31IDT   C14 7149   3.267   5.384   6.290 -0.2400 -0.0679 -0.1149
    31IDT   C15 7150   3.173   5.428   6.381 -0.2856 -0.1195 -0.1374
    31IDT    S4 7151   3.242   5.547   6.497 -0.3838 -0.0657 -0.1343
    4IDB    C16 7152   3.044   5.367   6.350 -0.1896 -0.1427  0.2154
    4IDB    C17 7153   3.053   5.281   6.236 -0.3796  0.1826 -0.0478
    51IDQ   C18 7154   3.209   5.270   6.200  0.3736  0.0531  0.0244
    4IDB    C19 7155   2.943   5.210   6.192 -0.3998  0.1441  0.0632
    51IDQ   C20 7156   3.268   5.126   6.217  0.1614 -0.0440  0.4045
    51IDQ   C21 7157   3.238   5.302   6.053 -0.4986 -0.4681 -0.0084
    51IDQ   C22 7158   3.133   5.346   5.952 -0.6773 -0.4694 -0.3404
    51IDQ   C23 7159   3.372   5.097   6.329  0.4216  0.6633 -0.5475
    51IDQ   C24 7160   3.075   5.478   5.990 -0.2550  0.1058 -0.2188
    51IDQ   C25 7161   2.953   5.502   5.915  0.3994 -0.3548 -0.7861
    51IDQ   C26 7162   2.899   5.633   5.962 -0.2890  0.2225 -0.9338
    51IDQ   C27 7163   2.752   5.666   5.942  0.0542  0.2317  0.1607
    51IDQ   C28 7164   2.697   5.676   5.801  0.6960  0.0556  0.0003
    51IDQ   C29 7165   2.585   5.774   5.798 -0.0375 -0.8391  0.0104
    51IDQ   C30 7166   3.409   4.949   6.343  0.2849  0.0009 -0.5290
    51IDQ   C31 7167   3.294   4.849   6.355 -0.2728 -0.2596 -0.1352
    51IDQ   C32 7168   3.356   4.710   6.383  0.0588 -0.4717  0.4749
    51IDQ   C33 7169   3.250   4.603   6.413  0.3308  0.0161 -0.0268
    51IDQ   C34 7170   3.320   4.469   6.452  0.0573 -0.0011  0.4402
    51IDQ   C35 7171   3.220   4.358   6.484  0.2713  1.0758  0.2660
    4IDB    C36 7172   2.923   5.381   6.421 -0.0175 -0.5109  0.5932
    4IDB    C37 7173   2.812   5.307   6.374 -0.0409 -0.5448  0.7013
    11RH    C38 7174   4.014   6.469   6.628 -0.0349  0.4033  0.4387
    4IDB    C39 7175   2.822   5.224   6.262 -0.2276 -0.2240  0.4410
    62IDT   C40 7176   2.695   5.160   6.225  0.1644  0.2456 -0.2193
    72IDQ   C41 7177   2.662   5.300   6.415 -0.0696  0.4218 -0.3276
    62IDT   C42 7178   2.597   5.199   6.314  0.2900  0.2580 -0.0865
    72IDQ   C43 7179   2.599   5.443   6.411  0.2003  0.4607  0.2730
    72IDQ   C44 7180   2.635   5.245   6.563  0.0083  0.2190  0.2166
    62IDT    S5 7181   2.630   5.053   6.096  0.0251  0.0535  0.0094
    62IDT   C45 7182   2.466   5.067   6.174  0.1502 -0.0025  0.2860
    62IDT   C46 7183   2.467   5.146   6.285  0.2821  0.1179  0.1994
    82BTZ   C47 7184   2.343   5.007   6.089  0.0163  0.1557  0.2258
    82BTZ   C48 7185   2.373   4.947   5.970  0.1385  0.0589  0.3041
    82BTZ   C49 7186   2.269   4.897   5.882  0.2342 -0.1478  0.3080
    82BTZ   C50 7187   2.136   4.907   5.915  0.2075 -0.2577  0.2340
    82BTZ   C51 7188   2.206   5.020   6.128 -0.0163  0.0471  0.1466
    82BTZ   C52 7189   2.100   4.969   6.039  0.0809 -0.1631  0.1507
    92RH    C53 7190   2.025   4.881   5.818 -0.3458  0.1677 -0.1838
    82BTZ    N4 7191   2.164   5.076   6.242 -0.1320  0.1249  0.0664
    82BTZ    N5 7192   1.975   4.985   6.082  0.0434 -0.2543  0.0739
    82BTZ    S6 7193   1.986   5.067   6.240 -0.1213 -0.0714 -0.0084
    92RH    C54 7194   2.019   4.847   5.689 -0.0925  0.0519 -0.1653
    92RH     S7 7195   2.161   4.803   5.580  0.1226 -0.0269  0.1452
    92RH    C55 7196   1.893   4.840   5.611  0.0569 -0.0329 -0.4030
    92RH     O2 7197   1.780   4.864   5.655 -0.0325 -0.0074 -0.6422
    92RH     N6 7198   1.917   4.802   5.477  0.3199 -0.1492 -0.3247
    92RH    C56 7199   2.047   4.778   5.438  0.3995 -0.1680 -0.0536
    92RH    C57 7200   1.800   4.788   5.387  0.6942 -0.3093  0.5562
    92RH    C58 7201   1.747   4.647   5.358 -0.2537  1.0103 -1.1572
    92RH     S8 7202   2.102   4.732   5.285  0.6996 -0.2971  0.0916
    72IDQ   C59 7203   2.722   5.290   6.676  0.1274 -0.1109 -0.0807
    72IDQ   C60 7204   2.672   5.253   6.813  0.2941 -0.2885  0.4420
    72IDQ   C61 7205   2.742   5.321   6.925 -0.5087  0.5223  0.4847
    72IDQ   C62 7206   2.655   5.303   7.044  0.4711  0.2761 -0.3886
    72IDQ   C63 7207   2.704   5.360   7.181  0.4212 -0.7172  0.3572
    72IDQ   C64 7208   2.716   5.511   7.186  0.2376 -0.1154  0.4102
    72IDQ   C65 7209   2.761   5.568   7.317 -0.5975 -0.3812 -0.1400
    72IDQ   C66 7210   2.577   5.520   6.276  0.1155  0.1680 -0.3928
    72IDQ   C67 7211   2.491   5.645   6.301 -0.4627  0.3637  0.6377
    72IDQ   C68 7212   2.444   5.701   6.178  0.3062  0.2089  0.7180
    72IDQ   C69 7213   2.319   5.799   6.189  0.1756  0.7459 -0.1837
    72IDQ   C70 7214   2.243   5.816   6.051 -0.2615  0.3094 -0.3556
    72IDQ   C71 7215   2.241   5.692   5.958 -0.1437  0.2090 -0.3957
    72IDQ   C72 7216   2.159   5.695   5.832  0.4284  0.3699  0.4165
    11RH     C1 7217   5.769   5.690   2.887 -0.2592  0.1665 -0.3043
    11RH     C2 7218   5.828   5.763   3.002 -0.0695 -0.0789 -0.2418
    11RH     N1 7219   5.629   5.700   2.885 -0.2652  0.1466 -0.0322
    11RH     S1 7220   5.694   5.841   3.100  0.0882 -0.3201  0.1706
    11RH     C3 7221   5.567   5.773   2.985 -0.1037 -0.0851  0.2406
    11RH     C4 7222   5.554   5.627   2.780 -0.2460  0.2256 -0.4636
    11RH     S2 7223   5.402   5.801   3.005 -0.0737 -0.1591  0.5946
    11RH     O1 7224   5.834   5.627   2.802 -0.3974  0.3672 -0.5606
    11RH     C5 7225   5.959   5.769   3.027 -0.0260 -0.1115 -0.4602
    21BTZ    C6 7226   6.051   5.840   3.119  0.0060 -0.0972 -0.2418
    21BTZ    C7 7227   6.014   5.942   3.202 -0.1057 -0.1996 -0.1656
    21BTZ    C8 7228   6.187   5.795   3.122  0.0185 -0.0541 -0.1654
    21BTZ    C9 7229   6.107   6.005   3.292 -0.2100 -0.2640 -0.0116
    21BTZ   C10 7230   6.238   5.965   3.299 -0.2025 -0.2264  0.0661
    21BTZ   C11 7231   6.282   5.859   3.214 -0.0875 -0.1197 -0.0089
    21BTZ    N2 7232   6.236   5.696   3.046  0.1224  0.0443 -0.2276
    21BTZ    N3 7233   6.407   5.811   3.211 -0.0688 -0.0739  0.0549
    21BTZ    S3 7234   6.408   5.680   3.089  0.0885  0.0576 -0.0855
    31IDT   C12 7235   6.334   6.037   3.391  0.5238  0.0264  0.2127
    31IDT   C13 7236   6.470   6.025   3.393  0.5453  0.2587  0.1924
    31IDT   C14 7237   6.532   6.114   3.486  0.4174  0.4522  0.0935
    31IDT   C15 7238   6.444   6.194   3.555  0.2981  0.3688  0.0378
    31IDT    S4 7239   6.274   6.163   3.507  0.3387  0.0359  0.1070
    4IDB    C16 7240   6.515   6.272   3.649 -0.0318  0.4433 -0.3345
    4IDB    C17 7241   6.654   6.240   3.641 -0.0262  0.4591 -0.3029
    51IDQ   C18 7242   6.675   6.146   3.520 -0.5341 -0.1151 -0.7596
    4IDB    C19 7243   6.744   6.287   3.736 -0.0838  0.3095 -0.1761
    51IDQ   C20 7244   6.759   6.225   3.414 -0.2383  0.6520  0.0028
    51IDQ   C21 7245   6.764   6.022   3.552 -0.3698  0.9270  0.9425
    51IDQ   C22 7246   6.798   5.974   3.693  0.5079  0.8364  0.2028
    51IDQ   C23 7247   6.716   6.257   3.277 -0.2562 -0.3967  0.1129
    51IDQ   C24 7248   6.910   5.873   3.707  0.6518  0.4882  0.0657
    51IDQ   C25 7249   6.889   5.746   3.622  0.3096 -0.5653  0.3548
    51IDQ   C26 7250   7.006   5.651   3.597  0.5709 -0.2415 -0.1124
    51IDQ   C27 7251   6.957   5.519   3.534 -0.3700  0.5992 -0.4796
    51IDQ   C28 7252   6.852   5.436   3.614  0.3576 -0.4040  0.2491
    51IDQ   C29 7253   6.808   5.307   3.564 -0.9239  0.2746  0.7090
    51IDQ   C30 7254   6.709   6.139   3.182 -0.5322  0.7227 -0.0534
    51IDQ   C31 7255   6.854   6.077   3.159  0.7497  0.5504 -0.2606
    51IDQ   C32 7256   6.879   5.951   3.084 -0.1465  0.2627  0.6918
    51IDQ   C33 7257   6.796   5.839   3.136  0.4939  0.3041 -0.1276
    51IDQ   C34 7258   6.859   5.703   3.098  0.3793 -0.3369 -0.0085
    51IDQ   C35 7259   6.796   5.575   3.159  0.2136  0.3126  0.4052
    4IDB    C36 7260   6.465   6.351   3.754 -0.0955  0.2767 -0.2388
    4IDB    C37 7261   6.558   6.397   3.851 -0.1538  0.1252 -0.1097
    11RH    C38 7262   5.517   5.693   2.646 -0.1261 -0.1363  0.1341
    4IDB    C39 7263   6.694   6.365   3.841 -0.1474  0.1426 -0.0805
    62IDT   C40 7264   6.768   6.411   3.952 -0.1312 -0.0559  0.0613
    72IDQ   C41 7265   6.540   6.477   3.983  0.4526  0.0207  0.2123
    62IDT   C42 7266   6.680   6.459   4.047 -0.0218 -0.0823  0.1768
    72IDQ   C43 7267   6.433   6.411   4.084 -0.5200  0.0069 -0.0730
    72IDQ   C44 7268   6.508   6.629   3.957 -0.4004 -0.7132  0.6971
    62IDT    S5 7269   6.936   6.403   4.015 -0.0483 -0.0157 -0.1553
    62IDT   C45 7270   6.875   6.469   4.173  0.1390 -0.0378 -0.0744
    62IDT   C46 7271   6.740   6.492   4.172  0.1311 -0.0719  0.1003
    82BTZ   C47 7272   6.972   6.478   4.287  0.3044 -0.4430  0.1597
    82BTZ   C48 7273   7.102   6.439   4.268  0.3585 -0.2934  0.2160
    82BTZ   C49 7274   7.198   6.442   4.375  0.3598  0.0110  0.2062
    82BTZ   C50 7275   7.165   6.485   4.501  0.3072  0.1649  0.1404
    82BTZ   C51 7276   6.932   6.524   4.417  0.2480 -0.2915  0.0896
    82BTZ   C52 7277   7.031   6.527   4.526  0.2494  0.0179  0.0798
    92RH    C53 7278   7.262   6.512   4.609  0.0665  0.5274 -0.1042
    82BTZ    N4 7279   6.809   6.565   4.448  0.1925 -0.4135  0.0308
    82BTZ    N5 7280   6.986   6.571   4.644  0.1951  0.1444  0.0131
    82BTZ    S6 7281   6.813   6.610   4.621  0.1386 -0.1323 -0.0412
    92RH    C54 7282   7.395   6.505   4.613  0.0442  0.1196 -0.0421
    92RH     S7 7283   7.508   6.452   4.478 -0.0583 -0.3321  0.0460
    92RH    C55 7284   7.475   6.540   4.734  0.1013 -0.0322 -0.0356
    92RH     O2 7285   7.429   6.579   4.842  0.1750  0.1951 -0.0856
    92RH     N6 7286   7.613   6.523   4.711  0.0613 -0.4766  0.0360
    92RH    C56 7287   7.654   6.479   4.587 -0.0207 -0.6995  0.0874
    92RH    C57 7288   7.720   6.557   4.812 -0.2713  0.3357  0.1349
    92RH    C58 7289   7.794   6.452   4.896  0.5249 -0.0521  0.4963
    92RH     S8 7290   7.812   6.450   4.534 -0.0822 -1.2270  0.1758
    72IDQ   C59 7291   6.521   6.731   4.070 -0.3666  0.5858  0.3440
    72IDQ   C60 7292   6.489   6.864   4.017  0.0528 -0.3921 -0.5837
    72IDQ   C61 7293   6.457   6.966   4.131  0.0954  0.1791  0.0641
    72IDQ   C62 7294   6.321   6.946   4.193  0.3630 -0.0708 -0.7113
    72IDQ   C63 7295   6.195   6.963   4.109 -0.1062 -0.3759 -0.2063
    72IDQ   C64 7296   6.064   6.988   4.175  0.3431 -0.3265 -0.2923
    72IDQ   C65 7297   6.020   7.126   4.231  0.5810  0.3555 -0.3411
    72IDQ   C66 7298   6.284   6.440   4.065 -0.4784  0.0892 -0.0196
    72IDQ   C67 7299   6.192   6.426   4.185 -0.4986  0.0557  0.7730
    72IDQ   C68 7300   6.247   6.507   4.298  0.5643  0.2480  0.4954
    72IDQ   C69 7301   6.171   6.485   4.430 -0.0289  0.1053  0.2662
    72IDQ   C70 7302   6.249   6.536   4.551  0.4595 -0.2939 -0.4617
    72IDQ   C71 7303   6.289   6.683   4.553 -0.2714 -0.5516 -0.3969
    72IDQ   C72 7304   6.374   6.721   4.687  0.0852 -0.1610 -0.2508
    11RH     C1 7305   0.513   4.837   4.330 -0.1261  0.1935  0.2848
    11RH     C2 7306   0.623   4.930   4.365  0.0165  0.1118  0.0544
    11RH     N1 7307   0.459   4.866   4.203 -0.2252  0.0961  0.3042
    11RH     S1 7308   0.648   5.050   4.228  0.0109 -0.0876 -0.1215
    11RH     C3 7309   0.512   4.971   4.131 -0.1795 -0.0536  0.1178
    11RH     C4 7310   0.344   4.794   4.146 -0.4129  0.4527 -0.1698
    11RH     S2 7311   0.466   5.026   3.979 -0.2755 -0.1920  0.0967
    11RH     O1 7312   0.471   4.745   4.402 -0.1575  0.3301  0.4433
    11RH     C5 7313   0.691   4.925   4.480  0.1294  0.1781 -0.0091
    21BTZ    C6 7314   0.800   5.007   4.531  0.1708 -0.1806 -0.1316
    21BTZ    C7 7315   0.858   5.109   4.461  0.1993 -0.2112 -0.1523
    21BTZ    C8 7316   0.851   4.975   4.661  0.0860 -0.0913 -0.0757
    21BTZ    C9 7317   0.970   5.184   4.515  0.1462 -0.1560 -0.1194
    21BTZ   C10 7318   1.022   5.157   4.638  0.0648 -0.0702 -0.0658
    21BTZ   C11 7319   0.964   5.051   4.716  0.0321 -0.0350 -0.0422
    21BTZ    N2 7320   0.803   4.878   4.739  0.0512 -0.0540 -0.0509
    21BTZ    N3 7321   1.006   5.015   4.837 -0.0460  0.0473  0.0094
    21BTZ    S3 7322   0.901   4.880   4.888 -0.0542  0.0567  0.0178
    31IDT   C12 7323   1.133   5.247   4.684 -0.2502  0.1180  0.1392
    31IDT   C13 7324   1.181   5.262   4.812  0.0030  0.0223  0.0567
    31IDT   C14 7325   1.273   5.371   4.824  0.2559 -0.1713 -0.1054
    31IDT   C15 7326   1.296   5.439   4.706  0.1974 -0.2243 -0.1475
    31IDT    S4 7327   1.202   5.370   4.569 -0.1860 -0.0316  0.0163
    4IDB    C16 7328   1.379   5.555   4.727  0.4220 -0.1677  0.1851
    4IDB    C17 7329   1.427   5.556   4.861  0.6011 -0.1197  0.1218
    51IDQ   C18 7330   1.356   5.439   4.937 -0.0744  0.1577 -0.0293
    4IDB    C19 7331   1.523   5.649   4.902  0.7160 -0.1568 -0.0583
    51IDQ   C20 7332   1.477   5.349   4.986 -0.3763 -0.2454  0.0453
    51IDQ   C21 7333   1.265   5.473   5.066  0.1678  0.4288  0.6768
    51IDQ   C22 7334   1.219   5.614   5.095  0.2882  0.2455 -0.1803
    51IDQ   C23 7335   1.511   5.213   4.911  0.1314 -0.0370  0.1806
    51IDQ   C24 7336   1.140   5.616   5.227  0.0339  0.2557  0.0984
    51IDQ   C25 7337   1.103   5.758   5.267 -0.2155  0.0151 -0.4256
    51IDQ   C26 7338   1.058   5.777   5.418 -0.8930 -0.2267 -0.5614
    51IDQ   C27 7339   1.184   5.758   5.508 -0.0981  0.0710 -0.1044
    51IDQ   C28 7340   1.179   5.779   5.658 -0.4277  0.0893 -0.1803
    51IDQ   C29 7341   1.077   5.698   5.744 -0.0993 -0.0522  0.2033
    51IDQ   C30 7342   1.430   5.088   4.945 -0.0198 -0.4810 -0.1636
    51IDQ   C31 7343   1.424   5.045   5.086 -0.0747  0.6997 -0.4429
    51IDQ   C32 7344   1.322   4.939   5.119  0.8024  0.1516  0.0325
    51IDQ   C33 7345   1.284   4.933   5.268 -0.6435  0.0952  0.4767
    51IDQ   C34 7346   1.153   4.863   5.284 -0.0674 -0.3846  0.0169
    51IDQ   C35 7347   1.098   4.858   5.429  0.0127  0.4959  0.5424
    4IDB    C36 7348   1.427   5.647   4.632  0.3567 -0.2538  0.0678
    4IDB    C37 7349   1.525   5.741   4.676  0.4762 -0.2908 -0.1160
    11RH    C38 7350   0.379   4.642   4.098 -0.3912 -0.2242  0.5066
    4IDB    C39 7351   1.570   5.741   4.808  0.6507 -0.2428 -0.1756
    62IDT   C40 7352   1.666   5.848   4.821  0.1334  0.0062 -0.3495
    72IDQ   C41 7353   1.581   5.865   4.601 -0.0101  0.8794  0.5109
    62IDT   C42 7354   1.677   5.920   4.703  0.3182  0.1326 -0.2567
    72IDQ   C43 7355   1.465   5.957   4.560  1.0414 -0.3280  0.2846
    72IDQ   C44 7356   1.658   5.813   4.467  0.3620 -0.1106  0.1253
    62IDT    S5 7357   1.796   5.891   4.937 -0.1360 -0.0119 -0.0411
    62IDT   C45 7358   1.861   6.010   4.816  0.0233  0.1609  0.2092
    62IDT   C46 7359   1.787   6.011   4.700  0.2563  0.2203  0.0594
    82BTZ   C47 7360   1.974   6.098   4.851  0.1586 -0.1204  0.0298
    82BTZ   C48 7361   2.002   6.111   4.984  0.2708 -0.1545  0.0097
    82BTZ   C49 7362   2.113   6.189   5.031  0.2630 -0.1014 -0.0601
    82BTZ   C50 7363   2.197   6.255   4.945  0.1431 -0.0142 -0.1092
    82BTZ   C51 7364   2.058   6.166   4.756  0.0305 -0.0291 -0.0199
    82BTZ   C52 7365   2.171   6.246   4.804  0.0226  0.0248 -0.0907
    92RH    C53 7366   2.319   6.315   4.992  0.2568  0.3237 -0.0818
    82BTZ    N4 7367   2.041   6.162   4.624 -0.0858  0.0116 -0.0063
    82BTZ    N5 7368   2.245   6.306   4.710 -0.1000  0.1091 -0.1340
    82BTZ    S6 7369   2.172   6.261   4.553 -0.2131  0.1230 -0.0852
    92RH    C54 7370   2.377   6.314   5.113  0.1916  0.2038 -0.0507
    92RH     S7 7371   2.320   6.224   5.262  0.0281  0.1741 -0.1308
    92RH    C55 7372   2.501   6.390   5.144  0.2441  0.0728  0.0571
    92RH     O2 7373   2.564   6.461   5.064  0.3524  0.0583  0.1304
    92RH     N6 7374   2.540   6.371   5.278  0.1549 -0.0371  0.0681
    92RH    C56 7375   2.462   6.290   5.358  0.0371 -0.0101 -0.0178
    92RH    C57 7376   2.660   6.439   5.335 -0.2483 -0.1471 -0.1847
    92RH    C58 7377   2.794   6.370   5.358  0.4891  0.0667 -0.3167
    92RH     S8 7378   2.487   6.251   5.521 -0.0854 -0.1221 -0.0256
    72IDQ   C59 7379   1.699   5.921   4.366 -0.7175  0.1839  0.4449
    72IDQ   C60 7380   1.775   5.888   4.238  0.0282  0.5239  0.2437
    72IDQ   C61 7381   1.889   5.788   4.253 -0.0056 -0.0721  0.6128
    72IDQ   C62 7382   1.970   5.763   4.127  0.5670 -0.0033 -0.6131
    72IDQ   C63 7383   1.913   5.652   4.029  0.0209 -0.1841 -0.6794
    72IDQ   C64 7384   1.996   5.636   3.906 -0.0204 -0.0941 -0.3957
    72IDQ   C65 7385   1.951   5.526   3.819  0.1340  0.0028 -0.1717
    72IDQ   C66 7386   1.352   5.995   4.662 -0.0119 -0.3573 -0.3830
    72IDQ   C67 7387   1.233   6.066   4.597  0.5176  0.0563 -0.0613
    72IDQ   C68 7388   1.118   6.075   4.695  0.1406  0.7260  0.1713
    72IDQ   C69 7389   0.985   6.116   4.631 -0.1478  0.3187  0.0843
    72IDQ   C70 7390   0.878   6.115   4.742  0.7041 -0.9518 -0.0358
    72IDQ   C71 7391   0.740   6.153   4.699 -0.3570  0.6694  0.5165
    72IDQ   C72 7392   0.635   6.177   4.801  0.3645 -0.1102  0.2212
    11RH     C1 7393   5.565   6.179   1.609  0.3703  0.0126 -0.0206
    11RH     C2 7394   5.574   6.323   1.576  0.3182 -0.0169 -0.1658
    11RH     N1 7395   5.635   6.149   1.728  0.1551  0.2054  0.1599
    11RH     S1 7396   5.675   6.409   1.703 -0.0099  0.2108 -0.0555
    11RH     C3 7397   5.700   6.251   1.793 -0.0627  0.3340  0.1770
    11RH     C4 7398   5.624   6.008   1.779 -0.5376  0.1981 -0.1692
    11RH     S2 7399   5.791   6.241   1.935 -0.3430  0.5701  0.3744
    11RH     O1 7400   5.503   6.094   1.543  0.5748 -0.1135 -0.0497
    11RH     C5 7401   5.516   6.379   1.469  0.4903 -0.1867 -0.3482
    21BTZ    C6 7402   5.515   6.519   1.422 -0.0141 -0.2075  0.1687
    21BTZ    C7 7403   5.587   6.617   1.485  0.0619 -0.2650  0.1712
    21BTZ    C8 7404   5.411   6.558   1.331 -0.0085 -0.1248  0.1976
    21BTZ    C9 7405   5.561   6.757   1.463  0.1465 -0.2443  0.2020
    21BTZ   C10 7406   5.463   6.799   1.377  0.1552 -0.1658  0.2303
    21BTZ   C11 7407   5.384   6.701   1.309  0.0776 -0.1037  0.2289
    21BTZ    N2 7408   5.334   6.472   1.264 -0.0777 -0.0634  0.1983
    21BTZ    N3 7409   5.286   6.729   1.223  0.0776 -0.0253  0.2548
    21BTZ    S3 7410   5.222   6.572   1.166 -0.0347  0.0258  0.2399
    31IDT   C12 7411   5.446   6.945   1.362  0.0295 -0.0462 -0.0141
    31IDT   C13 7412   5.330   7.009   1.327  0.3129  0.1017 -0.7107
    31IDT   C14 7413   5.336   7.150   1.348  0.4681  0.1369 -0.9726
    31IDT   C15 7414   5.456   7.194   1.400  0.3039  0.0163 -0.4786
    31IDT    S4 7415   5.572   7.059   1.426 -0.0629 -0.1527  0.3643
    4IDB    C16 7416   5.450   7.341   1.413 -0.3168  0.1327  0.1397
    4IDB    C17 7417   5.329   7.391   1.355 -0.1247  0.3401 -0.0868
    51IDQ   C18 7418   5.240   7.268   1.328 -0.5615 -0.3264  0.4489
    4IDB    C19 7419   5.308   7.527   1.341  0.1069  0.3791 -0.0624
    51IDQ   C20 7420   5.116   7.274   1.423 -0.1729 -0.2738 -0.5186
    51IDQ   C21 7421   5.178   7.265   1.180  0.0607 -0.2514 -0.1232
    51IDQ   C22 7422   5.177   7.382   1.083 -0.0428 -0.0850  0.2415
    51IDQ   C23 7423   5.083   7.162   1.520  0.1433 -0.5675  0.6757
    51IDQ   C24 7424   5.098   7.342   0.961  0.2299  0.7600  0.0507
    51IDQ   C25 7425   5.097   7.451   0.862 -0.4348  0.3744  0.0900
    51IDQ   C26 7426   5.073   7.407   0.717  0.7258 -1.3323 -0.2930
    51IDQ   C27 7427   5.162   7.308   0.640 -0.4324 -0.8960  0.5194
    51IDQ   C28 7428   5.140   7.282   0.487  0.7454  0.4844 -0.4658
    51IDQ   C29 7429   4.999   7.222   0.449 -0.2636  0.0370  0.0204
    51IDQ   C30 7430   4.933   7.172   1.575 -0.1330 -0.3760  0.0631
    51IDQ   C31 7431   4.909   7.252   1.701 -0.4033 -0.6239 -0.2044
    51IDQ   C32 7432   4.775   7.248   1.770 -0.7333  0.2086  0.5257
    51IDQ   C33 7433   4.708   7.113   1.794  0.7656 -1.0908  0.4150
    51IDQ   C34 7434   4.781   6.995   1.863 -0.1737 -0.6726 -0.2640
    51IDQ   C35 7435   4.700   6.869   1.860 -0.2778 -0.4704 -0.4253
    4IDB    C36 7436   5.551   7.428   1.457 -0.2780 -0.0378  0.3933
    4IDB    C37 7437   5.528   7.567   1.441 -0.0402  0.0050  0.4144
    11RH    C38 7438   5.744   5.927   1.721 -0.0954 -0.1983  0.4877
    4IDB    C39 7439   5.409   7.614   1.385  0.1454  0.2085  0.1912
    62IDT   C40 7440   5.417   7.762   1.367  0.4989  0.0298 -0.1924
    72IDQ   C41 7441   5.616   7.698   1.472  0.4728  0.3481 -0.1604
    62IDT   C42 7442   5.526   7.812   1.435  0.4855  0.2721 -0.3456
    72IDQ   C43 7443   5.757   7.705   1.401  0.2741 -0.4747  0.3227
    72IDQ   C44 7444   5.634   7.710   1.628 -0.3216  0.7695 -0.4921
    62IDT    S5 7445   5.329   7.891   1.278  0.0975 -0.1672 -0.0841
    62IDT   C45 7446   5.450   8.011   1.341 -0.0759  0.1017 -0.2601
    62IDT   C46 7447   5.545   7.952   1.420  0.1605  0.3132 -0.3840
    82BTZ   C47 7448   5.447   8.149   1.290  0.0857 -0.2881  0.0788
    82BTZ   C48 7449   5.380   8.174   1.173  0.0192 -0.4008  0.0926
    82BTZ   C49 7450   5.377   8.305   1.113 -0.1591 -0.4199  0.0578
    82BTZ   C50 7451   5.441   8.412   1.171 -0.2705 -0.3265  0.0093
    82BTZ   C51 7452   5.515   8.257   1.354 -0.0257 -0.1873  0.0283
    82BTZ   C52 7453   5.512   8.391   1.294 -0.2069 -0.2068 -0.0070
    92RH    C53 7454   5.449   8.544   1.113 -0.4001 -0.0049  0.2855
    82BTZ    N4 7455   5.583   8.246   1.469  0.0240 -0.0735  0.0105
    82BTZ    N5 7456   5.578   8.487   1.360 -0.3028 -0.1087 -0.0533
    82BTZ    S6 7457   5.648   8.408   1.505 -0.1625  0.0155 -0.0537
    92RH    C54 7458   5.410   8.598   0.997 -0.1696  0.0592  0.2380
    92RH     S7 7459   5.320   8.514   0.861 -0.1672  0.2161  0.1393
    92RH    C55 7460   5.436   8.739   0.960  0.1289  0.0106  0.2590
    92RH     O2 7461   5.496   8.822   1.030  0.1999 -0.0929  0.3218
    92RH     N6 7462   5.385   8.770   0.832  0.3293  0.0976  0.1979
    92RH    C56 7463   5.320   8.670   0.762  0.2278  0.2100  0.1305
    92RH    C57 7464   5.389   8.910   0.792 -0.2517  0.9683  0.0567
    92RH    C58 7465   5.505   8.956   0.709  0.1246  0.2066 -0.6202
    92RH     S8 7466   5.251   8.680   0.609  0.4197  0.3288  0.0498
    72IDQ   C59 7467   5.716   7.611   1.708  0.2550  0.0414  0.1951
    72IDQ   C60 7468   5.750   7.651   1.855  0.4034  0.3825 -0.0881
    72IDQ   C61 7469   5.848   7.553   1.917  0.3822 -0.3827  0.3441
    72IDQ   C62 7470   5.915   7.585   2.051  0.8020  0.1317 -0.6265
    72IDQ   C63 7471   6.000   7.706   2.047  0.5359 -0.5535 -0.5232
    72IDQ   C64 7472   6.054   7.739   2.182 -0.5438 -0.1637  0.5543
    72IDQ   C65 7473   6.168   7.844   2.176  0.0254 -0.1807 -0.1432
    72IDQ   C66 7474   5.811   7.595   1.318  0.2898  0.4614  0.5723
    72IDQ   C67 7475   5.961   7.586   1.302 -0.6221 -0.1392  0.1108
    72IDQ   C68 7476   6.061   7.609   1.415  0.1644  0.0467 -0.4913
    72IDQ   C69 7477   6.054   7.520   1.536  0.2382  0.5164  0.6594
    72IDQ   C70 7478   6.169   7.554   1.630 -0.2668  0.4546 -0.7420
    72IDQ   C71 7479   6.188   7.441   1.731 -0.2871  0.5210  0.3406
    72IDQ   C72 7480   6.291   7.467   1.846  0.2356  0.1836  0.5913
    11RH     C1 7481   0.567   3.499   6.621  0.0306  0.0837  0.2494
    11RH     C2 7482   0.574   3.375   6.540  0.0917  0.1990  0.0762
    11RH     N1 7483   0.434   3.538   6.645  0.0110 -0.0305  0.3280
    11RH     S1 7484   0.404   3.318   6.501  0.1193  0.1497  0.0279
    11RH     C3 7485   0.333   3.461   6.593  0.0488 -0.0210  0.2390
    11RH     C4 7486   0.409   3.653   6.729  0.0788 -0.7496 -0.1144
    11RH     S2 7487   0.166   3.485   6.607  0.0364 -0.1414  0.3031
    11RH     O1 7488   0.665   3.563   6.663 -0.0004  0.0846  0.3195
    11RH     C5 7489   0.688   3.317   6.503  0.1207  0.3192 -0.0256
    21BTZ    C6 7490   0.727   3.204   6.413  0.1114  0.3434 -0.3077
    21BTZ    C7 7491   0.633   3.132   6.344  0.1610  0.4251 -0.4605
    21BTZ    C8 7492   0.866   3.174   6.394  0.1197  0.2590 -0.1225
    21BTZ    C9 7493   0.671   3.027   6.252  0.2207  0.4281 -0.4393
    21BTZ   C10 7494   0.802   2.994   6.230  0.2309  0.3493 -0.2653
    21BTZ   C11 7495   0.904   3.067   6.301  0.1805  0.2620 -0.1010
    21BTZ    N2 7496   0.966   3.237   6.455  0.0750  0.1751  0.0370
    21BTZ    N3 7497   1.035   3.044   6.288  0.1847  0.1806  0.0757
    21BTZ    S3 7498   1.117   3.161   6.396  0.1095  0.0948  0.2254
    31IDT   C12 7499   0.831   2.884   6.134  0.1287  0.0111  0.1418
    31IDT   C13 7500   0.951   2.853   6.076  0.0511  0.1512 -0.0948
    31IDT   C14 7501   0.941   2.747   5.981 -0.0304  0.2067 -0.1482
    31IDT   C15 7502   0.813   2.697   5.966 -0.0155  0.1094  0.0470
    31IDT    S4 7503   0.695   2.780   6.072  0.1040 -0.0616  0.3157
    4IDB    C16 7504   0.811   2.599   5.860 -0.2122  0.2789 -0.1851
    4IDB    C17 7505   0.946   2.587   5.814 -0.0532 -0.0690  0.3625
    51IDQ   C18 7506   1.044   2.670   5.903 -0.2458 -0.5894  0.6575
    4IDB    C19 7507   0.977   2.508   5.704  0.2363 -0.3790  0.6598
    51IDQ   C20 7508   1.133   2.571   5.980 -0.4158 -0.0958 -0.0368
    51IDQ   C21 7509   1.142   2.779   5.832 -0.2786  0.0631  0.3764
    51IDQ   C22 7510   1.157   2.812   5.683  0.0675  0.5833 -0.3682
    51IDQ   C23 7511   1.153   2.581   6.134  0.1567  0.0549  0.2620
    51IDQ   C24 7512   1.274   2.903   5.660  0.4046  0.2985 -0.0481
    51IDQ   C25 7513   1.264   2.944   5.516 -0.3916  0.2080  0.8221
    51IDQ   C26 7514   1.357   3.052   5.476  0.0913  0.6904 -0.1078
    51IDQ   C27 7515   1.321   3.100   5.335  0.1422 -0.3024 -0.6222
    51IDQ   C28 7516   1.396   3.217   5.290  0.1831 -0.3799 -0.4439
    51IDQ   C29 7517   1.389   3.227   5.139 -0.0405  0.6538 -0.0391
    51IDQ   C30 7518   1.257   2.685   6.169  0.4915  0.3341  0.2533
    51IDQ   C31 7519   1.263   2.721   6.317  0.2376 -0.7030  0.3264
    51IDQ   C32 7520   1.372   2.818   6.373 -0.1805  0.1775 -0.1452
    51IDQ   C33 7521   1.427   2.940   6.298  0.3195  0.2131  0.9690
    51IDQ   C34 7522   1.535   3.025   6.369  0.0446 -0.3027 -0.0488
    51IDQ   C35 7523   1.676   2.969   6.389  0.3108  0.4140  0.3333
    4IDB    C36 7524   0.706   2.533   5.795 -0.0816  0.3188 -0.4399
    4IDB    C37 7525   0.740   2.453   5.682  0.2145 -0.0009 -0.1297
    11RH    C38 7526   0.380   3.625   6.873  0.4178  0.0352 -0.7372
    4IDB    C39 7527   0.872   2.442   5.639  0.3669 -0.3390  0.4051
    62IDT   C40 7528   0.871   2.347   5.525  0.0033 -0.2704  0.1437
    72IDQ   C41 7529   0.644   2.369   5.598 -0.0326  0.2292 -0.0723
    62IDT   C42 7530   0.744   2.299   5.504  0.0523 -0.5183  0.4106
    72IDQ   C43 7531   0.549   2.467   5.523  0.4663 -0.2295  0.6611
    72IDQ   C44 7532   0.555   2.270   5.696 -0.1599  0.0756  0.8922
    62IDT    S5 7533   0.987   2.284   5.404 -0.0591 -0.3204  0.1096
    62IDT   C45 7534   0.851   2.191   5.327 -0.0134 -0.6920  0.4760
    62IDT   C46 7535   0.732   2.210   5.393  0.0429 -0.7569  0.5988
    82BTZ   C47 7536   0.875   2.121   5.199 -0.2060  0.0226  0.1817
    82BTZ   C48 7537   0.983   2.155   5.122 -0.2517  0.1566  0.1750
    82BTZ   C49 7538   1.014   2.085   4.999 -0.3222  0.3676  0.0365
    82BTZ   C50 7539   0.936   1.982   4.954 -0.3468  0.4443 -0.0951
    82BTZ   C51 7540   0.790   2.014   5.155 -0.2293  0.0955  0.0467
    82BTZ   C52 7541   0.821   1.944   5.030 -0.3010  0.3100 -0.0941
    92RH    C53 7542   0.974   1.903   4.833 -0.0619 -0.2405  0.0346
    82BTZ    N4 7543   0.682   1.973   5.221 -0.1897 -0.0203  0.0391
    82BTZ    N5 7544   0.738   1.845   4.996 -0.3189  0.3666 -0.2148
    82BTZ    S6 7545   0.613   1.838   5.125 -0.2435  0.1436 -0.1526
    92RH    C54 7546   1.079   1.907   4.751 -0.1260 -0.0472 -0.0402
    92RH     S7 7547   1.212   2.033   4.747 -0.4048  0.2453 -0.1920
    92RH    C55 7548   1.104   1.805   4.646  0.0250 -0.0411 -0.0101
    92RH     O2 7549   1.033   1.706   4.622  0.2247 -0.2106  0.0859
    92RH     N6 7550   1.222   1.833   4.574 -0.0865  0.1853 -0.1054
    92RH    C56 7551   1.295   1.945   4.608 -0.3084  0.3614 -0.2081
    92RH    C57 7552   1.254   1.748   4.455  0.7118 -0.5867 -1.2104
    92RH    C58 7553   1.321   1.618   4.485 -0.4717 -0.5881 -0.1222
    92RH     S8 7554   1.438   2.001   4.538 -0.4784  0.6442 -0.3337
    72IDQ   C59 7555   0.571   2.121   5.690  0.1466 -1.0920 -0.0778
    72IDQ   C60 7556   0.463   2.037   5.758  0.4325  0.1707  0.0362
    72IDQ   C61 7557   0.428   2.067   5.904 -0.3441  0.1350  0.3175
    72IDQ   C62 7558   0.327   1.968   5.964 -0.0339  0.3330  0.5013
    72IDQ   C63 7559   0.275   2.022   6.096 -0.8091  0.8268 -0.4851
    72IDQ   C64 7560   0.165   1.944   6.171  0.0699  0.0268  0.0800
    72IDQ   C65 7561   0.123   1.992   6.305  0.0650  0.2651  0.5522
    72IDQ   C66 7562   0.434   2.408   5.431 -0.0801  0.3391 -0.0105
    72IDQ   C67 7563   0.331   2.493   5.354  0.3406 -0.0438 -0.0230
    72IDQ   C68 7564   0.390   2.606   5.270  0.4589  0.0614  0.2313
    72IDQ   C69 7565   0.285   2.691   5.208  0.2459  0.1329  0.6108
    72IDQ   C70 7566   0.327   2.834   5.183  0.5877  0.7714  0.2661
    72IDQ   C71 7567   0.363   2.912   5.309 -0.2610  0.2927 -0.3807
    72IDQ   C72 7568   0.372   3.061   5.280 -0.0159 -0.1838  0.3804
    11RH     C1 7569   6.344   0.094   3.276 -0.2578 -0.0837 -0.1963
    11RH     C2 7570   6.337  -0.047   3.229 -0.2252 -0.1422 -0.0282
    11RH     N1 7571   6.430   0.106   3.388 -0.1263  0.0992 -0.3175
    11RH     S1 7572   6.444  -0.153   3.334 -0.0234  0.0472 -0.0403
    11RH     C3 7573   6.492  -0.007   3.436  0.0079  0.1945 -0.2670
    11RH     C4 7574   6.442   0.235   3.465 -0.3917 -0.0644  0.7752
    11RH     S2 7575   6.598  -0.018   3.566  0.1793  0.4122 -0.3856
    11RH     O1 7576   6.283   0.190   3.226 -0.3837 -0.1801 -0.2300
    11RH     C5 7577   6.263  -0.086   3.125 -0.3302 -0.3092  0.1087
    21BTZ    C6 7578   6.243  -0.211   3.064  0.2621  0.3283 -0.1715
    21BTZ    C7 7579   6.300  -0.326   3.113  0.2378  0.3406 -0.1142
    21BTZ    C8 7580   6.181  -0.214   2.935  0.2134  0.2630 -0.1466
    21BTZ    C9 7581   6.299  -0.449   3.038  0.1650  0.2896 -0.0302
    21BTZ   C10 7582   6.241  -0.457   2.914  0.1164  0.2264 -0.0036
    21BTZ   C11 7583   6.180  -0.339   2.859  0.1392  0.2110 -0.0613
    21BTZ    N2 7584   6.123  -0.109   2.877  0.2308  0.2450 -0.1967
    21BTZ    N3 7585   6.121  -0.335   2.739  0.0972  0.1514 -0.0427
    21BTZ    S3 7586   6.063  -0.167   2.719  0.1514  0.1590 -0.1355
    31IDT   C12 7587   6.270  -0.574   2.831  0.1252 -0.2465 -0.0855
    31IDT   C13 7588   6.193  -0.634   2.734  0.1795 -0.2019 -0.1565
    31IDT   C14 7589   6.258  -0.746   2.673  0.2482 -0.1214 -0.2322
    31IDT   C15 7590   6.384  -0.772   2.723  0.2466 -0.1040 -0.2193
    31IDT    S4 7591   6.431  -0.656   2.852  0.1575 -0.1890 -0.1095
    4IDB    C16 7592   6.444  -0.880   2.647  0.2264  0.2991 -0.4282
    4IDB    C17 7593   6.359  -0.919   2.540  0.1222  0.3407 -0.3604
    51IDQ   C18 7594   6.226  -0.844   2.559 -0.2287  0.3390 -0.3436
    4IDB    C19 7595   6.400  -1.012   2.445 -0.0743  0.1664 -0.2776
    51IDQ   C20 7596   6.204  -0.773   2.420  0.1147 -0.6496  0.5530
    51IDQ   C21 7597   6.105  -0.933   2.584  0.7460  0.2482 -0.2593
    51IDQ   C22 7598   6.102  -1.088   2.623 -0.2271 -0.7030  0.3395
    51IDQ   C23 7599   6.200  -0.624   2.385 -0.2447 -0.1487  0.2191
    51IDQ   C24 7600   6.167  -1.121   2.755  0.4159  0.1304 -0.0167
    51IDQ   C25 7601   6.196  -1.267   2.762 -0.1220  0.5853  0.3646
    51IDQ   C26 7602   6.210  -1.316   2.904  0.0216 -0.4855 -0.4544
    51IDQ   C27 7603   6.253  -1.467   2.907  0.3325 -0.4687 -0.0286
    51IDQ   C28 7604   6.295  -1.521   3.044 -0.0862  0.8819 -0.5690
    51IDQ   C29 7605   6.172  -1.523   3.136  0.6640 -0.0637 -0.3984
    51IDQ   C30 7606   6.154  -0.595   2.248 -0.7004 -0.4880  0.1544
    51IDQ   C31 7607   6.125  -0.444   2.227  0.1687  0.6262 -0.1436
    51IDQ   C32 7608   6.250  -0.385   2.164 -0.1146  0.0316 -0.2824
    51IDQ   C33 7609   6.227  -0.259   2.087 -0.3073  0.4523 -0.1148
    51IDQ   C34 7610   6.352  -0.227   2.001 -0.0874 -0.2365 -0.1217
    51IDQ   C35 7611   6.348  -0.096   1.922 -0.2473 -0.2836 -0.7598
    4IDB    C36 7612   6.573  -0.934   2.661  0.1341  0.0814 -0.4133
    4IDB    C37 7613   6.614  -1.029   2.563 -0.0669 -0.0945 -0.3281
    11RH    C38 7614   6.534   0.340   3.401  0.0857 -0.1481  0.4006
    4IDB    C39 7615   6.529  -1.066   2.459 -0.1666 -0.0510 -0.2626
    62IDT   C40 7616   6.599  -1.164   2.374 -0.2727  0.1593 -0.3962
    72IDQ   C41 7617   6.755  -1.087   2.538 -0.3504 -1.4602 -0.1507
    62IDT   C42 7618   6.722  -1.190   2.430 -0.4393  0.1582 -0.0206
    72IDQ   C43 7619   6.814  -1.143   2.675  0.2347 -0.2652 -0.1491
    72IDQ   C44 7620   6.858  -0.967   2.504  0.1443 -0.3588  0.5385
    62IDT    S5 7621   6.569  -1.262   2.227  0.0101 -0.1361 -0.2588
    62IDT   C45 7622   6.733  -1.337   2.249 -0.1178 -0.2513  0.3280
    62IDT   C46 7623   6.798  -1.288   2.359 -0.3520 -0.0739  0.3894
    82BTZ   C47 7624   6.782  -1.446   2.160 -0.0968 -0.0775 -0.4898
    82BTZ   C48 7625   6.686  -1.530   2.110  0.0064 -0.1926 -0.4947
    82BTZ   C49 7626   6.720  -1.641   2.024  0.1588 -0.2432 -0.3701
    82BTZ   C50 7627   6.850  -1.667   1.988  0.2077 -0.1784 -0.2410
    82BTZ   C51 7628   6.919  -1.469   2.126 -0.0510 -0.0060 -0.3571
    82BTZ   C52 7629   6.954  -1.582   2.039  0.1038 -0.0573 -0.2305
    92RH    C53 7630   6.885  -1.770   1.893  0.2036 -0.0934 -0.0998
    82BTZ    N4 7631   7.021  -1.394   2.168 -0.1412  0.1073 -0.3392
    82BTZ    N5 7632   7.084  -1.598   2.011  0.1381  0.0148 -0.1108
    82BTZ    S6 7633   7.169  -1.466   2.097 -0.0296  0.1541 -0.1557
    92RH    C54 7634   6.807  -1.850   1.820  0.1174 -0.0439 -0.0613
    92RH     S7 7635   6.623  -1.853   1.821  0.1144  0.1137 -0.0166
    92RH    C55 7636   6.858  -1.952   1.726  0.0077 -0.1119 -0.0488
    92RH     O2 7637   6.978  -1.974   1.702 -0.0172 -0.2205 -0.0718
    92RH     N6 7638   6.753  -2.022   1.663 -0.0677 -0.0372 -0.0064
    92RH    C56 7639   6.623  -1.989   1.695 -0.0317  0.0821  0.0165
    92RH    C57 7640   6.788  -2.126   1.566 -0.2704  0.6054 -0.4832
    92RH    C58 7641   6.804  -2.085   1.422 -0.2518  0.1411  0.5131
    92RH     S8 7642   6.481  -2.056   1.635 -0.1043  0.1892  0.0671
    72IDQ   C59 7643   6.983  -0.996   2.423 -0.3567 -0.0855 -0.7018
    72IDQ   C60 7644   7.078  -1.097   2.495 -0.0201 -0.0652 -0.1438
    72IDQ   C61 7645   7.211  -1.105   2.422 -0.8770 -0.7043  0.1752
    72IDQ   C62 7646   7.321  -1.204   2.460 -0.3806  0.1427  0.4182
    72IDQ   C63 7647   7.448  -1.165   2.396 -0.0031 -0.1646  0.1638
    72IDQ   C64 7648   7.575  -1.229   2.451 -0.0939  0.4221 -0.3106
    72IDQ   C65 7649   7.703  -1.205   2.374 -0.4000 -0.6259  0.0312
    72IDQ   C66 7650   6.796  -1.287   2.730 -0.2923 -0.5867  0.0147
    72IDQ   C67 7651   6.659  -1.319   2.792 -0.2301  0.2830 -0.2935
    72IDQ   C68 7652   6.624  -1.468   2.805  0.1429  0.2498  0.1705
    72IDQ   C69 7653   6.617  -1.562   2.680 -0.0132 -0.2410 -0.1627
    72IDQ   C70 7654   6.566  -1.499   2.550  0.2365  0.5876  0.9455
    72IDQ   C71 7655   6.414  -1.457   2.548 -0.4402  0.6751 -0.3379
    72IDQ   C72 7656   6.336  -1.520   2.434  0.4694  0.8470  0.3570
    11RH     C1 7657   6.472   1.285   1.231  0.2120  0.0152 -0.2107
    11RH     C2 7658   6.519   1.198   1.342  0.0013  0.1073 -0.0482
    11RH     N1 7659   6.523   1.416   1.243  0.0753  0.0625 -0.1437
    11RH     S1 7660   6.627   1.295   1.455 -0.3629  0.2499  0.1820
    11RH     C3 7661   6.605   1.445   1.350 -0.2191  0.1811  0.0525
    11RH     C4 7662   6.500   1.522   1.142  0.0282  1.3464 -0.1662
    11RH     S2 7663   6.678   1.593   1.386 -0.4324  0.2588  0.1688
    11RH     O1 7664   6.397   1.249   1.139  0.4760 -0.0905 -0.3847
    11RH     C5 7665   6.486   1.070   1.355  0.0746  0.0857 -0.0721
    21BTZ    C6 7666   6.527   0.957   1.447 -0.1482 -0.0601 -0.0586
    21BTZ    C7 7667   6.619   0.970   1.548 -0.1836 -0.0039 -0.0338
    21BTZ    C8 7668   6.455   0.834   1.436 -0.1205 -0.0786 -0.0355
    21BTZ    C9 7669   6.644   0.864   1.642 -0.1934  0.0368  0.0148
    21BTZ   C10 7670   6.577   0.744   1.636 -0.1679  0.0211  0.0383
    21BTZ   C11 7671   6.480   0.726   1.532 -0.1304 -0.0373  0.0138
    21BTZ    N2 7672   6.363   0.809   1.342 -0.0854 -0.1323 -0.0560
    21BTZ    N3 7673   6.409   0.614   1.515 -0.1034 -0.0577  0.0329
    21BTZ    S3 7674   6.304   0.643   1.373 -0.0627 -0.1322 -0.0122
    31IDT   C12 7675   6.619   0.634   1.734  0.1766 -0.1675 -0.1051
    31IDT   C13 7676   6.571   0.506   1.747  0.2528 -0.2008 -0.1528
    31IDT   C14 7677   6.644   0.429   1.842  0.1274 -0.1088  0.0172
    31IDT   C15 7678   6.747   0.497   1.903 -0.0449 -0.0051  0.1953
    31IDT    S4 7679   6.760   0.666   1.843 -0.0617 -0.0159  0.1611
    4IDB    C16 7680   6.816   0.416   1.996  0.1959 -0.4811 -0.4832
    4IDB    C17 7681   6.755   0.287   2.003  0.3245 -0.5349 -0.3464
    51IDQ   C18 7682   6.640   0.287   1.904  0.0521  0.1054 -0.2261
    4IDB    C19 7683   6.803   0.190   2.091  0.2394 -0.2967 -0.0327
    51IDQ   C20 7684   6.650   0.160   1.814  0.0823  0.0442 -0.1919
    51IDQ   C21 7685   6.503   0.270   1.977  0.5796  0.2584 -0.2569
    51IDQ   C22 7686   6.482   0.261   2.134  0.2442  0.9909  1.0197
    51IDQ   C23 7687   6.688   0.162   1.668 -0.1112 -0.2789  0.2871
    51IDQ   C24 7688   6.336   0.245   2.172 -0.1555 -0.2083  0.4656
    51IDQ   C25 7689   6.324   0.215   2.323 -0.1119  0.1068 -0.0063
    51IDQ   C26 7690   6.180   0.186   2.378  0.3653  0.6501  0.2354
    51IDQ   C27 7691   6.084   0.073   2.323 -0.6807  0.1386  0.2586
    51IDQ   C28 7692   5.958   0.073   2.413  0.0887 -0.0794  0.3455
    51IDQ   C29 7693   5.882  -0.055   2.392  0.2685  0.2832 -0.3087
    51IDQ   C30 7694   6.590   0.220   1.567  0.4846  0.7394 -0.4685
    51IDQ   C31 7695   6.444   0.170   1.575  0.3554  0.1069  0.2580
    51IDQ   C32 7696   6.350   0.256   1.498  0.5066  0.3533 -0.0404
    51IDQ   C33 7697   6.209   0.210   1.520 -0.9278  0.4590 -0.0405
    51IDQ   C34 7698   6.106   0.277   1.433 -0.3226 -0.4822  0.0158
    51IDQ   C35 7699   5.988   0.332   1.509  0.3824 -1.2817  0.2737
    4IDB    C36 7700   6.926   0.449   2.077 -0.0199 -0.1868 -0.3057
    4IDB    C37 7701   6.974   0.348   2.166 -0.1041  0.0538  0.0145
    11RH    C38 7702   6.374   1.596   1.134  0.9121  0.3746 -0.2830
    4IDB    C39 7703   6.913   0.223   2.172  0.0237 -0.0024  0.1448
    62IDT   C40 7704   6.994   0.143   2.265  0.2560 -0.0097 -0.2089
    72IDQ   C41 7705   7.095   0.358   2.253  0.0508 -0.5934 -1.2293
    62IDT   C42 7706   7.102   0.215   2.312  0.3822 -0.2335 -0.1555
    72IDQ   C43 7707   7.079   0.472   2.369  0.1131  0.3425  0.0820
    72IDQ   C44 7708   7.229   0.363   2.166  1.1793  0.1249 -0.5078
    62IDT    S5 7709   6.989  -0.023   2.333 -0.2114  0.0521 -0.0850
    62IDT   C45 7710   7.141   0.015   2.425 -0.2115 -0.2422  0.0383
    62IDT   C46 7711   7.186   0.142   2.402  0.1182 -0.3652 -0.0157
    82BTZ   C47 7712   7.193  -0.088   2.516  0.0343 -0.0993  0.0744
    82BTZ   C48 7713   7.122  -0.204   2.529  0.0089 -0.1042 -0.0983
    82BTZ   C49 7714   7.167  -0.311   2.615  0.0013 -0.2539 -0.2802
    82BTZ   C50 7715   7.283  -0.301   2.687  0.0190 -0.3988 -0.2890
    82BTZ   C51 7716   7.315  -0.073   2.590  0.0535 -0.2480  0.0730
    82BTZ   C52 7717   7.361  -0.182   2.677  0.0457 -0.4002 -0.1119
    92RH    C53 7718   7.337  -0.410   2.777 -0.1193  0.0232 -0.1112
    82BTZ    N4 7719   7.393   0.036   2.585  0.0787 -0.2589  0.2317
    82BTZ    N5 7720   7.475  -0.161   2.742  0.0647 -0.5335 -0.1017
    82BTZ    S6 7721   7.531   0.003   2.694  0.0939 -0.4687  0.1499
    92RH    C54 7722   7.301  -0.536   2.803 -0.0823  0.0144 -0.1024
    92RH     S7 7723   7.180  -0.637   2.709 -0.0591 -0.0249 -0.0902
    92RH    C55 7724   7.356  -0.616   2.915 -0.0535  0.0361 -0.1011
    92RH     O2 7725   7.440  -0.577   2.997 -0.0600  0.0644 -0.1080
    92RH     N6 7726   7.301  -0.746   2.918 -0.0167  0.0207 -0.0910
    92RH    C56 7727   7.208  -0.780   2.823 -0.0125 -0.0108 -0.0840
    92RH    C57 7728   7.328  -0.844   3.024 -0.4563  0.8778  0.3201
    92RH    C58 7729   7.243  -0.823   3.145  0.3257  0.3137 -0.1467
    92RH     S8 7730   7.127  -0.927   2.804  0.0279 -0.0346 -0.0715
    72IDQ   C59 7731   7.297   0.494   2.138  0.2567 -0.2122  0.1234
    72IDQ   C60 7732   7.417   0.463   2.049  0.1471 -0.1638 -0.2253
    72IDQ   C61 7733   7.514   0.581   2.025  0.2501  0.7026 -0.1905
    72IDQ   C62 7734   7.610   0.573   1.905  0.8915 -0.5634  0.9355
    72IDQ   C63 7735   7.704   0.694   1.891 -0.2109  0.0397  0.1593
    72IDQ   C64 7736   7.789   0.700   1.760  0.2127  0.4517 -0.9744
    72IDQ   C65 7737   7.883   0.821   1.746  0.7384  0.4983 -0.1370
    72IDQ   C66 7738   6.974   0.455   2.485 -0.8342  0.1095 -0.5360
    72IDQ   C67 7739   6.827   0.431   2.452  0.2374 -0.2596  0.1760
    72IDQ   C68 7740   6.753   0.422   2.582 -0.2683 -0.4741  0.0029
    72IDQ   C69 7741   6.611   0.371   2.567 -0.4718 -0.1118  0.5688
    72IDQ   C70 7742   6.564   0.323   2.703  0.1395 -0.3592  0.4004
    72IDQ   C71 7743   6.415   0.327   2.713 -0.2528  0.2650  0.5529
    72IDQ   C72 7744   6.351   0.275   2.838 -0.1822  0.7820  0.0967
    11RH     C1 7745   6.067   1.146   0.875  0.0420  0.1616 -0.2599
    11RH     C2 7746   6.215   1.149   0.866  0.0386  0.2529 -0.2938
    11RH     N1 7747   6.019   1.017   0.904  0.1370  0.1597 -0.1075
    11RH     S1 7748   6.281   0.980   0.895  0.1606  0.3302 -0.1230
    11RH     C3 7749   6.110   0.915   0.918  0.2100  0.2382 -0.0151
    11RH     C4 7750   5.875   0.987   0.906 -0.5124  0.2468 -0.0274
    11RH     S2 7751   6.079   0.753   0.953  0.3285  0.2539  0.1694
    11RH     O1 7752   5.992   1.244   0.860 -0.0283  0.0942 -0.3515
    11RH     C5 7753   6.285   1.259   0.839 -0.0424  0.2730 -0.4300
    21BTZ    C6 7754   6.427   1.279   0.821 -0.3813 -0.2560  0.3839
    21BTZ    C7 7755   6.519   1.177   0.827 -0.4226 -0.2982  0.3097
    21BTZ    C8 7756   6.474   1.413   0.803 -0.3341 -0.2775  0.3439
    21BTZ    C9 7757   6.661   1.203   0.815 -0.4199 -0.3633  0.1932
    21BTZ   C10 7758   6.710   1.330   0.798 -0.3758 -0.3861  0.1511
    21BTZ   C11 7759   6.617   1.439   0.791 -0.3313 -0.3436  0.2255
    21BTZ    N2 7760   6.393   1.520   0.796 -0.2911 -0.2408  0.4079
    21BTZ    N3 7761   6.653   1.567   0.775 -0.2861 -0.3602  0.1944
    21BTZ    S3 7762   6.501   1.661   0.773 -0.2443 -0.2904  0.3178
    31IDT   C12 7763   6.858   1.337   0.800 -0.1258  0.0842 -0.3812
    31IDT   C13 7764   6.938   1.442   0.834 -0.3554  0.2895 -0.4692
    31IDT   C14 7765   7.076   1.406   0.844 -0.3170  0.5248 -0.1082
    31IDT   C15 7766   7.101   1.273   0.818 -0.0585  0.5004  0.2564
    31IDT    S4 7767   6.951   1.182   0.779  0.1584  0.1747  0.1702
    4IDB    C16 7768   7.241   1.240   0.839  0.1404  0.2550  0.2799
    4IDB    C17 7769   7.311   1.358   0.879  0.2328  0.2243  0.2119
    51IDQ   C18 7770   7.210   1.474   0.881 -0.2333 -0.5901 -0.9741
    4IDB    C19 7771   7.447   1.356   0.907  0.2972  0.2019 -0.1013
    51IDQ   C20 7772   7.213   1.537   1.032  0.6114  0.1268  0.6727
    51IDQ   C21 7773   7.240   1.592   0.781  0.1398  0.3955  0.3262
    51IDQ   C22 7774   7.332   1.586   0.661 -1.1808 -0.4127 -0.3923
    51IDQ   C23 7775   7.088   1.554   1.119 -0.0220 -0.2100  0.1868
    51IDQ   C24 7776   7.332   1.471   0.567 -0.2325  0.0398  0.3255
    51IDQ   C25 7777   7.195   1.451   0.501 -0.6956  0.3112  0.3305
    51IDQ   C26 7778   7.147   1.550   0.396  0.4034 -0.9124  0.3624
    51IDQ   C27 7779   7.006   1.504   0.336 -0.1622  0.5285 -0.1814
    51IDQ   C28 7780   6.897   1.478   0.439 -0.1265  0.2560  0.2959
    51IDQ   C29 7781   6.808   1.356   0.416  0.3180  0.1016 -0.3664
    51IDQ   C30 7782   7.140   1.607   1.252  0.3602  0.1500 -0.1863
    51IDQ   C31 7783   7.060   1.548   1.370 -0.0485 -0.4183 -0.0028
    51IDQ   C32 7784   7.100   1.574   1.517 -0.7415  0.0581 -0.0762
    51IDQ   C33 7785   7.016   1.510   1.629 -0.5280  0.5913  0.0149
    51IDQ   C34 7786   7.008   1.355   1.604  0.3683 -0.0339 -0.2437
    51IDQ   C35 7787   7.092   1.277   1.704 -0.4688 -0.0816 -0.5607
    4IDB    C36 7788   7.309   1.117   0.827  0.1117  0.2636  0.0333
    4IDB    C37 7789   7.448   1.117   0.855  0.1785  0.2404 -0.2854
    11RH    C38 7790   5.811   0.960   0.774  0.3214 -0.4723 -0.0711
    4IDB    C39 7791   7.514   1.233   0.894  0.2685  0.2105 -0.3479
    62IDT   C40 7792   7.654   1.201   0.913 -0.2490  0.4156 -0.2388
    72IDQ   C41 7793   7.546   0.998   0.853  0.2536 -0.5472 -0.2722
    62IDT   C42 7794   7.673   1.066   0.890 -0.5514  0.3117  0.0992
    72IDQ   C43 7795   7.558   0.932   0.711 -0.1865 -0.5213 -0.2261
    72IDQ   C44 7796   7.513   0.897   0.973 -0.4757 -0.5897  0.5478
    62IDT    S5 7797   7.810   1.288   0.934 -0.0596  0.0622 -0.1570
    62IDT   C45 7798   7.897   1.130   0.909 -0.4165 -0.2213  0.3549
    62IDT   C46 7799   7.810   1.026   0.888 -0.6465 -0.0485  0.4353
    82BTZ   C47 7800   8.047   1.117   0.936  0.0362 -0.1390 -0.0100
    82BTZ   C48 7801   8.102   1.217   1.012 -0.0428 -0.1893  0.1139
    82BTZ   C49 7802   8.243   1.218   1.044 -0.0501 -0.1358  0.1439
    82BTZ   C50 7803   8.328   1.120   1.000  0.0217 -0.0321  0.0498
    82BTZ   C51 7804   8.131   1.012   0.887  0.1132 -0.0303 -0.1120
    82BTZ   C52 7805   8.274   1.013   0.920  0.1058  0.0240 -0.0815
    92RH    C53 7806   8.475   1.118   1.030 -0.0434  0.1511 -0.0878
    82BTZ    N4 7807   8.089   0.910   0.812  0.1938  0.0270 -0.2364
    82BTZ    N5 7808   8.347   0.912   0.871  0.1804  0.1251 -0.1816
    82BTZ    S6 7809   8.233   0.809   0.780  0.2650  0.1557 -0.3217
    92RH    C54 7810   8.562   1.199   1.091  0.0244 -0.0168  0.0422
    92RH     S7 7811   8.528   1.367   1.156  0.1819 -0.0629  0.2451
    92RH    C55 7812   8.704   1.164   1.115 -0.0196 -0.1970  0.0408
    92RH     O2 7813   8.758   1.057   1.083 -0.1223 -0.2138 -0.0782
    92RH     N6 7814   8.772   1.268   1.181  0.0709 -0.3520  0.1943
    92RH    C56 7815   8.703   1.383   1.212  0.1820 -0.3180  0.3183
    92RH    C57 7816   8.917   1.248   1.217  0.0775  0.0594 -0.4900
    92RH    C58 7817   9.036   1.324   1.155  0.3850  0.0629 -0.4368
    92RH     S8 7818   8.761   1.521   1.290  0.3042 -0.4765  0.5111
    72IDQ   C59 7819   7.447   0.762   0.959 -0.2613  0.0578 -0.6898
    72IDQ   C60 7820   7.324   0.747   0.865 -0.8392  0.3417  0.0448
    72IDQ   C61 7821   7.282   0.597   0.844 -0.5099  0.8925  0.0860
    72IDQ   C62 7822   7.390   0.490   0.814  0.0058 -0.0850 -0.4447
    72IDQ   C63 7823   7.354   0.342   0.810 -0.1043  0.4735  0.4531
    72IDQ   C64 7824   7.467   0.255   0.760  0.5017  0.1419 -0.2017
    72IDQ   C65 7825   7.426   0.108   0.765 -0.7156 -0.1512  0.3830
    72IDQ   C66 7826   7.539   1.013   0.585 -0.3708  0.0708  0.6282
    72IDQ   C67 7827   7.628   1.139   0.562  0.2125 -0.0436 -0.1154
    72IDQ   C68 7828   7.613   1.211   0.428  0.0755 -1.1541  0.3873
    72IDQ   C69 7829   7.678   1.357   0.437 -0.0954  0.0801  0.1855
    72IDQ   C70 7830   7.824   1.344   0.481  0.0040  0.0179 -0.2073
    72IDQ   C71 7831   7.880   1.462   0.546 -0.2612 -0.5071 -0.0105
    72IDQ   C72 7832   8.023   1.444   0.604 -0.1683  0.2206 -0.0630
    11RH     C1 7833   5.411   0.447   3.938 -0.4295  0.0054 -0.1739
    11RH     C2 7834   5.319   0.352   3.870 -0.2630 -0.1895 -0.1280
    11RH     N1 7835   5.501   0.380   4.023 -0.2294  0.1927 -0.2350
    11RH     S1 7836   5.357   0.181   3.924  0.1458 -0.1137 -0.1682
    11RH     C3 7837   5.492   0.243   4.033  0.0770  0.1717 -0.2438
    11RH     C4 7838   5.608   0.455   4.099 -0.6273 -0.2448 -0.0206
    11RH     S2 7839   5.587   0.140   4.127  0.3611  0.3679 -0.3114
    11RH     O1 7840   5.411   0.571   3.923 -0.7089  0.0085 -0.1615
    11RH     C5 7841   5.224   0.390   3.784 -0.3992 -0.3878 -0.0668
    21BTZ    C6 7842   5.115   0.325   3.714 -0.0649 -0.2313 -0.2276
    21BTZ    C7 7843   5.087   0.196   3.751 -0.1957 -0.1661 -0.0952
    21BTZ    C8 7844   5.026   0.391   3.624 -0.0538 -0.1983 -0.2142
    21BTZ    C9 7845   4.971   0.126   3.701 -0.3214 -0.0659  0.0559
    21BTZ   C10 7846   4.883   0.185   3.615 -0.3161 -0.0310  0.0744
    21BTZ   C11 7847   4.908   0.320   3.573 -0.1816 -0.0965 -0.0607
    21BTZ    N2 7848   5.042   0.517   3.581  0.0677 -0.2549 -0.3346
    21BTZ    N3 7849   4.829   0.389   3.490 -0.1628 -0.0712 -0.0576
    21BTZ    S3 7850   4.904   0.550   3.471  0.0229 -0.1787 -0.2550
    31IDT   C12 7851   4.756   0.112   3.589  0.1478 -0.3906 -0.0310
    31IDT   C13 7852   4.692   0.096   3.469 -0.1341 -0.4536  0.1259
    31IDT   C14 7853   4.578   0.011   3.478 -0.3465 -0.1351  0.5168
    31IDT   C15 7854   4.554  -0.039   3.605 -0.2286  0.1721  0.6602
    31IDT    S4 7855   4.676   0.020   3.724  0.1646  0.0809  0.3080
    4IDB    C16 7856   4.451  -0.141   3.606  0.2469  0.3286 -0.4588
    4IDB    C17 7857   4.408  -0.152   3.470 -0.5549  0.5071 -0.2326
    51IDQ   C18 7858   4.466  -0.034   3.383 -0.2431  0.2014  0.1533
    4IDB    C19 7859   4.325  -0.255   3.429 -0.5407  0.3781  0.0612
    51IDQ   C20 7860   4.505  -0.110   3.251 -0.5692  0.3813  0.1023
    51IDQ   C21 7861   4.372   0.085   3.343  0.2951 -0.0578  0.2050
    51IDQ   C22 7862   4.223   0.096   3.385 -0.8310  0.2241 -0.5531
    51IDQ   C23 7863   4.650  -0.136   3.204  0.3693  0.5005  0.1795
    51IDQ   C24 7864   4.152   0.221   3.333  0.0693  1.3528  0.0335
    51IDQ   C25 7865   4.006   0.236   3.360 -0.1340  0.4463 -0.5634
    51IDQ   C26 7866   3.948   0.356   3.282  0.4399 -0.4082  0.1747
    51IDQ   C27 7867   3.808   0.410   3.327  0.3104  0.0124 -0.2730
    51IDQ   C28 7868   3.695   0.305   3.337 -0.1080  0.3430 -0.4141
    51IDQ   C29 7869   3.570   0.358   3.397  0.3447  0.4664 -0.3125
    51IDQ   C30 7870   4.735  -0.232   3.281 -0.0016  0.3475 -0.2104
    51IDQ   C31 7871   4.862  -0.278   3.210 -0.9730 -0.2763 -0.3217
    51IDQ   C32 7872   4.968  -0.168   3.179 -0.0723  0.2191  0.2736
    51IDQ   C33 7873   5.037  -0.085   3.288  0.4418 -0.3300 -0.3284
    51IDQ   C34 7874   5.128   0.031   3.250 -0.6198 -0.2768  0.8106
    51IDQ   C35 7875   5.217   0.086   3.356  0.3465  0.1651  0.1965
    4IDB    C36 7876   4.410  -0.234   3.702  1.0724  0.0182 -0.3918
    4IDB    C37 7877   4.324  -0.339   3.659  1.0738 -0.1097 -0.0904
    11RH    C38 7878   5.566   0.529   4.218 -0.0251  0.1434  0.0073
    4IDB    C39 7879   4.284  -0.348   3.526  0.2848  0.0676  0.1282
    62IDT   C40 7880   4.188  -0.460   3.513  0.2731 -0.4302 -0.4303
    72IDQ   C41 7881   4.248  -0.446   3.742  0.1293 -0.1236 -0.1100
    62IDT   C42 7882   4.157  -0.512   3.637  0.4603 -0.5262 -0.4227
    72IDQ   C43 7883   4.169  -0.375   3.869 -0.4558 -0.0658 -0.1540
    72IDQ   C44 7884   4.356  -0.542   3.809 -0.1511 -0.2241  0.4961
    62IDT    S5 7885   4.084  -0.528   3.384 -0.1672 -0.0579 -0.2755
    62IDT   C45 7886   3.999  -0.628   3.510 -0.0699 -0.0516 -0.2051
    62IDT   C46 7887   4.050  -0.607   3.636  0.2666 -0.3122 -0.2953
    82BTZ   C47 7888   3.890  -0.723   3.462  0.4574 -0.3160  0.1732
    82BTZ   C48 7889   3.873  -0.747   3.328  0.5865 -0.3245  0.1587
    82BTZ   C49 7890   3.774  -0.840   3.280  0.5454 -0.2302  0.0624
    82BTZ   C50 7891   3.691  -0.908   3.365  0.3754 -0.1276 -0.0193
    82BTZ   C51 7892   3.806  -0.792   3.555  0.2773 -0.2104  0.0901
    82BTZ   C52 7893   3.705  -0.886   3.506  0.2356 -0.1144 -0.0078
    92RH    C53 7894   3.573  -0.987   3.318 -0.2688  0.2468  0.0309
    82BTZ    N4 7895   3.812  -0.777   3.688  0.1402 -0.1916  0.0948
    82BTZ    N5 7896   3.630  -0.947   3.599  0.0650 -0.0187 -0.0818
    82BTZ    S6 7897   3.687  -0.885   3.757 -0.0521 -0.0477 -0.0282
    92RH    C54 7898   3.524  -1.019   3.198 -0.2192  0.2038  0.0217
    92RH     S7 7899   3.603  -0.990   3.035 -0.0895  0.0199  0.0514
    92RH    C55 7900   3.392  -1.085   3.179 -0.2635  0.3026 -0.0154
    92RH     O2 7901   3.314  -1.118   3.270 -0.3500  0.4340 -0.0417
    92RH     N6 7902   3.365  -1.107   3.042 -0.1943  0.2284 -0.0175
    92RH    C56 7903   3.458  -1.067   2.949 -0.1001  0.0823  0.0134
    92RH    C57 7904   3.225  -1.146   3.009 -0.1281 -0.6249 -0.5018
    92RH    C58 7905   3.203  -1.290   2.972  0.0322 -0.5078  0.0448
    92RH     S8 7906   3.450  -1.081   2.782 -0.0046 -0.0304  0.0182
    72IDQ   C59 7907   4.317  -0.669   3.874  0.0920  0.4031 -0.3275
    72IDQ   C60 7908   4.440  -0.739   3.926  0.2666  0.0390 -0.6990
    72IDQ   C61 7909   4.409  -0.872   3.987 -0.3247 -0.2415  0.8718
    72IDQ   C62 7910   4.539  -0.960   4.005  0.4272  0.9570 -0.1354
    72IDQ   C63 7911   4.518  -1.078   4.100  0.1459  0.1616  0.5308
    72IDQ   C64 7912   4.435  -1.203   4.059 -0.0906 -0.6080 -0.1784
    72IDQ   C65 7913   4.450  -1.259   3.915  0.1336 -0.7223 -0.0306
    72IDQ   C66 7914   4.045  -0.286   3.850 -0.2635 -0.0016 -0.9313
    72IDQ   C67 7915   4.031  -0.180   3.960  0.6690 -0.0238  0.1474
    72IDQ   C68 7916   4.123  -0.062   3.986 -0.1451 -0.2604  0.4824
    72IDQ   C69 7917   4.165   0.031   3.859  0.1342  0.2223  0.2401
    72IDQ   C70 7918   4.277   0.131   3.876  0.4210  0.0296 -0.2387
    72IDQ   C71 7919   4.292   0.212   3.753 -0.6201  0.2215  0.2660
    72IDQ   C72 7920   4.409   0.309   3.775  0.1763 -0.3381 -0.4936
    11RH     C1 7921   3.502   6.567   3.842  0.2952 -0.3103 -0.2371
    11RH     C2 7922   3.594   6.578   3.727  0.2928 -0.0123 -0.2135
    11RH     N1 7923   3.552   6.634   3.956  0.2226 -0.4647 -0.1123
    11RH     S1 7924   3.742   6.675   3.775  0.1952  0.0454 -0.0287
    11RH     C3 7925   3.674   6.697   3.945  0.1622 -0.3269  0.0085
    11RH     C4 7926   3.476   6.637   4.087  0.1995  0.2068  0.7839
    11RH     S2 7927   3.756   6.784   4.065  0.0706 -0.4613  0.1698
    11RH     O1 7928   3.393   6.508   3.842  0.3529 -0.4164 -0.3508
    11RH     C5 7929   3.570   6.523   3.607  0.3540  0.1792 -0.3146
    21BTZ    C6 7930   3.654   6.502   3.494 -0.0973  0.2705 -0.2084
    21BTZ    C7 7931   3.787   6.536   3.495 -0.1229  0.3690 -0.1909
    21BTZ    C8 7932   3.599   6.445   3.375 -0.0167  0.1404 -0.1839
    21BTZ    C9 7933   3.871   6.516   3.380 -0.0710  0.3446 -0.1487
    21BTZ   C10 7934   3.823   6.462   3.264  0.0064  0.2219 -0.1240
    21BTZ   C11 7935   3.685   6.425   3.258  0.0361  0.1158 -0.1410
    21BTZ    N2 7936   3.471   6.407   3.361  0.0151  0.0367 -0.1975
    21BTZ    N3 7937   3.627   6.371   3.150  0.1103 -0.0079 -0.1201
    21BTZ    S3 7938   3.456   6.343   3.195  0.1160 -0.0998 -0.1552
    31IDT   C12 7939   3.909   6.441   3.144  0.0709  0.1304 -0.4585
    31IDT   C13 7940   3.928   6.326   3.071  0.3765  0.1134 -0.3543
    31IDT   C14 7941   4.039   6.334   2.982  0.7232  0.1116  0.0707
    31IDT   C15 7942   4.106   6.455   2.986  0.6845  0.1272  0.2926
    31IDT    S4 7943   4.032   6.569   3.103  0.2012  0.1454 -0.0221
    4IDB    C16 7944   4.216   6.451   2.896  0.1176  0.2512 -0.1286
    4IDB    C17 7945   4.220   6.324   2.831  0.1656  0.0386  0.2796
    51IDQ   C18 7946   4.091   6.245   2.865 -0.6930  0.2236 -0.8577
    4IDB    C19 7947   4.320   6.294   2.739  0.2078 -0.2404  0.4154
    51IDQ   C20 7948   4.007   6.230   2.729 -0.2632 -1.3884 -0.0409
    51IDQ   C21 7949   4.116   6.102   2.928  0.7984 -0.0966  0.4907
    51IDQ   C22 7950   4.256   6.040   2.950 -0.4281  0.2121  0.3528
    51IDQ   C23 7951   3.873   6.314   2.705 -0.3128  0.1964  0.1535
    51IDQ   C24 7952   4.349   6.103   3.055 -0.2198 -0.0402 -0.3764
    51IDQ   C25 7953   4.477   6.016   3.067  0.3834 -0.0481  0.5265
    51IDQ   C26 7954   4.569   6.072   3.173 -0.1144  0.6807  0.8053
    51IDQ   C27 7955   4.565   5.993   3.300 -0.0807  0.5111 -0.0605
    51IDQ   C28 7956   4.663   6.045   3.407  0.4147  0.7542 -0.1110
    51IDQ   C29 7957   4.661   5.946   3.524  0.0957  0.0778 -0.3917
    51IDQ   C30 7958   3.835   6.302   2.559 -0.1617 -0.5551  0.4168
    51IDQ   C31 7959   3.691   6.344   2.548  0.0053 -0.1857 -0.1639
    51IDQ   C32 7960   3.624   6.346   2.408 -0.4371 -0.1004 -0.2544
    51IDQ   C33 7961   3.490   6.416   2.401  0.3940  0.3944 -0.1715
    51IDQ   C34 7962   3.424   6.414   2.269 -0.5905  0.2215 -0.4869
    51IDQ   C35 7963   3.288   6.472   2.280  0.1597  0.5180 -0.1042
    4IDB    C36 7964   4.313   6.549   2.870  0.1116  0.1856 -0.4047
    4IDB    C37 7965   4.415   6.516   2.776  0.1553 -0.1006 -0.2605
    11RH    C38 7966   3.359   6.736   4.092 -0.0516 -0.6234 -0.4886
    4IDB    C39 7967   4.417   6.392   2.713  0.2019 -0.3060  0.1393
    62IDT   C40 7968   4.535   6.391   2.627  0.1787  0.1374 -0.2778
    72IDQ   C41 7969   4.529   6.606   2.729  0.2377  0.1117  0.3068
    62IDT   C42 7970   4.600   6.512   2.625  0.3546  0.0445 -0.1893
    72IDQ   C43 7971   4.619   6.633   2.855  0.5839  0.1351 -0.3730
    72IDQ   C44 7972   4.488   6.743   2.671  0.0980 -1.0469  1.0234
    62IDT    S5 7973   4.618   6.269   2.524 -0.0354  0.1100 -0.4205
    62IDT   C45 7974   4.743   6.394   2.483  0.1324 -0.0329 -0.3496
    62IDT   C46 7975   4.718   6.514   2.544  0.3288 -0.0520 -0.2298
    82BTZ   C47 7976   4.848   6.352   2.388 -0.2229 -0.3106 -0.2655
    82BTZ   C48 7977   4.857   6.219   2.359 -0.1094 -0.2835 -0.3561
    82BTZ   C49 7978   4.951   6.169   2.262  0.0247 -0.1520 -0.2955
    82BTZ   C50 7979   5.035   6.252   2.194  0.0451 -0.0481 -0.1443
    82BTZ   C51 7980   4.934   6.444   2.319 -0.2067 -0.2050 -0.1064
    82BTZ   C52 7981   5.029   6.393   2.220 -0.0705 -0.0714 -0.0448
    92RH    C53 7982   5.120   6.211   2.084  0.5938 -0.0207  0.0152
    82BTZ    N4 7983   4.934   6.576   2.338 -0.3095 -0.2190 -0.0067
    82BTZ    N5 7984   5.106   6.484   2.160 -0.0635  0.0219  0.1044
    82BTZ    S6 7985   5.059   6.642   2.229 -0.2347 -0.0587  0.1738
    92RH    C54 7986   5.132   6.097   2.016  0.3656 -0.0430  0.0116
    92RH     S7 7987   5.059   5.934   2.059  0.3423  0.0179  0.2012
    92RH    C55 7988   5.209   6.084   1.890  0.0879 -0.1236 -0.1526
    92RH     O2 7989   5.271   6.176   1.833  0.0341 -0.1789 -0.3033
    92RH     N6 7990   5.205   5.952   1.839 -0.1147 -0.1306 -0.1177
    92RH    C56 7991   5.134   5.858   1.909 -0.0331 -0.0657  0.0544
    92RH    C57 7992   5.256   5.916   1.699 -0.1527 -0.0605  0.4327
    92RH    C58 7993   5.161   5.946   1.580 -0.1748  0.3179  0.8741
    92RH     S8 7994   5.112   5.695   1.870 -0.2320 -0.0588  0.1309
    72IDQ   C59 7995   4.419   6.765   2.533  0.4829  0.1700  0.2531
    72IDQ   C60 7996   4.279   6.698   2.526  0.0566 -0.7374 -0.0705
    72IDQ   C61 7997   4.174   6.752   2.623  0.3028 -0.7623  0.4394
    72IDQ   C62 7998   4.035   6.700   2.610 -0.5148 -0.0642  0.5829
    72IDQ   C63 7999   3.954   6.718   2.739 -0.3699  0.0227  0.2062
    72IDQ   C64 8000   3.805   6.686   2.734 -0.0969 -0.6527  0.1911
    72IDQ   C65 8001   3.728   6.748   2.849  0.2366 -0.1740 -0.3100
    72IDQ   C66 8002   4.766   6.679   2.841  0.2295 -0.0986 -0.3875
    72IDQ   C67 8003   4.835   6.749   2.958  0.2997  0.0224 -0.8491
    72IDQ   C68 8004   4.751   6.855   3.032  0.2178  0.3281  0.2649
    72IDQ   C69 8005   4.834   6.977   3.071  0.5363 -0.0687  0.3019
    72IDQ   C70 8006   4.884   7.059   2.949  0.8828  0.0560  0.0305
    72IDQ   C71 8007   4.983   7.162   2.990 -0.5935 -0.6162  0.2026
    72IDQ   C72 8008   5.026   7.264   2.885 -0.0377  0.5222 -0.6542
    11RH     C1 8009   0.851   4.659   4.188  0.1555 -0.1812 -0.0144
    11RH     C2 8010   0.875   4.738   4.065  0.0052 -0.0910  0.0145
    11RH     N1 8011   0.811   4.527   4.158  0.2239 -0.1914 -0.0623
    11RH     S1 8012   0.842   4.634   3.918 -0.0365 -0.0252 -0.0228
    11RH     C3 8013   0.799   4.490   4.026  0.1467 -0.1200 -0.0751
    11RH     C4 8014   0.782   4.431   4.263 -0.6952  0.4008 -0.4330
    11RH     S2 8015   0.753   4.341   3.963  0.2025 -0.1146 -0.1292
    11RH     O1 8016   0.865   4.700   4.305  0.2164 -0.2419  0.0004
    11RH     C5 8017   0.913   4.866   4.066 -0.0832 -0.0642  0.0611
    21BTZ    C6 8018   0.938   4.968   3.962  0.4458 -0.1608  0.1735
    21BTZ    C7 8019   0.923   4.945   3.828  0.4924 -0.2151  0.1774
    21BTZ    C8 8020   0.983   5.096   4.006  0.2312 -0.0758  0.1479
    21BTZ    C9 8021   0.952   5.048   3.730  0.3316 -0.1886  0.1565
    21BTZ   C10 8022   0.996   5.172   3.768  0.1245 -0.1080  0.1317
    21BTZ   C11 8023   1.013   5.200   3.907  0.0678 -0.0489  0.1267
    21BTZ    N2 8024   1.001   5.130   4.134  0.1663 -0.0172  0.1416
    21BTZ    N3 8025   1.054   5.318   3.956 -0.1284  0.0312  0.1034
    21BTZ    S3 8026   1.057   5.300   4.134 -0.1122  0.0767  0.1078
    31IDT   C12 8027   1.019   5.272   3.658  0.3385  0.0514 -0.0830
    31IDT   C13 8028   1.029   5.408   3.662  0.7185  0.0269 -0.1438
    31IDT   C14 8029   1.041   5.466   3.532  0.6557 -0.0486 -0.1836
    31IDT   C15 8030   1.040   5.375   3.429  0.2284 -0.0823 -0.1533
    31IDT    S4 8031   1.024   5.206   3.489 -0.1308 -0.0203 -0.0713
    4IDB    C16 8032   1.031   5.439   3.303  1.0103 -0.0513 -0.5669
    4IDB    C17 8033   1.032   5.580   3.325  0.2368 -0.0879 -0.2499
    51IDQ   C18 8034   1.047   5.610   3.477 -0.0249 -0.4037 -0.8131
    4IDB    C19 8035   1.026   5.669   3.219 -0.3477  0.1283 -0.0457
    51IDQ   C20 8036   1.186   5.683   3.492 -0.0380 -0.2398  0.3044
    51IDQ   C21 8037   0.942   5.707   3.555  0.2989  0.2843  0.7589
    51IDQ   C22 8038   0.812   5.749   3.486  0.4877  0.9364  0.2925
    51IDQ   C23 8039   1.314   5.626   3.552  0.6716 -0.3363  0.0871
    51IDQ   C24 8040   0.732   5.855   3.559 -0.2398 -0.6364  0.0904
    51IDQ   C25 8041   0.683   5.824   3.697  0.0440  0.4921  0.8720
    51IDQ   C26 8042   0.650   5.946   3.785  0.1723 -0.4054  0.6003
    51IDQ   C27 8043   0.617   5.916   3.934  0.2339 -0.0501 -0.3077
    51IDQ   C28 8044   0.561   6.035   4.014 -0.5196 -0.0868  0.3547
    51IDQ   C29 8045   0.422   6.074   3.971  0.3759 -0.1794 -0.2337
    51IDQ   C30 8046   1.401   5.581   3.444 -0.0361  0.0457 -0.1148
    51IDQ   C31 8047   1.536   5.556   3.499 -0.0684  0.3130 -0.2727
    51IDQ   C32 8048   1.635   5.505   3.405 -0.2165 -0.1812  0.1007
    51IDQ   C33 8049   1.774   5.485   3.465  0.4885  0.1246 -0.1882
    51IDQ   C34 8050   1.861   5.400   3.363  0.1818 -0.6124 -0.7229
    51IDQ   C35 8051   2.002   5.371   3.420  0.3881 -0.1119 -0.1569
    4IDB    C36 8052   1.025   5.386   3.173  1.2044  0.2035 -0.6819
    4IDB    C37 8053   1.019   5.478   3.066  0.5995  0.4220 -0.4698
    11RH    C38 8054   0.638   4.402   4.289  0.1000  0.1398 -0.4828
    4IDB    C39 8055   1.020   5.616   3.089 -0.1536  0.3832 -0.1607
    62IDT   C40 8056   1.018   5.686   2.967  0.0357  0.2110 -0.2679
    72IDQ   C41 8057   0.979   5.455   2.917  0.6020 -0.6879 -0.0649
    62IDT   C42 8058   0.983   5.601   2.864  0.6681  0.0981 -0.3936
    72IDQ   C43 8059   0.846   5.377   2.878 -0.6569  0.5210 -0.2443
    72IDQ   C44 8060   1.093   5.388   2.833 -0.0719  0.8459 -0.5822
    62IDT    S5 8061   1.040   5.855   2.911 -0.2108  0.2669 -0.2020
    62IDT   C45 8062   1.000   5.800   2.743  0.5935  0.1283 -0.3554
    62IDT   C46 8063   0.974   5.666   2.737  0.9844  0.0511 -0.4432
    82BTZ   C47 8064   0.984   5.900   2.640 -0.2937 -0.0075  0.1364
    82BTZ   C48 8065   1.071   6.006   2.647 -0.2998 -0.0006  0.1124
    82BTZ   C49 8066   1.049   6.127   2.571 -0.2216 -0.0805 -0.0376
    82BTZ   C50 8067   0.941   6.142   2.489 -0.1374 -0.1667 -0.1633
    82BTZ   C51 8068   0.870   5.911   2.555 -0.2071 -0.0960  0.0085
    82BTZ   C52 8069   0.848   6.034   2.478 -0.1276 -0.1771 -0.1439
    92RH    C53 8070   0.918   6.257   2.407 -0.2688  0.2035  0.0152
    82BTZ    N4 8071   0.778   5.815   2.539 -0.1926 -0.1112  0.0175
    82BTZ    N5 8072   0.739   6.036   2.400 -0.0492 -0.2575 -0.2575
    82BTZ    S6 8073   0.658   5.878   2.423 -0.0743 -0.2323 -0.1725
    92RH    C54 8074   0.986   6.369   2.383 -0.2689  0.1903 -0.0488
    92RH     S7 8075   1.151   6.414   2.449 -0.3015  0.2598 -0.0140
    92RH    C55 8076   0.935   6.479   2.297 -0.2416  0.1142 -0.1614
    92RH     O2 8077   0.826   6.479   2.237 -0.2159  0.0551 -0.2091
    92RH     N6 8078   1.027   6.586   2.290 -0.2482  0.1166 -0.2100
    92RH    C56 8079   1.145   6.575   2.360 -0.2775  0.1851 -0.1499
    92RH    C57 8080   1.001   6.707   2.202 -0.1766  0.7592  0.3083
    92RH    C58 8081   0.920   6.818   2.270  0.2293 -0.0019 -0.0339
    92RH     S8 8082   1.271   6.687   2.368 -0.2912  0.2034 -0.1885
    72IDQ   C59 8083   1.125   5.239   2.872  0.7483 -0.7178 -0.8285
    72IDQ   C60 8084   1.241   5.157   2.801  0.8625  0.2816  0.1452
    72IDQ   C61 8085   1.200   5.106   2.663  0.1017 -0.1045  0.1500
    72IDQ   C62 8086   1.293   4.994   2.605  0.5566  0.0120 -0.0343
    72IDQ   C63 8087   1.250   4.955   2.465 -0.1847  0.0453  0.7876
    72IDQ   C64 8088   1.327   4.850   2.391  0.4255  0.1650  0.2136
    72IDQ   C65 8089   1.276   4.814   2.252  0.1409  0.6565 -0.4343
    72IDQ   C66 8090   0.723   5.429   2.941 -0.1567  0.3513  0.0373
    72IDQ   C67 8091   0.600   5.334   2.911 -0.3142  0.0159  0.2727
    72IDQ   C68 8092   0.482   5.355   2.991 -0.5464  0.5211  0.1135
    72IDQ   C69 8093   0.460   5.291   3.125 -0.3583 -0.0400 -0.0149
    72IDQ   C70 8094   0.421   5.146   3.130 -0.0335 -0.2737  0.0507
    72IDQ   C71 8095   0.306   5.104   3.046  0.1614 -0.4524  0.8502
    72IDQ   C72 8096   0.295   4.954   3.056  0.1188  0.3327  0.1848
    11RH     C1 8097   6.637   0.929   6.434  0.1204  0.1318  0.2086
    11RH     C2 8098   6.601   1.065   6.388  0.1065  0.0972  0.1183
    11RH     N1 8099   6.776   0.905   6.421  0.1252  0.1423  0.2379
    11RH     S1 8100   6.751   1.153   6.329  0.1002  0.0807  0.0774
    11RH     C3 8101   6.855   1.006   6.369  0.1166  0.1203  0.1819
    11RH     C4 8102   6.832   0.775   6.465  0.0080  0.1867  0.0640
    11RH     S2 8103   7.021   1.003   6.343  0.1196  0.1266  0.2006
    11RH     O1 8104   6.559   0.845   6.480  0.1276  0.1499  0.2544
    11RH     C5 8105   6.476   1.112   6.390  0.0996  0.0813  0.0749
    21BTZ    C6 8106   6.416   1.240   6.360 -0.0411 -0.0841  0.3571
    21BTZ    C7 8107   6.496   1.343   6.316  0.0211 -0.1143  0.3986
    21BTZ    C8 8108   6.276   1.265   6.378 -0.0569 -0.0549  0.1996
    21BTZ    C9 8109   6.442   1.474   6.288  0.0703 -0.1174  0.2880
    21BTZ   C10 8110   6.309   1.502   6.304  0.0574 -0.0902  0.1364
    21BTZ   C11 8111   6.221   1.398   6.350 -0.0068 -0.0581  0.0873
    21BTZ    N2 8112   6.189   1.173   6.420 -0.1159 -0.0241  0.1452
    21BTZ    N3 8113   6.090   1.413   6.369 -0.0254 -0.0298 -0.0575
    21BTZ    S3 8114   6.029   1.254   6.426 -0.1094  0.0027 -0.0559
    31IDT   C12 8115   6.269   1.650   6.294 -0.1390  0.4654  0.1021
    31IDT   C13 8116   6.147   1.707   6.272 -0.0288  0.7679  0.2627
    31IDT   C14 8117   6.153   1.850   6.263  0.3432  0.7401  0.0492
    31IDT   C15 8118   6.280   1.902   6.278  0.5186  0.4171 -0.2744
    31IDT    S4 8119   6.402   1.773   6.306  0.2235  0.1204 -0.3349
    4IDB    C16 8120   6.278   2.044   6.263 -0.1000 -0.2626 -0.5096
    4IDB    C17 8121   6.143   2.087   6.241 -0.0290 -0.0381 -0.5118
    51IDQ   C18 8122   6.053   1.961   6.229  0.0024 -0.2290  0.8143
    4IDB    C19 8123   6.113   2.222   6.229  0.1186  0.0528  0.0520
    51IDQ   C20 8124   5.933   1.993   6.327  0.1942  0.5001 -0.6978
    51IDQ   C21 8125   5.981   1.930   6.089 -0.7083 -0.5168 -1.1014
    51IDQ   C22 8126   5.993   2.022   5.967 -0.2170 -0.5303 -0.5690
    51IDQ   C23 8127   5.927   1.907   6.452  0.2823 -0.0913 -0.2569
    51IDQ   C24 8128   6.135   2.066   5.921 -0.9568 -0.4622 -0.0652
    51IDQ   C25 8129   6.139   2.164   5.804 -0.3102  0.7030 -0.1511
    51IDQ   C26 8130   6.087   2.307   5.820  0.1076  0.4309 -0.2296
    51IDQ   C27 8131   6.108   2.391   5.700 -0.1016  0.0206  0.6178
    51IDQ   C28 8132   6.032   2.515   5.689  0.2996 -0.3353  0.4155
    51IDQ   C29 8133   6.051   2.588   5.555 -0.0016  0.0180 -0.3003
    51IDQ   C30 8134   5.802   1.933   6.542  0.3268  0.4267 -0.1676
    51IDQ   C31 8135   5.796   1.839   6.662 -0.5318  0.2198  0.1102
    51IDQ   C32 8136   5.725   1.707   6.626 -0.1442  0.4560 -0.2913
    51IDQ   C33 8137   5.694   1.630   6.754 -0.1478  0.1854 -0.3063
    51IDQ   C34 8138   5.670   1.485   6.751 -0.1351  0.6186 -0.2584
    51IDQ   C35 8139   5.801   1.401   6.723  0.0717 -0.1863 -0.3477
    4IDB    C36 8140   6.383   2.137   6.272 -0.0234 -0.3983  0.0606
    4IDB    C37 8141   6.350   2.274   6.259  0.1276 -0.3026  0.6323
    11RH    C38 8142   6.863   0.671   6.362  0.1533  0.6565  0.5508
    4IDB    C39 8143   6.218   2.314   6.238  0.1953 -0.0830  0.6224
    62IDT   C40 8144   6.219   2.459   6.221  0.1178  0.0827  0.3182
    72IDQ   C41 8145   6.443   2.395   6.257  0.0116  0.5904 -0.1523
    62IDT   C42 8146   6.348   2.509   6.231 -0.0271  0.3446  1.0450
    72IDQ   C43 8147   6.559   2.384   6.151 -0.3192 -0.0424  0.3174
    72IDQ   C44 8148   6.501   2.440   6.394 -0.2772  0.0687 -0.1077
    62IDT    S5 8149   6.099   2.589   6.189  0.0407 -0.1758 -0.4684
    62IDT   C45 8150   6.236   2.709   6.190 -0.1948  0.0971  0.2626
    62IDT   C46 8151   6.357   2.650   6.213 -0.2040  0.3531  1.0146
    82BTZ   C47 8152   6.207   2.849   6.192  0.0436 -0.3373 -0.0591
    82BTZ   C48 8153   6.076   2.887   6.201  0.0145 -0.4650  0.0583
    82BTZ   C49 8154   6.037   3.026   6.214 -0.1081 -0.5033  0.1106
    82BTZ   C50 8155   6.131   3.126   6.217 -0.2018 -0.4138  0.0452
    82BTZ   C51 8156   6.308   2.951   6.195 -0.0515 -0.2398 -0.1314
    82BTZ   C52 8157   6.269   3.091   6.208 -0.1763 -0.2787 -0.0782
    92RH    C53 8158   6.098   3.271   6.223  0.1211  0.1600 -0.0851
    82BTZ    N4 8159   6.439   2.926   6.186 -0.0346 -0.1124 -0.2469
    82BTZ    N5 8160   6.369   3.180   6.210 -0.2598 -0.1826 -0.1510
    82BTZ    S6 8161   6.520   3.085   6.194 -0.1808 -0.0351 -0.2935
    92RH    C54 8162   5.984   3.340   6.218  0.0858  0.0999 -0.1171
    92RH     S7 8163   5.814   3.271   6.207  0.1160  0.0050 -0.0035
    92RH    C55 8164   5.978   3.488   6.223  0.0145  0.1011 -0.2540
    92RH     O2 8165   6.076   3.564   6.231 -0.0203  0.1571 -0.3536
    92RH     N6 8166   5.845   3.535   6.217 -0.0099  0.0300 -0.2589
    92RH    C56 8167   5.743   3.442   6.208  0.0330 -0.0282 -0.1426
    92RH    C57 8168   5.821   3.678   6.247  0.2197 -0.0722 -0.0297
    92RH    C58 8169   5.824   3.763   6.114 -0.0113 -0.2143  0.2469
    92RH     S8 8170   5.577   3.470   6.199  0.0165 -0.1178 -0.1215
    72IDQ   C59 8171   6.595   2.347   6.466 -0.2679  0.0779  0.3142
    72IDQ   C60 8172   6.685   2.416   6.567  1.2841  0.4427 -0.2645
    72IDQ   C61 8173   6.800   2.324   6.595 -0.1462  1.0442 -0.6061
    72IDQ   C62 8174   6.937   2.396   6.634  0.2119 -0.0342 -0.0372
    72IDQ   C63 8175   7.058   2.303   6.627 -0.5044  0.3963  0.6311
    72IDQ   C64 8176   7.195   2.374   6.640 -0.2444  0.2491  0.2033
    72IDQ   C65 8177   7.325   2.303   6.592  0.2750 -0.0596 -0.2693
    72IDQ   C66 8178   6.517   2.379   6.000  0.2703  0.6388  0.1251
    72IDQ   C67 8179   6.627   2.365   5.890  0.0204 -0.0103 -0.0294
    72IDQ   C68 8180   6.561   2.373   5.752 -0.0889 -0.6354  0.6000
    72IDQ   C69 8181   6.661   2.354   5.639  0.4709  0.7462 -0.1904
    72IDQ   C70 8182   6.597   2.354   5.495  0.1020  0.3461  0.5369
    72IDQ   C71 8183   6.547   2.493   5.452  0.3205 -0.1159  0.0437
    72IDQ   C72 8184   6.525   2.499   5.304  0.0726  0.5426 -0.3957
    11RH     C1 8185   1.932   1.696   0.941 -0.3878  0.0474 -0.1487
    11RH     C2 8186   2.047   1.777   0.989 -0.3033 -0.0245 -0.2282
    11RH     N1 8187   1.809   1.760   0.967 -0.3301  0.1203 -0.0542
    11RH     S1 8188   1.985   1.932   1.065 -0.1534  0.0084 -0.1734
    11RH     C3 8189   1.811   1.882   1.030 -0.2095  0.1155 -0.0482
    11RH     C4 8190   1.680   1.698   0.924  0.0198  0.1714  0.2224
    11RH     S2 8191   1.680   1.979   1.073 -0.1202  0.1927  0.0545
    11RH     O1 8192   1.941   1.586   0.884 -0.4961  0.0457 -0.1614
    11RH     C5 8193   2.175   1.739   0.976 -0.3353 -0.1009 -0.3244
    21BTZ    C6 8194   2.292   1.793   1.043  0.0249  0.2816  0.0613
    21BTZ    C7 8195   2.281   1.896   1.133  0.0997  0.3371  0.0070
    21BTZ    C8 8196   2.419   1.729   1.027  0.0065  0.2575  0.0109
    21BTZ    C9 8197   2.393   1.941   1.211  0.1595  0.3713 -0.0987
    21BTZ   C10 8198   2.517   1.882   1.199  0.1446  0.3501 -0.1501
    21BTZ   C11 8199   2.533   1.774   1.106  0.0674  0.2923 -0.0966
    21BTZ    N2 8200   2.442   1.627   0.943 -0.0640  0.2041  0.0555
    21BTZ    N3 8201   2.649   1.710   1.086  0.0458  0.2669 -0.1384
    21BTZ    S3 8202   2.615   1.585   0.962 -0.0554  0.1959 -0.0399
    31IDT   C12 8203   2.617   1.924   1.299  0.0764 -0.0296  0.2025
    31IDT   C13 8204   2.719   1.849   1.353  0.3553  0.1789 -0.0315
    31IDT   C14 8205   2.793   1.920   1.452  0.3374  0.2778 -0.0884
    31IDT   C15 8206   2.749   2.049   1.475  0.0452  0.1458  0.1013
    31IDT    S4 8207   2.608   2.090   1.371 -0.2322 -0.1166  0.3692
    4IDB    C16 8208   2.821   2.110   1.580  0.1485  0.5853  0.1298
    4IDB    C17 8209   2.927   2.021   1.615  0.2707  0.5172 -0.4023
    51IDQ   C18 8210   2.908   1.885   1.540 -0.4856 -0.6188 -0.2678
    4IDB    C19 8211   3.026   2.059   1.705  0.2960  0.1641 -0.2785
    51IDQ   C20 8212   3.041   1.849   1.470  0.5721  0.3296 -0.0542
    51IDQ   C21 8213   2.865   1.762   1.624  0.4339  0.2645 -0.2381
    51IDQ   C22 8214   2.822   1.777   1.775  0.5218 -0.5020  0.3183
    51IDQ   C23 8215   3.079   1.865   1.320  0.1407 -0.3948 -0.3721
    51IDQ   C24 8216   2.686   1.855   1.799 -0.2890 -0.0879 -0.0663
    51IDQ   C25 8217   2.643   1.873   1.948  0.3221  0.2812  0.3200
    51IDQ   C26 8218   2.512   1.946   1.952  0.2392  0.4730 -0.4635
    51IDQ   C27 8219   2.460   1.941   2.092  0.8034 -0.1027  0.1507
    51IDQ   C28 8220   2.327   2.000   2.123  0.2238 -0.1256 -0.4357
    51IDQ   C29 8221   2.287   1.971   2.266  0.2642 -0.1143  0.1038
    51IDQ   C30 8222   3.076   2.014   1.271 -0.5006 -0.2079  0.4261
    51IDQ   C31 8223   3.126   2.036   1.123 -0.3054  0.3922 -0.1293
    51IDQ   C32 8224   3.263   1.967   1.096  0.3475  0.4607  0.3793
    51IDQ   C33 8225   3.305   2.009   0.955  0.0866  0.3305 -0.0649
    51IDQ   C34 8226   3.456   2.000   0.930 -0.2124 -0.1057 -1.0485
    51IDQ   C35 8227   3.496   2.080   0.813 -0.3695 -0.4830  0.1080
    4IDB    C36 8228   2.813   2.239   1.636  0.0502  0.2986  0.7929
    4IDB    C37 8229   2.915   2.276   1.729  0.0778 -0.0606  0.9098
    11RH    C38 8230   1.600   1.614   1.024 -0.3419 -0.5274 -0.6467
    4IDB    C39 8231   3.018   2.187   1.761  0.1977 -0.1227  0.3845
    62IDT   C40 8232   3.097   2.243   1.868 -0.0750  0.2131  0.2192
    72IDQ   C41 8233   2.919   2.402   1.819 -0.4111  1.1544  0.1727
    62IDT   C42 8234   3.042   2.363   1.908  0.4397  0.4110  0.3410
    72IDQ   C43 8235   2.796   2.431   1.902  0.2741  0.4294 -0.5619
    72IDQ   C44 8236   2.971   2.536   1.757 -0.0161  0.3004 -0.0597
    62IDT    S5 8237   3.240   2.197   1.967 -0.1719 -0.4262  0.0732
    62IDT   C45 8238   3.217   2.350   2.062  0.5225 -0.3903  0.1904
    62IDT   C46 8239   3.110   2.424   2.018  0.7783  0.0703  0.3250
    82BTZ   C47 8240   3.288   2.372   2.190 -0.1511 -0.0353  0.3005
    82BTZ   C48 8241   3.359   2.264   2.237 -0.0408  0.0241  0.2711
    82BTZ   C49 8242   3.430   2.268   2.362  0.1394  0.1370  0.1656
    82BTZ   C50 8243   3.431   2.381   2.441  0.2092  0.1903  0.0896
    82BTZ   C51 8244   3.286   2.491   2.269 -0.0843  0.0168  0.2238
    82BTZ   C52 8245   3.358   2.496   2.396  0.0989  0.1315  0.1165
    92RH    C53 8246   3.518   2.394   2.556 -0.2002  0.0790 -0.1706
    82BTZ    N4 8247   3.220   2.603   2.234 -0.1788 -0.0325  0.2429
    82BTZ    N5 8248   3.351   2.611   2.464  0.1518  0.1745  0.0495
    82BTZ    S6 8249   3.249   2.721   2.366 -0.0345  0.0678  0.1221
    92RH    C54 8250   3.615   2.316   2.606 -0.2145  0.0917 -0.1233
    92RH     S7 8251   3.683   2.163   2.531 -0.2400  0.0358 -0.0314
    92RH    C55 8252   3.685   2.345   2.734 -0.2118  0.1552 -0.1388
    92RH     O2 8253   3.662   2.441   2.808 -0.1963  0.2032 -0.1963
    92RH     N6 8254   3.783   2.247   2.762 -0.2293  0.1549 -0.0792
    92RH    C56 8255   3.800   2.144   2.673 -0.2458  0.0989 -0.0180
    92RH    C57 8256   3.878   2.269   2.875 -0.1076  0.3287 -0.0705
    92RH    C58 8257   3.838   2.205   3.012 -0.8187  0.0924 -0.3106
    92RH     S8 8258   3.909   2.015   2.683 -0.2683  0.0859  0.0597
    72IDQ   C59 8259   2.941   2.573   1.605 -0.2663  0.3493 -0.4336
    72IDQ   C60 8260   2.977   2.718   1.563  0.2821 -0.3880  0.6439
    72IDQ   C61 8261   2.946   2.760   1.416 -0.4338  0.1507 -0.7535
    72IDQ   C62 8262   3.020   2.689   1.305 -0.3307 -0.1649 -0.1288
    72IDQ   C63 8263   2.979   2.711   1.158  0.3789 -0.4206 -0.1311
    72IDQ   C64 8264   3.009   2.856   1.116  0.6206 -0.1471  0.2115
    72IDQ   C65 8265   2.983   2.885   0.971  0.0683  0.3422 -0.1084
    72IDQ   C66 8266   2.743   2.322   2.000  0.3129  0.0108 -0.3321
    72IDQ   C67 8267   2.658   2.395   2.114 -0.2246 -0.1668  0.6752
    72IDQ   C68 8268   2.596   2.294   2.213  0.2593 -0.2933  0.2095
    72IDQ   C69 8269   2.549   2.359   2.347 -0.0898 -0.2872  0.1611
    72IDQ   C70 8270   2.445   2.477   2.346 -0.5516  0.3798  0.0471
    72IDQ   C71 8271   2.310   2.441   2.298  0.6535  0.4173  0.0722
    72IDQ   C72 8272   2.218   2.563   2.306 -0.1894  0.1786 -0.0821
    11RH     C1 8273   1.297   4.746   3.669 -0.2507 -0.0213 -0.1065
    11RH     C2 8274   1.445   4.745   3.657 -0.2582  0.0284 -0.2010
    11RH     N1 8275   1.235   4.727   3.544 -0.3245 -0.0600 -0.0643
    11RH     S1 8276   1.492   4.720   3.481 -0.3618  0.0214 -0.2281
    11RH     C3 8277   1.314   4.711   3.432 -0.3902 -0.0471 -0.1133
    11RH     C4 8278   1.089   4.742   3.528  0.2119 -0.0368 -0.1439
    11RH     S2 8279   1.265   4.688   3.273 -0.4842 -0.0855 -0.0790
    11RH     O1 8280   1.233   4.760   3.775 -0.1884 -0.0296 -0.0678
    11RH     C5 8281   1.528   4.760   3.760 -0.1971  0.0712 -0.2560
    21BTZ    C6 8282   1.673   4.756   3.780  0.0200 -0.3962  0.1041
    21BTZ    C7 8283   1.762   4.739   3.677 -0.0328 -0.3662  0.0530
    21BTZ    C8 8284   1.723   4.790   3.909  0.0680 -0.1596  0.0246
    21BTZ    C9 8285   1.904   4.754   3.697 -0.0410 -0.1042 -0.0780
    21BTZ   C10 8286   1.957   4.786   3.819  0.0035  0.1275 -0.1577
    21BTZ   C11 8287   1.868   4.806   3.929  0.0596  0.1068 -0.1086
    21BTZ    N2 8288   1.647   4.810   4.017  0.1215 -0.1627  0.0632
    21BTZ    N3 8289   1.907   4.837   4.053  0.1063  0.3177 -0.1769
    21BTZ    S3 8290   1.758   4.849   4.151  0.1642  0.1819 -0.0717
    31IDT   C12 8291   2.102   4.802   3.836 -0.3052 -0.1111 -0.0832
    31IDT   C13 8292   2.180   4.847   3.939 -0.4309 -0.1512  0.0291
    31IDT   C14 8293   2.318   4.852   3.906 -0.3851 -0.1791  0.2143
    31IDT   C15 8294   2.347   4.812   3.778 -0.2247 -0.1603  0.2442
    31IDT    S4 8295   2.200   4.763   3.688 -0.1182 -0.1055  0.0383
    4IDB    C16 8296   2.490   4.830   3.748 -0.3291  0.2743  0.2103
    4IDB    C17 8297   2.553   4.878   3.867 -0.4585  0.7501  0.0936
    51IDQ   C18 8298   2.447   4.898   3.976  0.7384 -0.0919  0.3351
    4IDB    C19 8299   2.688   4.913   3.867 -0.3638  0.4017  0.1791
    51IDQ   C20 8300   2.493   4.807   4.094 -0.0305 -0.8034  0.8120
    51IDQ   C21 8301   2.432   5.043   4.031  0.3896 -0.0524 -0.3771
    51IDQ   C22 8302   2.488   5.172   3.970  0.5559 -0.4410 -0.1748
    51IDQ   C23 8303   2.424   4.677   4.131 -0.0578  0.6193 -0.4566
    51IDQ   C24 8304   2.462   5.202   3.825  0.6158 -0.4456  0.4707
    51IDQ   C25 8305   2.322   5.259   3.785  0.3878  0.0450 -0.2904
    51IDQ   C26 8306   2.236   5.176   3.683 -0.0282 -0.4264  0.1166
    51IDQ   C27 8307   2.317   5.120   3.559  0.0611  0.4034 -0.4146
    51IDQ   C28 8308   2.230   5.041   3.468  0.6766  0.1889  0.1603
    51IDQ   C29 8309   2.319   4.955   3.369 -0.3212  0.3474  0.3735
    51IDQ   C30 8310   2.512   4.597   4.231  0.1292  0.6899 -0.0551
    51IDQ   C31 8311   2.465   4.451   4.239  0.1018 -0.1302 -0.0611
    51IDQ   C32 8312   2.534   4.358   4.338  0.3936  0.2520  0.1585
    51IDQ   C33 8313   2.686   4.324   4.316 -0.1594  0.2917 -0.1280
    51IDQ   C34 8314   2.752   4.253   4.438 -0.1597  0.1132  0.2262
    51IDQ   C35 8315   2.907   4.251   4.430  0.3608 -1.0711 -0.2362
    4IDB    C36 8316   2.561   4.818   3.628 -0.1028 -0.5579  0.4144
    4IDB    C37 8317   2.698   4.855   3.630 -0.0088 -0.9034  0.4992
    11RH    C38 8318   0.996   4.619   3.556 -0.2218  0.2981 -0.1468
    4IDB    C39 8319   2.759   4.901   3.747 -0.1374 -0.4306  0.3832
    62IDT   C40 8320   2.896   4.949   3.716 -0.2993 -0.1221  0.1381
    72IDQ   C41 8321   2.795   4.870   3.509 -0.0770 -0.1026  0.3101
    62IDT   C42 8322   2.920   4.928   3.582 -0.3505 -0.5848  0.1977
    72IDQ   C43 8323   2.741   4.976   3.400 -0.2836  0.1972  0.3200
    72IDQ   C44 8324   2.800   4.737   3.436 -1.0167  0.0271  0.1718
    62IDT    S5 8325   3.035   5.030   3.797 -0.1730 -0.0534 -0.1446
    62IDT   C45 8326   3.122   5.032   3.637 -0.1973 -0.6847 -0.1686
    62IDT   C46 8327   3.047   4.975   3.537 -0.2928 -0.9034  0.0244
    82BTZ   C47 8328   3.249   5.100   3.627  0.4334 -0.3187  0.1148
    82BTZ   C48 8329   3.308   5.139   3.745  0.4353 -0.3794  0.1339
    82BTZ   C49 8330   3.431   5.214   3.747  0.3471 -0.2366  0.1680
    82BTZ   C50 8331   3.495   5.251   3.631  0.2571 -0.0330  0.1829
    82BTZ   C51 8332   3.312   5.136   3.504  0.3411 -0.1070  0.1292
    82BTZ   C52 8333   3.437   5.213   3.506  0.2514  0.0381  0.1639
    92RH    C53 8334   3.628   5.306   3.620  0.1906 -0.3262  0.0048
    82BTZ    N4 8335   3.264   5.105   3.383  0.3300 -0.0294  0.1131
    82BTZ    N5 8336   3.489   5.243   3.387  0.1682  0.2325  0.1757
    82BTZ    S6 8337   3.379   5.173   3.264  0.2017  0.2382  0.1421
    92RH    C54 8338   3.728   5.327   3.707  0.0476 -0.0796  0.1101
    92RH     S7 8339   3.732   5.281   3.884 -0.1865  0.2943  0.2155
    92RH    C55 8340   3.855   5.395   3.670  0.0581 -0.0727  0.1589
    92RH     O2 8341   3.884   5.438   3.557  0.1975 -0.2897  0.1091
    92RH     N6 8342   3.942   5.404   3.780 -0.1130  0.2163  0.2714
    92RH    C56 8343   3.901   5.353   3.901 -0.2592  0.4418  0.3188
    92RH    C57 8344   4.077   5.460   3.762  0.3959 -0.5592  0.0944
    92RH    C58 8345   4.096   5.613   3.741  0.6354  0.0354 -0.0345
    92RH     S8 8346   3.985   5.351   4.047 -0.4758  0.8030  0.4503
    72IDQ   C59 8347   2.899   4.626   3.484  0.2073  0.3825  0.2504
    72IDQ   C60 8348   2.925   4.531   3.366  0.2467 -0.5109 -0.3875
    72IDQ   C61 8349   2.996   4.400   3.396  0.1983  0.0712 -0.2887
    72IDQ   C62 8350   2.921   4.320   3.503 -0.1427  0.8223 -0.5599
    72IDQ   C63 8351   3.009   4.205   3.531 -0.2640  0.9659 -0.6017
    72IDQ   C64 8352   2.971   4.116   3.651 -0.1977  0.1785  0.3413
    72IDQ   C65 8353   3.076   4.005   3.683 -0.0178 -0.0134  0.4229
    72IDQ   C66 8354   2.681   5.108   3.441  0.0209  0.0468  0.9612
    72IDQ   C67 8355   2.621   5.182   3.321  0.2350  0.1159  0.5151
    72IDQ   C68 8356   2.556   5.317   3.341  0.1852 -0.4527  0.0646
    72IDQ   C69 8357   2.482   5.374   3.218  0.1266 -0.3174 -0.1876
    72IDQ   C70 8358   2.358   5.288   3.177  0.2346 -0.1355 -0.1539
    72IDQ   C71 8359   2.307   5.338   3.043  0.2323  0.1787 -0.0553
    72IDQ   C72 8360   2.230   5.232   2.962  0.0961 -0.0481 -0.0857
    11RH     C1 8361   2.236   0.263   5.995 -0.2717 -0.1206 -0.0397
    11RH     C2 8362   2.169   0.137   6.036 -0.1261 -0.1790  0.0162
    11RH     N1 8363   2.372   0.265   6.033 -0.2455  0.0063 -0.1386
    11RH     S1 8364   2.290   0.030   6.123  0.0357 -0.0632 -0.0647
    11RH     C3 8365   2.422   0.156   6.100 -0.0967  0.0567 -0.1684
    11RH     C4 8366   2.444   0.397   6.013 -0.3740 -0.0775 -0.0442
    11RH     S2 8367   2.580   0.134   6.156 -0.0349  0.2043 -0.2813
    11RH     O1 8368   2.181   0.357   5.934 -0.4016 -0.1741 -0.0060
    11RH     C5 8369   2.041   0.110   6.013 -0.1189 -0.2985  0.1115
    21BTZ    C6 8370   1.975  -0.019   6.005  0.1766  0.0550 -0.0242
    21BTZ    C7 8371   2.046  -0.136   6.016  0.2245  0.0663 -0.2168
    21BTZ    C8 8372   1.833  -0.025   5.994  0.1760  0.0173  0.0024
    21BTZ    C9 8373   1.980  -0.264   6.015  0.2741  0.0410 -0.3923
    21BTZ   C10 8374   1.844  -0.275   6.004  0.2756  0.0046 -0.3746
    21BTZ   C11 8375   1.766  -0.155   5.993  0.2264 -0.0085 -0.1761
    21BTZ    N2 8376   1.753   0.082   5.983  0.1319  0.0030  0.1823
    21BTZ    N3 8377   1.632  -0.153   5.982  0.2227 -0.0434 -0.1395
    21BTZ    S3 8378   1.586   0.020   5.972  0.1532 -0.0448  0.1302
    31IDT   C12 8379   1.781  -0.411   6.005 -0.2817 -0.0445  0.4582
    31IDT   C13 8380   1.660  -0.448   5.953 -0.2623 -0.1103  0.4603
    31IDT   C14 8381   1.644  -0.590   5.946 -0.0965 -0.1203  0.2552
    31IDT   C15 8382   1.752  -0.662   5.993  0.0114 -0.0623  0.0955
    31IDT    S4 8383   1.884  -0.554   6.049 -0.0896  0.0100  0.1937
    4IDB    C16 8384   1.720  -0.802   5.990 -0.3450  0.2486 -0.1823
    4IDB    C17 8385   1.590  -0.820   5.934 -0.2612 -0.0968 -0.2676
    51IDQ   C18 8386   1.537  -0.685   5.895  0.0696 -0.0906  0.5839
    4IDB    C19 8387   1.533  -0.947   5.925  0.0059 -0.2271 -0.1396
    51IDQ   C20 8388   1.513  -0.695   5.734  0.8130  0.1460 -0.2883
    51IDQ   C21 8389   1.397  -0.644   5.950 -0.5270 -0.0150  0.1206
    51IDQ   C22 8390   1.332  -0.719   6.060  0.2096  0.9551  0.5448
    51IDQ   C23 8391   1.594  -0.617   5.637 -0.3080 -0.3542  0.2555
    51IDQ   C24 8392   1.221  -0.656   6.129 -0.0412 -0.1906 -0.9734
    51IDQ   C25 8393   1.140  -0.763   6.211 -0.3780  0.4331 -0.1375
    51IDQ   C26 8394   1.007  -0.814   6.147  0.1041  0.2843  0.8986
    51IDQ   C27 8395   0.943  -0.919   6.230  0.0418  0.2765 -0.1374
    51IDQ   C28 8396   0.794  -0.956   6.197 -0.2539 -0.4165  0.5851
    51IDQ   C29 8397   0.731  -1.055   6.292  0.3892  0.0864 -0.0245
    51IDQ   C30 8398   1.558  -0.606   5.491  0.5879  0.2775 -0.9084
    51IDQ   C31 8399   1.431  -0.542   5.460  0.5978 -0.0740 -0.0343
    51IDQ   C32 8400   1.377  -0.549   5.316 -0.0278 -0.6248 -0.4143
    51IDQ   C33 8401   1.461  -0.536   5.188  0.0598 -0.0815 -0.9585
    51IDQ   C34 8402   1.373  -0.560   5.071 -0.3403  0.2196 -0.3092
    51IDQ   C35 8403   1.456  -0.521   4.948 -0.7431  0.0339 -0.1470
    4IDB    C36 8404   1.795  -0.911   6.038 -0.1607  0.4668  0.0328
    4IDB    C37 8405   1.735  -1.039   6.028  0.1114  0.3293  0.1612
    11RH    C38 8406   2.515   0.419   5.879  0.6753 -0.4303  0.0893
    4IDB    C39 8407   1.608  -1.056   5.973  0.1901 -0.0087  0.0754
    62IDT   C40 8408   1.567  -1.195   5.978  0.3600 -0.5601 -0.0761
    72IDQ   C41 8409   1.794  -1.182   6.041 -0.4268  0.0171  0.3016
    62IDT   C42 8410   1.668  -1.274   6.028 -0.0621 -0.9158  0.2303
    72IDQ   C43 8411   1.872  -1.206   6.172 -0.6001  0.0275 -0.0743
    72IDQ   C44 8412   1.893  -1.218   5.919 -0.2029 -1.0954 -0.0434
    62IDT    S5 8413   1.417  -1.289   5.948  0.0000  0.0323 -0.1655
    62IDT   C45 8414   1.503  -1.438   6.007 -0.7382 -0.2457  0.2358
    62IDT   C46 8415   1.632  -1.412   6.045 -0.6836 -0.7386  0.4073
    82BTZ   C47 8416   1.437  -1.566   6.015  0.0237 -0.4300  0.0321
    82BTZ   C48 8417   1.380  -1.617   5.902 -0.0829 -0.4704  0.1032
    82BTZ   C49 8418   1.294  -1.733   5.905 -0.2879 -0.3144  0.2592
    82BTZ   C50 8419   1.265  -1.797   6.023 -0.3859 -0.1182  0.3438
    82BTZ   C51 8420   1.410  -1.630   6.141 -0.0724 -0.2267  0.1159
    82BTZ   C52 8421   1.322  -1.748   6.144 -0.2807 -0.0682  0.2744
    92RH    C53 8422   1.172  -1.910   6.028 -0.0617 -0.0915  0.0319
    82BTZ    N4 8423   1.459  -1.590   6.258  0.0157 -0.1687  0.0590
    82BTZ    N5 8424   1.301  -1.802   6.265 -0.3600  0.1174  0.3449
    82BTZ    S6 8425   1.395  -1.703   6.381 -0.1677  0.0966  0.2089
    92RH    C54 8426   1.098  -1.982   5.943 -0.1941 -0.0674  0.1264
    92RH     S7 8427   1.084  -1.957   5.761 -0.3459 -0.1216  0.1299
    92RH    C55 8428   1.012  -2.095   5.984 -0.2392  0.0103  0.2469
    92RH     O2 8429   0.999  -2.137   6.100 -0.1614  0.0609  0.2739
    92RH     N6 8430   0.945  -2.152   5.874 -0.3845  0.0204  0.3295
    92RH    C56 8431   0.966  -2.098   5.749 -0.4615 -0.0395  0.2903
    92RH    C57 8432   0.861  -2.273   5.897  0.6133 -0.6838 -0.2043
    92RH    C58 8433   0.713  -2.228   5.927 -0.3642 -0.1369  0.0908
    92RH     S8 8434   0.899  -2.147   5.602 -0.6349 -0.0420  0.3701
    72IDQ   C59 8435   1.945  -1.354   5.885  0.2107 -0.4040  0.7118
    72IDQ   C60 8436   1.989  -1.357   5.736 -0.4095  0.2242 -0.3975
    72IDQ   C61 8437   1.877  -1.341   5.627 -0.3733  0.5125  0.0124
    72IDQ   C62 8438   1.773  -1.437   5.645  0.1593  0.2869 -0.2669
    72IDQ   C63 8439   1.650  -1.383   5.569  0.0746  0.2042 -0.0618
    72IDQ   C64 8440   1.527  -1.465   5.571  0.2526 -0.3294 -0.8073
    72IDQ   C65 8441   1.411  -1.401   5.507  0.3911  0.1468 -0.3835
    72IDQ   C66 8442   1.994  -1.130   6.219 -0.1087 -0.6611  0.2434
    72IDQ   C67 8443   1.989  -1.155   6.366  0.0361 -0.4477 -0.7871
    72IDQ   C68 8444   2.119  -1.113   6.443 -0.4532  0.2661  0.1485
    72IDQ   C69 8445   2.114  -1.190   6.570 -0.2511 -0.1220 -0.6725
    72IDQ   C70 8446   2.225  -1.153   6.663 -0.0976  0.8875 -0.2893
    72IDQ   C71 8447   2.228  -1.232   6.797 -0.2239 -0.2137  0.3360
    72IDQ   C72 8448   2.348  -1.189   6.883 -0.0848 -0.2558  0.7095
    11RH     C1 8449   2.649   3.466   4.999  0.2864  0.1289 -0.0582
    11RH     C2 8450   2.710   3.397   5.115  0.2849  0.1515 -0.0439
    11RH     N1 8451   2.550   3.559   5.040  0.1165 -0.0349 -0.0912
    11RH     S1 8452   2.634   3.458   5.271  0.0601 -0.0443 -0.0748
    11RH     C3 8453   2.525   3.573   5.175 -0.0210 -0.1466 -0.1050
    11RH     C4 8454   2.487   3.656   4.941 -0.3861  0.2968  0.0337
    11RH     S2 8455   2.414   3.675   5.249 -0.2343 -0.3477 -0.1436
    11RH     O1 8456   2.678   3.447   4.880  0.4182  0.2379 -0.0436
    11RH     C5 8457   2.805   3.304   5.104  0.4288  0.2952 -0.0130
    21BTZ    C6 8458   2.879   3.216   5.198  0.2754  0.1074  0.1183
    21BTZ    C7 8459   2.846   3.216   5.331  0.2377  0.1567  0.1088
    21BTZ    C8 8460   2.977   3.122   5.152  0.2212  0.0277  0.1646
    21BTZ    C9 8461   2.907   3.126   5.425  0.1455  0.1304  0.1440
    21BTZ   C10 8462   3.002   3.034   5.386  0.0911  0.0547  0.1887
    21BTZ   C11 8463   3.039   3.030   5.248  0.1275  0.0008  0.2004
    21BTZ    N2 8464   3.017   3.112   5.025  0.2503 -0.0259  0.1781
    21BTZ    N3 8465   3.130   2.945   5.197  0.0812 -0.0742  0.2425
    21BTZ    S3 8466   3.139   2.981   5.022  0.1572 -0.1146  0.2383
    31IDT   C12 8467   3.070   2.959   5.496 -0.2253 -0.0826 -0.2326
    31IDT   C13 8468   3.146   2.846   5.483  0.1305  0.1559 -0.2674
    31IDT   C14 8469   3.192   2.795   5.609  0.4405  0.3581 -0.2960
    31IDT   C15 8470   3.151   2.869   5.718  0.3235  0.2754 -0.2831
    31IDT    S4 8471   3.051   3.010   5.670 -0.1932 -0.0682 -0.2333
    4IDB    C16 8472   3.203   2.814   5.842 -0.0635  0.0849 -0.4549
    4IDB    C17 8473   3.289   2.703   5.813  0.5746  0.5379 -0.3207
    51IDQ   C18 8474   3.286   2.681   5.661  0.1829  0.8852  0.5931
    4IDB    C19 8475   3.364   2.643   5.914  0.3552  0.6222 -0.1066
    51IDQ   C20 8476   3.440   2.681   5.605  0.0989 -0.4730  0.0671
    51IDQ   C21 8477   3.212   2.547   5.608 -0.2016 -0.3061 -0.3030
    51IDQ   C22 8478   3.133   2.460   5.708  0.0284 -0.2049  0.0256
    51IDQ   C23 8479   3.484   2.797   5.513  0.3748  0.4120 -0.3785
    51IDQ   C24 8480   3.041   2.376   5.623  0.1383 -0.1081 -0.1690
    51IDQ   C25 8481   2.941   2.281   5.701 -1.0123  0.7186 -0.3482
    51IDQ   C26 8482   3.009   2.177   5.787  0.8278  0.7760 -0.6996
    51IDQ   C27 8483   2.906   2.084   5.851 -0.5447  0.3114  0.3834
    51IDQ   C28 8484   2.973   1.989   5.952  0.3116  0.4702  0.1151
    51IDQ   C29 8485   2.860   1.892   5.988  0.3826 -0.0721  0.3874
    51IDQ   C30 8486   3.464   2.940   5.564 -0.0409 -0.3071 -0.4541
    51IDQ   C31 8487   3.495   2.997   5.708 -0.1631  0.1330  0.5779
    51IDQ   C32 8488   3.635   2.958   5.753 -0.0807  0.6842 -0.0757
    51IDQ   C33 8489   3.652   2.995   5.902 -0.1579 -0.5518  0.5902
    51IDQ   C34 8490   3.775   2.954   5.972 -0.1124  0.4179  0.1473
    51IDQ   C35 8491   3.824   2.813   5.958  0.4063  0.5859  0.3006
    4IDB    C36 8492   3.191   2.865   5.972 -0.9298 -0.2884 -0.3755
    4IDB    C37 8493   3.268   2.802   6.073 -1.1420 -0.1957 -0.1564
    11RH    C38 8494   2.345   3.625   4.889 -0.0985 -0.4726  0.4349
    4IDB    C39 8495   3.351   2.695   6.044 -0.5112  0.2489 -0.0270
    62IDT   C40 8496   3.421   2.643   6.159  0.3755  0.1693 -0.0083
    72IDQ   C41 8497   3.289   2.839   6.218 -0.2608 -0.2227  0.5911
    62IDT   C42 8498   3.386   2.728   6.262  0.4126  0.0992  0.0622
    72IDQ   C43 8499   3.154   2.820   6.298  0.3642 -0.3570  0.1880
    72IDQ   C44 8500   3.364   2.974   6.252 -0.2472  0.8385  0.4702
    62IDT    S5 8501   3.525   2.508   6.216 -0.0479 -0.1722 -0.0342
    62IDT   C45 8502   3.516   2.577   6.384 -0.1580 -0.4031  0.0563
    62IDT   C46 8503   3.440   2.691   6.389  0.1109 -0.2245  0.0989
    82BTZ   C47 8504   3.589   2.525   6.502 -0.1131  0.2322 -0.1621
    82BTZ   C48 8505   3.558   2.577   6.625 -0.0332  0.2101 -0.1324
    82BTZ   C49 8506   3.617   2.526   6.746  0.0321  0.1763 -0.1780
    82BTZ   C50 8507   3.706   2.422   6.744  0.0174  0.1647 -0.2533
    82BTZ   C51 8508   3.683   2.417   6.495 -0.1317  0.2211 -0.2409
    82BTZ   C52 8509   3.742   2.364   6.618 -0.0653  0.1868 -0.2872
    92RH    C53 8510   3.772   2.355   6.859  0.2647  0.1968 -0.0379
    82BTZ    N4 8511   3.721   2.358   6.381 -0.2070  0.2403 -0.2763
    82BTZ    N5 8512   3.828   2.263   6.604 -0.0872  0.1785 -0.3599
    82BTZ    S6 8513   3.837   2.230   6.428 -0.1959  0.2147 -0.3724
    92RH    C54 8514   3.762   2.367   6.992  0.2184  0.0345 -0.0260
    92RH     S7 8515   3.645   2.473   7.085  0.1460 -0.1241  0.0653
    92RH    C55 8516   3.849   2.293   7.087  0.2190 -0.0439 -0.0872
    92RH     O2 8517   3.938   2.213   7.056  0.2615  0.0297 -0.1555
    92RH     N6 8518   3.817   2.325   7.221  0.1644 -0.2165 -0.0586
    92RH    C56 8519   3.716   2.415   7.245  0.1200 -0.2861  0.0181
    92RH    C57 8520   3.897   2.265   7.331  0.5123 -0.7366  0.5923
    92RH    C58 8521   4.027   2.341   7.362  0.3556  0.1788 -0.6443
    92RH     S8 8522   3.660   2.470   7.394  0.0514 -0.4870  0.0663
    72IDQ   C59 8523   3.347   3.113   6.192  0.1480 -1.0269  0.5280
    72IDQ   C60 8524   3.206   3.173   6.188  0.1524  0.1071 -0.2187
    72IDQ   C61 8525   3.154   3.232   6.321  0.4363 -0.0551  0.4065
    72IDQ   C62 8526   3.239   3.343   6.384 -0.1221  0.1102 -0.3168
    72IDQ   C63 8527   3.170   3.416   6.495 -0.5253  0.3121  0.3895
    72IDQ   C64 8528   3.252   3.535   6.543 -0.0375  0.4656 -0.1378
    72IDQ   C65 8529   3.263   3.548   6.695 -0.0325 -0.1972  0.0738
    72IDQ   C66 8530   3.076   2.690   6.292  0.0379 -0.1973  0.3400
    72IDQ   C67 8531   2.934   2.687   6.350 -1.1006  0.0339 -0.2614
    72IDQ   C68 8532   2.928   2.702   6.504 -0.4688  0.6627  0.1033
    72IDQ   C69 8533   2.796   2.655   6.579 -0.0598  0.9079  0.2842
    72IDQ   C70 8534   2.667   2.734   6.553  0.1099  0.4557 -0.5729
    72IDQ   C71 8535   2.544   2.682   6.631 -0.4265  0.0040  0.1747
    72IDQ   C72 8536   2.432   2.784   6.637 -0.0192  0.4616  0.1559
    11RH     C1 8537   2.716   3.610   4.569 -0.2039 -0.0754 -0.0015
    11RH     C2 8538   2.839   3.526   4.567 -0.0790  0.1066 -0.0209
    11RH     N1 8539   2.660   3.622   4.440 -0.0836  0.0724 -0.0403
    11RH     S1 8540   2.872   3.469   4.396  0.1887  0.4603 -0.0892
    11RH     C3 8541   2.723   3.558   4.335  0.1225  0.3506 -0.0887
    11RH     C4 8542   2.544   3.710   4.417 -0.2293 -0.8698  0.6528
    11RH     S2 8543   2.677   3.557   4.173  0.2984  0.5721 -0.1414
    11RH     O1 8544   2.667   3.664   4.669 -0.3908 -0.3263  0.0432
    11RH     C5 8545   2.911   3.499   4.677 -0.1559  0.0180  0.0082
    21BTZ    C6 8546   3.028   3.412   4.697 -0.2126 -0.0943 -0.2400
    21BTZ    C7 8547   3.085   3.340   4.595 -0.2583  0.0249 -0.3508
    21BTZ    C8 8548   3.093   3.415   4.824 -0.0576 -0.0923 -0.3192
    21BTZ    C9 8549   3.208   3.268   4.613 -0.1549  0.1512 -0.5435
    21BTZ   C10 8550   3.274   3.268   4.733 -0.0058  0.1579 -0.6254
    21BTZ   C11 8551   3.219   3.342   4.843  0.0476  0.0359 -0.5152
    21BTZ    N2 8552   3.047   3.482   4.931  0.0004 -0.2016 -0.2257
    21BTZ    N3 8553   3.274   3.349   4.964  0.1901  0.0298 -0.5791
    21BTZ    S3 8554   3.165   3.453   5.062  0.1959 -0.1439 -0.3873
    31IDT   C12 8555   3.408   3.197   4.747 -0.0084 -0.1377 -0.1748
    31IDT   C13 8556   3.439   3.108   4.846  0.1402 -0.0062 -0.1028
    31IDT   C14 8557   3.555   3.030   4.816  0.2081  0.0885 -0.0867
    31IDT   C15 8558   3.613   3.059   4.694  0.1120  0.0301 -0.1465
    31IDT    S4 8559   3.524   3.189   4.607 -0.0738 -0.1511 -0.2282
    4IDB    C16 8560   3.725   2.966   4.669  0.0575 -0.1549  0.0046
    4IDB    C17 8561   3.745   2.883   4.784  0.3717  0.1299  0.1602
    51IDQ   C18 8562   3.647   2.927   4.895  0.4219 -0.3245  0.2352
    4IDB    C19 8563   3.839   2.781   4.782  0.5602  0.3004  0.2539
    51IDQ   C20 8564   3.580   2.797   4.944 -0.0297  0.6997  0.0563
    51IDQ   C21 8565   3.705   2.998   5.027 -0.2017  0.6242  0.4866
    51IDQ   C22 8566   3.853   3.038   5.031 -0.2622  0.2043  0.0379
    51IDQ   C23 8567   3.433   2.757   4.924  0.3627 -0.0404 -0.0898
    51IDQ   C24 8568   3.921   3.124   5.137  0.4577  0.0150  0.4150
    51IDQ   C25 8569   3.859   3.155   5.272 -0.5948  0.0520  0.6626
    51IDQ   C26 8570   3.825   3.049   5.370  0.2554  0.3089 -0.4859
    51IDQ   C27 8571   3.940   2.957   5.414  0.0269 -0.4109 -0.6974
    51IDQ   C28 8572   3.918   2.870   5.531 -0.2807  0.5135 -0.4906
    51IDQ   C29 8573   4.026   2.766   5.535 -0.1877 -0.8885 -0.1168
    51IDQ   C30 8574   3.392   2.630   5.008  0.3976 -0.3297  0.4906
    51IDQ   C31 8575   3.371   2.646   5.160  0.3916  0.1544  0.1453
    51IDQ   C32 8576   3.300   2.519   5.222  0.8056 -0.5361  0.7143
    51IDQ   C33 8577   3.382   2.405   5.268 -0.4553 -0.0462 -0.5735
    51IDQ   C34 8578   3.308   2.287   5.319  0.3680 -0.0406 -0.0038
    51IDQ   C35 8579   3.373   2.228   5.441  0.0637  0.5799  0.6140
    4IDB    C36 8580   3.800   2.947   4.552 -0.0706 -0.2714 -0.0584
    4IDB    C37 8581   3.895   2.842   4.552  0.1255 -0.0941  0.0391
    11RH    C38 8582   2.560   3.859   4.371  0.3769  0.0230  0.4613
    4IDB    C39 8583   3.913   2.762   4.665  0.4320  0.1837  0.1906
    62IDT   C40 8584   4.012   2.659   4.633 -0.2887 -0.4112 -0.1392
    72IDQ   C41 8585   3.993   2.800   4.436  0.1667  0.5152 -0.8220
    62IDT   C42 8586   4.052   2.668   4.501 -0.7355 -0.9146 -0.3190
    72IDQ   C43 8587   4.100   2.911   4.399 -0.0574 -0.0550  0.6140
    72IDQ   C44 8588   3.925   2.753   4.307  0.4028  0.0001 -0.1021
    62IDT    S5 8589   4.092   2.522   4.718  0.4513  0.2695  0.2959
    62IDT   C45 8590   4.179   2.482   4.563  0.1002 -0.1843  0.2078
    62IDT   C46 8591   4.147   2.569   4.462 -0.5164 -0.7868 -0.1230
    82BTZ   C47 8592   4.266   2.358   4.557  0.0053 -0.0188 -0.2510
    82BTZ   C48 8593   4.294   2.296   4.676  0.0839  0.1779 -0.1647
    82BTZ   C49 8594   4.388   2.187   4.683  0.2443  0.3260 -0.0093
    82BTZ   C50 8595   4.454   2.140   4.573  0.3257  0.2773  0.0594
    82BTZ   C51 8596   4.333   2.314   4.438  0.0856 -0.0772 -0.1842
    82BTZ   C52 8597   4.428   2.203   4.446  0.2484  0.0734 -0.0263
    92RH    C53 8598   4.541   2.026   4.576 -0.0687  0.0384  0.0826
    82BTZ    N4 8599   4.314   2.367   4.317  0.0216 -0.2641 -0.2567
    82BTZ    N5 8600   4.486   2.167   4.332  0.3154  0.0075  0.0283
    82BTZ    S6 8601   4.420   2.275   4.206  0.1698 -0.2552 -0.1232
    92RH    C54 8602   4.579   1.944   4.675  0.0899  0.0709  0.0479
    92RH     S7 8603   4.554   1.969   4.855  0.1851  0.0239  0.0676
    92RH    C55 8604   4.651   1.816   4.651  0.2168  0.1528 -0.0137
    92RH     O2 8605   4.683   1.770   4.540  0.1922  0.2002 -0.0404
    92RH     N6 8606   4.679   1.750   4.773  0.3736  0.1716 -0.0400
    92RH    C56 8607   4.639   1.809   4.891  0.3877  0.1148 -0.0064
    92RH    C57 8608   4.756   1.631   4.766  0.0137  0.1907  0.0588
    92RH    C58 8609   4.677   1.502   4.752  0.1100  0.3735 -0.1452
    92RH     S8 8610   4.661   1.751   5.048  0.5591  0.1221 -0.0267
    72IDQ   C59 8611   3.847   2.861   4.222 -0.8981 -0.2171  0.4588
    72IDQ   C60 8612   3.800   2.810   4.080 -0.6609  0.1630  0.3355
    72IDQ   C61 8613   3.724   2.929   4.023 -0.0916  0.0799 -0.5363
    72IDQ   C62 8614   3.637   2.889   3.904 -0.3564 -0.3767 -0.5589
    72IDQ   C63 8615   3.519   2.794   3.922  0.2214 -0.0932  0.1395
    72IDQ   C64 8616   3.432   2.768   3.804 -0.3245 -0.4559 -0.3523
    72IDQ   C65 8617   3.340   2.650   3.834 -0.4381  0.0886  0.9181
    72IDQ   C66 8618   4.194   2.979   4.504  0.0870 -0.7756 -0.0026
    72IDQ   C67 8619   4.259   3.103   4.443  0.3547  0.0234  0.2963
    72IDQ   C68 8620   4.357   3.183   4.533 -0.0264  0.0916 -0.4093
    72IDQ   C69 8621   4.406   3.308   4.461  0.2566 -0.1290 -0.2680
    72IDQ   C70 8622   4.439   3.417   4.566  0.2553  1.0199  0.3203
    72IDQ   C71 8623   4.559   3.381   4.659 -0.0402 -0.0393  0.1183
    72IDQ   C72 8624   4.592   3.504   4.734 -0.5775 -0.1572 -0.7649
    11RH     C1 8625   6.131   0.469   0.617 -0.0007  0.1222  0.1027
    11RH     C2 8626   6.124   0.611   0.576 -0.0730  0.0828 -0.0212
    11RH     N1 8627   6.003   0.409   0.618  0.0013  0.1201  0.3772
    11RH     S1 8628   5.949   0.656   0.541 -0.1336  0.0455  0.2312
    11RH     C3 8629   5.895   0.485   0.583 -0.0606  0.0837  0.4882
    11RH     C4 8630   5.983   0.267   0.651  0.4189 -0.1010  0.0225
    11RH     S2 8631   5.733   0.438   0.576 -0.0722  0.0732  0.8079
    11RH     O1 8632   6.235   0.408   0.647  0.0522  0.1536 -0.0147
    11RH     C5 8633   6.230   0.691   0.567 -0.0893  0.0767 -0.2791
    21BTZ    C6 8634   6.244   0.832   0.538 -0.2230  0.0056  0.0321
    21BTZ    C7 8635   6.141   0.919   0.514 -0.2048  0.0285  0.0369
    21BTZ    C8 8636   6.378   0.883   0.538 -0.2049 -0.0403 -0.0589
    21BTZ    C9 8637   6.164   1.059   0.488 -0.1684  0.0077 -0.0468
    21BTZ   C10 8638   6.290   1.112   0.488 -0.1502 -0.0361 -0.1353
    21BTZ   C11 8639   6.402   1.026   0.513 -0.1681 -0.0615 -0.1440
    21BTZ    N2 8640   6.487   0.809   0.561 -0.2198 -0.0661 -0.0727
    21BTZ    N3 8641   6.529   1.066   0.515 -0.1533 -0.1044 -0.2263
    21BTZ    S3 8642   6.627   0.920   0.550 -0.1864 -0.1197 -0.1977
    31IDT   C12 8643   6.299   1.266   0.463 -0.0967  0.1233 -0.2308
    31IDT   C13 8644   6.197   1.356   0.451 -0.0219  0.2388 -0.0011
    31IDT   C14 8645   6.243   1.491   0.438  0.0923  0.2204  0.2021
    31IDT   C15 8646   6.381   1.503   0.439  0.1052  0.0911  0.1286
    31IDT    S4 8647   6.462   1.344   0.458 -0.0274 -0.0184 -0.2065
    4IDB    C16 8648   6.413   1.645   0.428 -0.0227  0.1149 -0.2650
    4IDB    C17 8649   6.294   1.723   0.428 -0.0843  0.0359  0.3113
    51IDQ   C18 8650   6.175   1.628   0.431 -0.1376 -0.3330  1.2561
    4IDB    C19 8651   6.300   1.862   0.423 -0.1972  0.0397  0.2681
    51IDQ   C20 8652   6.099   1.670   0.563  0.2011  0.2960 -0.0994
    51IDQ   C21 8653   6.073   1.640   0.310 -0.1801 -0.1691  0.0612
    51IDQ   C22 8654   6.100   1.718   0.188 -0.3492 -0.5386  0.1946
    51IDQ   C23 8655   6.078   1.569   0.683  0.1803  0.2172 -0.1636
    51IDQ   C24 8656   6.095   1.639   0.061 -0.0329 -0.0955  0.2113
    51IDQ   C25 8657   6.177   1.510   0.041  0.1377  0.1276 -0.2210
    51IDQ   C26 8658   6.325   1.542   0.051  0.1238 -0.5413 -0.3607
    51IDQ   C27 8659   6.411   1.419   0.061 -0.0353 -0.2764  0.7502
    51IDQ   C28 8660   6.565   1.442   0.037  0.1589  0.6627 -0.3623
    51IDQ   C29 8661   6.658   1.316   0.032 -0.3709  0.0554  0.6112
    51IDQ   C30 8662   6.011   1.642   0.801 -0.3621 -0.2475 -0.1725
    51IDQ   C31 8663   5.993   1.556   0.925 -0.3395 -0.1952 -0.0463
    51IDQ   C32 8664   5.957   1.636   1.046 -0.3017 -0.4285 -0.1160
    51IDQ   C33 8665   5.907   1.557   1.168 -0.4049  0.1524  0.3885
    51IDQ   C34 8666   6.021   1.473   1.239 -0.1435 -0.0167  0.5292
    51IDQ   C35 8667   5.978   1.413   1.377  0.1931 -0.2553 -0.0280
    4IDB    C36 8668   6.540   1.705   0.425 -0.0737  0.1987 -0.8916
    4IDB    C37 8669   6.544   1.847   0.420 -0.1888  0.2012 -0.9263
    11RH    C38 8670   5.986   0.158   0.545  0.1304 -0.3822  0.1198
    4IDB    C39 8671   6.427   1.922   0.420 -0.2479  0.1235 -0.3586
    62IDT   C40 8672   6.462   2.064   0.417  0.3119  0.1946  0.2796
    72IDQ   C41 8673   6.662   1.940   0.408  0.5052  0.5629  0.6491
    62IDT   C42 8674   6.599   2.077   0.417  0.3016  0.3287  0.7741
    72IDQ   C43 8675   6.750   1.913   0.278 -0.2432 -0.8245 -0.2151
    72IDQ   C44 8676   6.749   1.947   0.537  0.6689 -0.4376 -0.3140
    62IDT    S5 8677   6.378   2.222   0.424  0.1173  0.1431 -0.5996
    62IDT   C45 8678   6.541   2.303   0.428  0.0282  0.3139 -0.2345
    62IDT   C46 8679   6.644   2.213   0.423  0.1414  0.3963  0.4842
    82BTZ   C47 8680   6.544   2.444   0.447 -0.3435 -0.2740 -0.2461
    82BTZ   C48 8681   6.452   2.498   0.532 -0.3307 -0.3203 -0.2028
    82BTZ   C49 8682   6.451   2.639   0.563 -0.2353 -0.3593 -0.0132
    82BTZ   C50 8683   6.541   2.726   0.508 -0.1529 -0.3522  0.1328
    82BTZ   C51 8684   6.642   2.530   0.387 -0.2594 -0.2648 -0.0981
    82BTZ   C52 8685   6.640   2.674   0.418 -0.1625 -0.3045  0.0947
    92RH    C53 8686   6.550   2.866   0.541 -0.1713  0.1064  0.1850
    82BTZ    N4 8687   6.736   2.489   0.302 -0.2626 -0.2213 -0.1227
    82BTZ    N5 8688   6.734   2.748   0.358 -0.0877 -0.2930  0.2250
    82BTZ    S6 8689   6.830   2.635   0.257 -0.1391 -0.2296  0.1043
    92RH    C54 8690   6.487   2.943   0.630 -0.1917  0.1318  0.1485
    92RH     S7 8691   6.373   2.886   0.763 -0.2297  0.1706  0.1326
    92RH    C55 8692   6.499   3.090   0.635 -0.1864  0.1324  0.1143
    92RH     O2 8693   6.568   3.159   0.558 -0.1628  0.1099  0.1152
    92RH     N6 8694   6.421   3.145   0.739 -0.2119  0.1623  0.0794
    92RH    C56 8695   6.348   3.060   0.818 -0.2369  0.1857  0.0815
    92RH    C57 8696   6.425   3.294   0.764  0.2981  0.3866 -0.5541
    92RH    C58 8697   6.347   3.385   0.669 -0.1419 -0.5722  0.7266
    92RH     S8 8698   6.247   3.100   0.948 -0.2697  0.2231  0.0447
    72IDQ   C59 8699   6.815   1.820   0.601  0.3966 -0.1779 -0.2694
    72IDQ   C60 8700   6.866   1.840   0.744 -0.2685  0.2502 -0.5996
    72IDQ   C61 8701   6.983   1.938   0.760 -0.4722  0.5674  0.1851
    72IDQ   C62 8702   7.052   1.975   0.890 -0.1908  0.2888  0.1890
    72IDQ   C63 8703   6.987   2.086   0.974 -0.0165 -0.6850  0.3790
    72IDQ   C64 8704   7.083   2.119   1.085  0.5853  0.6884  0.0842
    72IDQ   C65 8705   7.061   2.246   1.155 -0.2707 -0.5763 -0.3444
    72IDQ   C66 8706   6.862   2.006   0.225 -0.0946  0.3639  0.1640
    72IDQ   C67 8707   6.923   1.946   0.098 -0.1810  0.0516  0.1453
    72IDQ   C68 8708   7.016   1.821   0.120  0.0874 -0.0418 -0.1269
    72IDQ   C69 8709   7.079   1.737   0.004  0.4627 -0.3205 -0.1522
    72IDQ   C70 8710   7.002   1.721  -0.126 -0.6307 -0.2082 -0.2733
    72IDQ   C71 8711   6.900   1.611  -0.116  0.0923 -0.0681 -0.0240
    72IDQ   C72 8712   6.830   1.581  -0.247  0.3238  0.7483 -0.0080
    11RH     C1 8713   3.372   1.571   1.212 -0.1533 -0.0552  0.1620
    11RH     C2 8714   3.349   1.426   1.191  0.0089 -0.0679  0.0693
    11RH     N1 8715   3.467   1.594   1.314 -0.1807 -0.0141  0.1783
    11RH     S1 8716   3.454   1.330   1.307  0.1148 -0.0251  0.0097
    11RH     C3 8717   3.523   1.485   1.378 -0.0603  0.0076  0.1100
    11RH     C4 8718   3.502   1.735   1.345 -0.4314 -0.4217  0.3558
    11RH     S2 8719   3.638   1.485   1.501 -0.0624  0.0566  0.1120
    11RH     O1 8720   3.317   1.663   1.150 -0.2546 -0.0771  0.2195
    11RH     C5 8721   3.264   1.377   1.101  0.0650 -0.1054  0.0367
    21BTZ    C6 8722   3.213   1.242   1.069 -0.2599  0.0180  0.0419
    21BTZ    C7 8723   3.243   1.126   1.135 -0.2896 -0.0465 -0.0585
    21BTZ    C8 8724   3.141   1.235   0.945 -0.0990  0.1319 -0.0587
    21BTZ    C9 8725   3.204   0.997   1.082 -0.1634 -0.0028 -0.2614
    21BTZ   C10 8726   3.135   0.985   0.964 -0.0078  0.1053 -0.3637
    21BTZ   C11 8727   3.102   1.104   0.892  0.0293  0.1762 -0.2650
    21BTZ    N2 8728   3.106   1.341   0.872 -0.0552  0.2028  0.0232
    21BTZ    N3 8729   3.035   1.105   0.776  0.1762  0.2829 -0.3489
    21BTZ    S3 8730   3.020   1.277   0.729  0.1562  0.3321 -0.1638
    31IDT   C12 8731   3.100   0.851   0.918 -0.1299 -0.3372 -0.2430
    31IDT   C13 8732   3.030   0.810   0.808 -0.0358 -0.5936 -0.2091
    31IDT   C14 8733   3.012   0.668   0.803  0.1093 -0.6215  0.0198
    31IDT   C15 8734   3.067   0.601   0.909  0.1268 -0.3872  0.1614
    31IDT    S4 8735   3.148   0.712   1.025 -0.0408 -0.1103  0.0147
    4IDB    C16 8736   3.043   0.462   0.890  0.1969 -0.3110 -0.0371
    4IDB    C17 8737   2.969   0.442   0.770  0.2049 -0.1798 -0.0637
    51IDQ   C18 8738   2.941   0.577   0.706 -0.6120  0.3066  0.6868
    4IDB    C19 8739   2.948   0.315   0.719  0.0408 -0.1379 -0.1000
    51IDQ   C20 8740   3.005   0.566   0.555 -0.3827  0.0667  0.2116
    51IDQ   C21 8741   2.792   0.619   0.691  0.1250 -0.5582 -0.5483
    51IDQ   C22 8742   2.667   0.532   0.723 -0.5471 -1.0433 -0.6680
    51IDQ   C23 8743   3.127   0.653   0.511  0.5489  0.6974 -0.1966
    51IDQ   C24 8744   2.536   0.614   0.720 -0.2159  0.2792  0.0398
    51IDQ   C25 8745   2.419   0.521   0.752  0.2062  0.1215  0.0699
    51IDQ   C26 8746   2.300   0.603   0.779 -0.1625 -0.0218  0.0406
    51IDQ   C27 8747   2.173   0.520   0.785  0.8805 -0.5176  0.2196
    51IDQ   C28 8748   2.048   0.622   0.805 -0.8695  0.7465 -0.2163
    51IDQ   C29 8749   1.913   0.557   0.808 -0.5601  0.3151 -0.0561
    51IDQ   C30 8750   3.198   0.621   0.382  0.3000  0.3318 -0.3392
    51IDQ   C31 8751   3.285   0.493   0.371  0.6136  0.0594  0.3329
    51IDQ   C32 8752   3.379   0.477   0.488 -0.1585 -1.0697 -0.2151
    51IDQ   C33 8753   3.492   0.380   0.466  0.7237 -0.0306  0.2428
    51IDQ   C34 8754   3.574   0.369   0.595 -0.1471 -0.1531 -0.3393
    51IDQ   C35 8755   3.683   0.253   0.595  0.3869 -0.3605  0.0073
    4IDB    C36 8756   3.095   0.353   0.962  0.0237 -0.4015 -0.0468
    4IDB    C37 8757   3.072   0.224   0.909 -0.1425 -0.3569 -0.0841
    11RH    C38 8758   3.593   1.813   1.247 -0.0769  0.4654  0.3423
    4IDB    C39 8759   3.000   0.206   0.791 -0.1324 -0.2284 -0.1097
    62IDT   C40 8760   2.993   0.064   0.765  0.3751 -0.2074 -0.0843
    72IDQ   C41 8761   3.116   0.087   0.968  0.0262 -0.0701 -0.3471
    62IDT   C42 8762   3.059  -0.010   0.861  0.8076 -0.3072 -0.4498
    72IDQ   C43 8763   3.063   0.061   1.118 -0.1109  0.0096 -0.1489
    72IDQ   C44 8764   3.273   0.051   0.952  0.0889  0.0652  0.1089
    62IDT    S5 8765   2.926  -0.040   0.635 -0.3558 -0.0883  0.1886
    62IDT   C45 8766   2.993  -0.185   0.722 -0.0220 -0.1846 -0.2260
    62IDT   C46 8767   3.059  -0.150   0.837  0.5837 -0.2944 -0.5304
    82BTZ   C47 8768   2.983  -0.313   0.662 -0.0670 -0.0406  0.1009
    82BTZ   C48 8769   3.025  -0.326   0.532 -0.1516  0.0303  0.0663
    82BTZ   C49 8770   3.010  -0.449   0.459 -0.2200  0.0772  0.0011
    82BTZ   C50 8771   2.952  -0.560   0.515 -0.2038  0.0532 -0.0294
    82BTZ   C51 8772   2.922  -0.426   0.726 -0.0467 -0.0684  0.0710
    82BTZ   C52 8773   2.907  -0.552   0.651 -0.1162 -0.0207  0.0047
    92RH    C53 8774   2.932  -0.681   0.441 -0.2593  0.1965 -0.3293
    82BTZ    N4 8775   2.877  -0.427   0.851  0.0331 -0.1364  0.0997
    82BTZ    N5 8776   2.849  -0.653   0.717 -0.0924 -0.0503 -0.0199
    82BTZ    S6 8777   2.811  -0.591   0.880  0.0224 -0.1425  0.0420
    92RH    C54 8778   2.955  -0.721   0.316 -0.0046 -0.0041 -0.2191
    92RH     S7 8779   3.051  -0.632   0.188  0.2617 -0.2128 -0.1661
    92RH    C55 8780   2.904  -0.849   0.261  0.1034 -0.0904 -0.1202
    92RH     O2 8781   2.835  -0.932   0.322 -0.0260  0.0107 -0.1272
    92RH     N6 8782   2.943  -0.866   0.126  0.3779 -0.3064 -0.0139
    92RH    C56 8783   3.020  -0.768   0.067  0.5028 -0.4038 -0.0157
    92RH    C57 8784   2.894  -0.988   0.053 -0.4021 -0.0075 -0.1377
    92RH    C58 8785   2.754  -0.959  -0.016 -0.6932 -0.1888  0.0278
    92RH     S8 8786   3.079  -0.764  -0.091  0.8256 -0.6577  0.0979
    72IDQ   C59 8787   3.374   0.090   1.060 -0.3794  0.0136 -0.8148
    72IDQ   C60 8788   3.389   0.241   1.111 -0.4368 -0.4680 -0.0620
    72IDQ   C61 8789   3.479   0.328   1.023  0.0408 -0.3772 -0.0034
    72IDQ   C62 8790   3.478   0.469   1.082 -0.7183 -0.1674 -0.1422
    72IDQ   C63 8791   3.573   0.583   1.017 -0.4853 -0.4636 -0.3947
    72IDQ   C64 8792   3.549   0.606   0.871 -0.3865  0.8370  0.2506
    72IDQ   C65 8793   3.618   0.727   0.811 -0.1223 -0.5295 -0.3439
    72IDQ   C66 8794   2.927  -0.005   1.148 -0.4851 -0.0803 -0.3664
    72IDQ   C67 8795   2.803   0.064   1.109  0.1631  0.1900 -0.3573
    72IDQ   C68 8796   2.781   0.197   1.169  0.0482  0.2770 -0.4271
    72IDQ   C69 8797   2.657   0.269   1.119  0.4213 -0.6049  0.2369
    72IDQ   C70 8798   2.642   0.416   1.165  0.1839  0.3286 -0.6179
    72IDQ   C71 8799   2.738   0.520   1.095  0.6930 -0.5574 -0.0381
    72IDQ   C72 8800   2.700   0.670   1.097 -1.2698  0.0594 -0.4971
    11RH     C1 8801   4.461   5.252   1.807  0.2432  0.0385 -0.1140
    11RH     C2 8802   4.490   5.389   1.757  0.1853  0.0987  0.0162
    11RH     N1 8803   4.333   5.246   1.868  0.2514 -0.0706 -0.1083
    11RH     S1 8804   4.348   5.500   1.794  0.1451  0.0079  0.1378
    11RH     C3 8805   4.257   5.361   1.873  0.2071 -0.1054  0.0106
    11RH     C4 8806   4.290   5.121   1.936  0.1631  0.4508  0.7745
    11RH     S2 8807   4.104   5.380   1.940  0.2058 -0.2303  0.0436
    11RH     O1 8808   4.536   5.154   1.797  0.2807  0.0770 -0.2166
    11RH     C5 8809   4.604   5.422   1.695  0.1665  0.2036  0.0378
    21BTZ    C6 8810   4.640   5.529   1.603 -0.0613  0.1610  0.3146
    21BTZ    C7 8811   4.542   5.614   1.561 -0.0495  0.1640  0.2935
    21BTZ    C8 8812   4.775   5.553   1.561 -0.0699  0.0863  0.2449
    21BTZ    C9 8813   4.570   5.727   1.475 -0.0455  0.0947  0.2036
    21BTZ   C10 8814   4.698   5.754   1.432 -0.0536  0.0222  0.1349
    21BTZ   C11 8815   4.804   5.667   1.473 -0.0658  0.0159  0.1535
    21BTZ    N2 8816   4.879   5.477   1.595 -0.0817  0.0758  0.2570
    21BTZ    N3 8817   4.932   5.683   1.438 -0.0744 -0.0515  0.0922
    21BTZ    S3 8818   5.022   5.550   1.516 -0.0882 -0.0270  0.1500
    31IDT   C12 8819   4.720   5.874   1.344 -0.1793 -0.0551 -0.0270
    31IDT   C13 8820   4.794   5.984   1.377  0.1407 -0.3477  0.2397
    31IDT   C14 8821   4.783   6.090   1.282  0.5548 -0.1332  0.4225
    31IDT   C15 8822   4.699   6.062   1.176  0.5535  0.3235  0.2968
    31IDT    S4 8823   4.628   5.897   1.188  0.0227  0.5189 -0.0663
    4IDB    C16 8824   4.691   6.167   1.080 -0.4456  0.0818 -0.1623
    4IDB    C17 8825   4.762   6.279   1.134 -0.3157 -0.1047  0.0548
    51IDQ   C18 8826   4.839   6.234   1.259 -0.0588  0.3681  0.4157
    4IDB    C19 8827   4.765   6.401   1.068  0.0309 -0.0479  0.1684
    51IDQ   C20 8828   5.003   6.246   1.232  0.0760  0.3022  0.0488
    51IDQ   C21 8829   4.810   6.311   1.392 -0.4917 -0.0466  0.4748
    51IDQ   C22 8830   4.686   6.400   1.405 -0.2749 -0.5655  0.9235
    51IDQ   C23 8831   5.095   6.121   1.230  0.6457 -0.3239  0.1327
    51IDQ   C24 8832   4.696   6.460   1.540  0.2032 -0.7904 -0.1213
    51IDQ   C25 8833   4.555   6.507   1.584  0.3152  0.2773  0.3985
    51IDQ   C26 8834   4.540   6.575   1.717 -0.0295  0.1823 -0.1422
    51IDQ   C27 8835   4.393   6.577   1.758 -0.3743  0.2915 -0.0926
    51IDQ   C28 8836   4.377   6.670   1.875  0.3227 -0.3642  0.5546
    51IDQ   C29 8837   4.232   6.658   1.936 -0.8348 -0.0813  0.7032
    51IDQ   C30 8838   5.230   6.152   1.179 -0.1967 -0.7017  0.4688
    51IDQ   C31 8839   5.313   6.023   1.165  0.3186  0.0028 -0.1048
    51IDQ   C32 8840   5.426   6.036   1.067  0.3734 -0.8473  0.2990
    51IDQ   C33 8841   5.524   6.154   1.101  0.1995  0.4640 -0.1961
    51IDQ   C34 8842   5.641   6.180   1.009  0.2010 -0.2400 -1.0446
    51IDQ   C35 8843   5.699   6.313   1.056 -0.2537 -0.5360 -0.3753
    4IDB    C36 8844   4.622   6.178   0.958 -0.2279  0.3276 -0.2675
    4IDB    C37 8845   4.626   6.303   0.892  0.1256  0.3822 -0.1489
    11RH    C38 8846   4.223   5.019   1.854  0.0706  0.0827  0.1676
    4IDB    C39 8847   4.696   6.411   0.946  0.2486  0.1979  0.0631
    62IDT   C40 8848   4.665   6.527   0.868 -0.3024  0.4646  0.4114
    72IDQ   C41 8849   4.562   6.344   0.752 -0.0845  0.2910  0.4298
    62IDT   C42 8850   4.580   6.497   0.764 -0.2253  0.3519  0.3815
    72IDQ   C43 8851   4.414   6.295   0.728  0.1711 -0.1627  0.0616
    72IDQ   C44 8852   4.648   6.312   0.621 -0.1603 -0.2988  0.5750
    62IDT    S5 8853   4.699   6.703   0.878 -0.1904  0.4568  0.1552
    62IDT   C45 8854   4.592   6.728   0.733 -0.0379  0.2937  0.0142
    62IDT   C46 8855   4.539   6.610   0.687 -0.0757  0.2552  0.1569
    82BTZ   C47 8856   4.579   6.863   0.678  0.0729 -0.1943  0.0303
    82BTZ   C48 8857   4.664   6.960   0.724  0.2195 -0.3309  0.0484
    82BTZ   C49 8858   4.657   7.096   0.677  0.4300 -0.3122  0.0682
    82BTZ   C50 8859   4.565   7.135   0.583  0.4934 -0.1570  0.0698
    82BTZ   C51 8860   4.481   6.899   0.580  0.1316 -0.0291  0.0311
    82BTZ   C52 8861   4.474   7.037   0.531  0.3455 -0.0101  0.0513
    92RH    C53 8862   4.540   7.278   0.542  0.1813 -0.1461 -0.4476
    82BTZ    N4 8863   4.393   6.813   0.527  0.0027  0.1134  0.0146
    82BTZ    N5 8864   4.380   7.063   0.440  0.3885  0.1477  0.0509
    82BTZ    S6 8865   4.295   6.908   0.411  0.1524  0.2814  0.0242
    92RH    C54 8866   4.587   7.395   0.587  0.0207 -0.1366 -0.3014
    92RH     S7 8867   4.727   7.419   0.704 -0.2127 -0.1013 -0.0268
    92RH    C55 8868   4.531   7.526   0.548  0.0079 -0.1541 -0.3419
    92RH     O2 8869   4.436   7.544   0.470  0.1413 -0.1791 -0.5123
    92RH     N6 8870   4.600   7.632   0.611 -0.1781 -0.1389 -0.1600
    92RH    C56 8871   4.705   7.602   0.695 -0.3158 -0.1113  0.0212
    92RH    C57 8872   4.548   7.774   0.593  0.3692  0.0605 -0.2463
    92RH    C58 8873   4.598   7.856   0.470  0.1412  0.7299 -0.8285
    92RH     S8 8874   4.803   7.709   0.781 -0.5468 -0.0887  0.2575
    72IDQ   C59 8875   4.711   6.173   0.600 -0.0224 -0.3985 -0.2479
    72IDQ   C60 8876   4.769   6.158   0.460 -0.4352  0.0519 -0.0264
    72IDQ   C61 8877   4.807   6.014   0.438  0.2163  0.7578  0.3431
    72IDQ   C62 8878   4.848   5.989   0.293 -0.3336  0.4437 -0.1260
    72IDQ   C63 8879   4.895   5.850   0.262 -0.2247 -0.3209  0.0572
    72IDQ   C64 8880   4.927   5.842   0.111  0.2461 -0.2819  0.4128
    72IDQ   C65 8881   4.991   5.712   0.066 -0.4808  0.1764 -0.2099
    72IDQ   C66 8882   4.302   6.366   0.806  0.0941  0.4925  0.8962
    72IDQ   C67 8883   4.307   6.356   0.962 -0.1568 -0.5951  0.4487
    72IDQ   C68 8884   4.208   6.437   1.034  0.5934 -0.2259  0.1735
    72IDQ   C69 8885   4.192   6.587   1.015 -0.1942 -0.3606 -0.6149
    72IDQ   C70 8886   4.323   6.661   1.063  0.3602  0.1343 -0.1499
    72IDQ   C71 8887   4.351   6.651   1.208  0.5150  0.4224 -0.4386
    72IDQ   C72 8888   4.486   6.703   1.248  0.4368  0.1982  0.4372
    11RH     C1 8889   0.200   4.363   4.381  0.1120  0.0085  0.0874
    11RH     C2 8890   0.113   4.380   4.261  0.1249 -0.0703  0.0666
    11RH     N1 8891   0.212   4.484   4.453  0.0069  0.0264  0.0752
    11RH     S1 8892   0.053   4.553   4.252 -0.0020 -0.1157  0.0328
    11RH     C3 8893   0.145   4.595   4.407 -0.0660 -0.0284  0.0474
    11RH     C4 8894   0.306   4.483   4.564 -0.4808 -0.2454 -0.0933
    11RH     S2 8895   0.143   4.750   4.474 -0.1954 -0.0217  0.0281
    11RH     O1 8896   0.256   4.258   4.415  0.1831  0.0542  0.1122
    11RH     C5 8897   0.086   4.281   4.175  0.2168 -0.1016  0.0729
    21BTZ    C6 8898   0.006   4.276   4.053  0.0047  0.3449 -0.0349
    21BTZ    C7 8899  -0.054   4.381   3.989 -0.0674  0.2780 -0.0781
    21BTZ    C8 8900  -0.021   4.143   4.007  0.0422  0.3034  0.0621
    21BTZ    C9 8901  -0.142   4.361   3.877 -0.1059  0.1674 -0.0285
    21BTZ   C10 8902  -0.171   4.236   3.829 -0.0722  0.1240  0.0644
    21BTZ   C11 8903  -0.110   4.122   3.893  0.0030  0.1910  0.1128
    21BTZ    N2 8904   0.032   4.032   4.061  0.1123  0.3607  0.1121
    21BTZ    N3 8905  -0.130   3.996   3.856  0.0416  0.1580  0.2030
    21BTZ    S3 8906  -0.033   3.895   3.967  0.1316  0.2717  0.2280
    31IDT   C12 8907  -0.274   4.230   3.728  0.2268  0.1757  0.0937
    31IDT   C13 8908  -0.296   4.321   3.628  0.1251  0.1469  0.0892
    31IDT   C14 8909  -0.396   4.279   3.535  0.0176  0.1281  0.2134
    31IDT   C15 8910  -0.451   4.156   3.564  0.0369  0.1425  0.3131
    31IDT    S4 8911  -0.380   4.083   3.712  0.1937  0.1812  0.2570
    4IDB    C16 8912  -0.560   4.125   3.471 -0.4790 -0.0922  0.5497
    4IDB    C17 8913  -0.580   4.235   3.382 -0.0960 -0.2807  0.2270
    51IDQ   C18 8914  -0.459   4.335   3.406 -0.0779  0.4132  1.0864
    4IDB    C19 8915  -0.690   4.240   3.298  0.0507 -0.2608  0.0336
    51IDQ   C20 8916  -0.376   4.317   3.264  0.2888 -0.2089  0.4845
    51IDQ   C21 8917  -0.484   4.490   3.425 -0.8026 -0.0142  0.0927
    51IDQ   C22 8918  -0.626   4.549   3.437  0.3289 -0.3792  0.2154
    51IDQ   C23 8919  -0.249   4.242   3.254 -0.5303  0.3341  0.4719
    51IDQ   C24 8920  -0.694   4.529   3.568  0.8479 -0.1153  0.4483
    51IDQ   C25 8921  -0.842   4.567   3.553  0.3318 -0.7973  0.6025
    51IDQ   C26 8922  -0.928   4.548   3.671 -0.2266  0.0453 -0.7265
    51IDQ   C27 8923  -1.051   4.639   3.663  0.5202  0.2729  0.1071
    51IDQ   C28 8924  -1.139   4.663   3.781 -0.3316 -0.1639  0.0881
    51IDQ   C29 8925  -1.251   4.766   3.745 -1.1366 -0.0643  0.2998
    51IDQ   C30 8926  -0.128   4.304   3.320 -0.2779  0.0783 -0.2228
    51IDQ   C31 8927   0.002   4.219   3.305 -0.2796  1.0104 -0.0249
    51IDQ   C32 8928   0.125   4.298   3.345  0.4903 -0.3265 -0.1518
    51IDQ   C33 8929   0.260   4.234   3.312  0.5672 -0.1552  0.3578
    51IDQ   C34 8930   0.372   4.328   3.341 -0.1131 -0.6012  0.0870
    51IDQ   C35 8931   0.518   4.289   3.316 -0.0223  0.3351 -0.4568
    4IDB    C36 8932  -0.651   4.019   3.477 -0.7187  0.1187  0.6814
    4IDB    C37 8933  -0.764   4.026   3.390 -0.5637  0.1359  0.4801
    11RH    C38 8934   0.261   4.488   4.706  0.2072  0.2018  0.6396
    4IDB    C39 8935  -0.782   4.133   3.303 -0.1889 -0.0499  0.1652
    62IDT   C40 8936  -0.900   4.118   3.226  0.3879  0.0280 -0.2845
    72IDQ   C41 8937  -0.878   3.929   3.371  0.2530  0.0788 -0.0640
    62IDT   C42 8938  -0.960   3.998   3.260  0.7594 -0.1988 -0.4164
    72IDQ   C43 8939  -0.976   3.919   3.505 -0.7734  0.8195  0.0520
    72IDQ   C44 8940  -0.809   3.793   3.332  0.7141  0.4075 -0.1862
    62IDT    S5 8941  -0.993   4.205   3.099 -0.0806  0.0585  0.0749
    62IDT   C45 8942  -1.114   4.069   3.100  0.2672 -0.2522  0.0255
    62IDT   C46 8943  -1.081   3.970   3.189  0.6918 -0.3576 -0.2413
    82BTZ   C47 8944  -1.226   4.065   3.000 -0.0740 -0.1399  0.1791
    82BTZ   C48 8945  -1.273   4.185   2.953 -0.0188 -0.0927  0.2432
    82BTZ   C49 8946  -1.382   4.192   2.859  0.0393  0.0045  0.1822
    82BTZ   C50 8947  -1.444   4.079   2.812  0.0422  0.0544  0.0573
    82BTZ   C51 8948  -1.287   3.944   2.954 -0.0734 -0.0907  0.0480
    82BTZ   C52 8949  -1.398   3.951   2.858 -0.0143  0.0082 -0.0139
    92RH    C53 8950  -1.558   4.081   2.715  0.0637 -0.0414 -0.2922
    82BTZ    N4 8951  -1.250   3.822   2.992 -0.1242 -0.1290 -0.0243
    82BTZ    N5 8952  -1.450   3.834   2.820 -0.0175  0.0495 -0.1361
    82BTZ    S6 8953  -1.357   3.708   2.906 -0.0979 -0.0383 -0.1780
    92RH    C54 8954  -1.620   4.184   2.657  0.0192 -0.0080 -0.1864
    92RH     S7 8955  -1.577   4.362   2.674 -0.1555  0.0051  0.1202
    92RH    C55 8956  -1.736   4.169   2.566  0.1082  0.0244 -0.3067
    92RH     O2 8957  -1.789   4.062   2.534  0.2321  0.0246 -0.5152
    92RH     N6 8958  -1.781   4.294   2.519  0.0347  0.0560 -0.1534
    92RH    C56 8959  -1.715   4.408   2.561 -0.1025  0.0529  0.0749
    92RH    C57 8960  -1.882   4.299   2.415 -0.1402 -0.2464  0.1197
    92RH    C58 8961  -2.021   4.319   2.469 -0.3578 -0.2019  0.1992
    92RH     S8 8962  -1.749   4.568   2.520 -0.2126  0.0862  0.2910
    72IDQ   C59 8963  -0.763   3.774   3.181 -1.2442  0.1608 -0.2128
    72IDQ   C60 8964  -0.714   3.633   3.146  0.3863  0.3292 -0.0106
    72IDQ   C61 8965  -0.827   3.537   3.115 -0.3739  0.0643 -0.2808
    72IDQ   C62 8966  -0.772   3.395   3.086 -0.5277  0.0830  0.5777
    72IDQ   C63 8967  -0.865   3.277   3.059  0.1138 -0.5192  0.0570
    72IDQ   C64 8968  -0.958   3.298   2.942  0.8424 -0.2617 -0.1412
    72IDQ   C65 8969  -1.061   3.184   2.933 -0.6740 -0.3981  0.1957
    72IDQ   C66 8970  -1.038   4.041   3.571 -0.3533  0.2953 -0.0322
    72IDQ   C67 8971  -1.105   3.996   3.700  0.0284  0.2389  0.3227
    72IDQ   C68 8972  -1.166   4.105   3.781 -1.0148 -0.7336 -0.3632
    72IDQ   C69 8973  -1.217   4.084   3.919  0.1333 -0.0695  0.3172
    72IDQ   C70 8974  -1.124   4.026   4.031  0.8810  0.4395 -0.4412
    72IDQ   C71 8975  -1.171   4.026   4.176  0.5347  0.6723 -0.1042
    72IDQ   C72 8976  -1.313   3.975   4.205  0.7043 -0.9261 -0.3210
    11RH     C1 8977   2.690   0.883   5.905 -0.2265 -0.2753  0.1212
    11RH     C2 8978   2.825   0.857   5.849 -0.2556 -0.1499 -0.0123
    11RH     N1 8979   2.688   1.003   5.980 -0.2987 -0.1973 -0.0042
    11RH     S1 8980   2.940   0.990   5.900 -0.3762  0.0625 -0.2939
    11RH     C3 8981   2.805   1.075   5.992 -0.3821 -0.0246 -0.2218
    11RH     C4 8982   2.564   1.060   6.027  0.2200 -0.1258 -0.2018
    11RH     S2 8983   2.829   1.220   6.075 -0.4784  0.0983 -0.4059
    11RH     O1 8984   2.590   0.812   5.889 -0.1490 -0.4300  0.3184
    11RH     C5 8985   2.854   0.750   5.774 -0.2004 -0.1908  0.0673
    21BTZ    C6 8986   2.975   0.711   5.693  0.0238 -0.0036 -0.2041
    21BTZ    C7 8987   3.096   0.776   5.695  0.0011  0.0374 -0.1696
    21BTZ    C8 8988   2.957   0.602   5.601  0.0979 -0.0313 -0.1860
    21BTZ    C9 8989   3.204   0.737   5.608  0.0498  0.0531 -0.1162
    21BTZ   C10 8990   3.192   0.634   5.519  0.1211  0.0278 -0.0971
    21BTZ   C11 8991   3.067   0.563   5.512  0.1474 -0.0154 -0.1316
    21BTZ    N2 8992   2.845   0.532   5.589  0.1264 -0.0719 -0.2156
    21BTZ    N3 8993   3.043   0.461   5.429  0.2156 -0.0431 -0.1177
    21BTZ    S3 8994   2.875   0.410   5.462  0.2195 -0.0918 -0.1745
    31IDT   C12 8995   3.309   0.590   5.449 -0.2831  0.0055  0.1337
    31IDT   C13 8996   3.357   0.634   5.329 -0.3760  0.3315  0.2134
    31IDT   C14 8997   3.480   0.571   5.291 -0.2798  0.6057  0.0596
    31IDT   C15 8998   3.526   0.479   5.383 -0.1135  0.4909 -0.1379
    31IDT    S4 8999   3.417   0.465   5.525 -0.0652  0.0222 -0.1445
    4IDB    C16 9000   3.652   0.416   5.340 -0.1415 -0.0619 -0.3031
    4IDB    C17 9001   3.689   0.469   5.213  0.4373  0.5893  0.1271
    51IDQ   C18 9002   3.576   0.566   5.166 -0.5071 -0.9167 -0.2521
    4IDB    C19 9003   3.801   0.422   5.145  0.4581  0.5819  0.1666
    51IDQ   C20 9004   3.652   0.702   5.142  0.5831  0.4223  0.3982
    51IDQ   C21 9005   3.489   0.524   5.046  0.2363 -0.6928 -0.0758
    51IDQ   C22 9006   3.494   0.394   4.968 -0.3109 -0.0782 -0.5348
    51IDQ   C23 9007   3.647   0.825   5.243  0.8105 -0.2307  0.6820
    51IDQ   C24 9008   3.444   0.268   5.056 -0.1814 -0.1429 -0.3889
    51IDQ   C25 9009   3.467   0.137   4.985 -0.4293 -0.1260  0.0979
    51IDQ   C26 9010   3.615   0.096   4.986  0.6386 -0.3811 -0.1147
    51IDQ   C27 9011   3.645  -0.044   4.927  1.3648  0.0267  0.0947
    51IDQ   C28 9012   3.783  -0.094   4.925 -0.4660  0.3085 -0.5206
    51IDQ   C29 9013   3.875  -0.009   4.841  0.0066  0.3037  0.1286
    51IDQ   C30 9014   3.734   0.941   5.191 -0.0769  0.2769  0.0789
    51IDQ   C31 9015   3.678   1.019   5.073  0.0533 -0.3204 -0.7038
    51IDQ   C32 9016   3.779   1.105   5.001  0.2019 -0.2662  0.2005
    51IDQ   C33 9017   3.708   1.222   4.925  0.2098  0.6537  0.4333
    51IDQ   C34 9018   3.802   1.310   4.836 -0.6423 -0.0730 -0.2378
    51IDQ   C35 9019   3.744   1.441   4.809 -0.0628  0.0651 -0.1799
    4IDB    C36 9020   3.727   0.314   5.400 -0.7064 -0.7283 -0.6986
    4IDB    C37 9021   3.841   0.266   5.330 -0.6760 -0.7253 -0.6514
    11RH    C38 9022   2.518   0.996   6.162 -0.0493  0.4024 -0.2188
    4IDB    C39 9023   3.876   0.320   5.206 -0.1067 -0.0845 -0.2287
    62IDT   C40 9024   3.992   0.255   5.153  0.0514  0.1283 -0.0447
    72IDQ   C41 9025   3.943   0.157   5.371 -0.5086 -0.4758  0.4322
    62IDT   C42 9026   4.043   0.169   5.248  0.0740  0.3505  0.1436
    72IDQ   C43 9027   3.863   0.020   5.382  0.0842  0.2560  0.1226
    72IDQ   C44 9028   3.992   0.189   5.517 -0.1412  0.4649  0.6658
    62IDT    S5 9029   4.100   0.267   5.010  0.0617 -0.1358 -0.0603
    62IDT   C45 9030   4.213   0.150   5.091  0.0980  0.0787  0.2015
    62IDT   C46 9031   4.168   0.110   5.213  0.1004  0.3228  0.2832
    82BTZ   C47 9032   4.349   0.130   5.035  0.0065 -0.0178  0.0306
    82BTZ   C48 9033   4.420   0.242   5.002 -0.0449  0.0052 -0.0033
    82BTZ   C49 9034   4.549   0.233   4.938 -0.0384  0.0449  0.0044
    82BTZ   C50 9035   4.606   0.113   4.907  0.0195  0.0617  0.0458
    82BTZ   C51 9036   4.404   0.002   5.005  0.0681 -0.0015  0.0747
    82BTZ   C52 9037   4.535  -0.007   4.940  0.0747  0.0389  0.0826
    92RH    C53 9038   4.745   0.106   4.868 -0.0967 -0.2239  0.1151
    82BTZ    N4 9039   4.344  -0.115   5.032  0.1216 -0.0210  0.1105
    82BTZ    N5 9040   4.580  -0.131   4.915  0.1338  0.0520  0.1246
    82BTZ    S6 9041   4.455  -0.243   4.975  0.1841  0.0124  0.1566
    92RH    C54 9042   4.841   0.198   4.855 -0.1440 -0.1778  0.0887
    92RH     S7 9043   4.829   0.376   4.897 -0.2560 -0.1592 -0.0224
    92RH    C55 9044   4.977   0.167   4.804 -0.1117 -0.1334  0.1478
    92RH     O2 9045   5.017   0.056   4.767 -0.0381 -0.1336  0.2271
    92RH     N6 9046   5.058   0.283   4.801 -0.1751 -0.0897  0.1026
    92RH    C56 9047   5.004   0.402   4.844 -0.2544 -0.0936  0.0145
    92RH    C57 9048   5.199   0.279   4.752 -0.1577 -0.2839  0.5870
    92RH    C58 9049   5.303   0.240   4.857  0.1956  0.0659  0.3345
    92RH     S8 9050   5.079   0.553   4.851 -0.3405 -0.0476 -0.0539
    72IDQ   C59 9051   4.144   0.176   5.546 -0.3100 -0.0247 -0.9221
    72IDQ   C60 9052   4.208   0.032   5.552  0.1131 -0.1032 -0.1341
    72IDQ   C61 9053   4.359   0.028   5.584  0.5586  0.8285 -0.1424
    72IDQ   C62 9054   4.431  -0.104   5.547  0.3712 -0.1118 -0.4474
    72IDQ   C63 9055   4.580  -0.067   5.562  0.5855  1.1953  0.5634
    72IDQ   C64 9056   4.681  -0.183   5.547 -0.2685  0.4105 -0.2712
    72IDQ   C65 9057   4.679  -0.269   5.417  0.1144 -0.1244 -0.1133
    72IDQ   C66 9058   3.869  -0.071   5.254  0.1058 -0.8965 -0.1185
    72IDQ   C67 9059   3.838  -0.220   5.267 -0.4275 -0.1918  0.6432
    72IDQ   C68 9060   3.942  -0.306   5.336  0.2111  0.2399  0.8581
    72IDQ   C69 9061   4.079  -0.285   5.258  0.3256 -0.3323 -0.0067
    72IDQ   C70 9062   4.198  -0.336   5.327 -0.4381  0.3943  0.3484
    72IDQ   C71 9063   4.223  -0.482   5.335  0.0464  0.4182 -0.1508
    72IDQ   C72 9064   4.357  -0.510   5.410  0.6371 -0.4026 -0.4301
    11RH     C1 9065   2.289   4.079   5.209 -0.0696  0.1651 -0.0875
    11RH     C2 9066   2.338   4.143   5.334  0.1938  0.0314 -0.1224
    11RH     N1 9067   2.192   3.980   5.237 -0.0531  0.1752  0.0073
    11RH     S1 9068   2.254   4.068   5.479  0.4459 -0.0725 -0.0283
    11RH     C3 9069   2.158   3.957   5.368  0.1913  0.0658  0.0527
    11RH     C4 9070   2.141   3.896   5.127 -0.0457 -0.2199  0.0821
    11RH     S2 9071   2.046   3.845   5.428  0.2643  0.0519  0.1646
    11RH     O1 9072   2.326   4.107   5.094 -0.2810  0.2583 -0.1341
    11RH     C5 9073   2.430   4.239   5.336  0.2331 -0.0043 -0.2099
    21BTZ    C6 9074   2.494   4.322   5.440 -0.1417 -0.0464  0.0489
    21BTZ    C7 9075   2.468   4.311   5.574 -0.1501 -0.0031  0.0510
    21BTZ    C8 9076   2.589   4.421   5.396 -0.1218 -0.0761  0.0252
    21BTZ    C9 9077   2.533   4.396   5.671 -0.1395  0.0129  0.0298
    21BTZ   C10 9078   2.624   4.491   5.634 -0.1206 -0.0142  0.0067
    21BTZ   C11 9079   2.655   4.506   5.495 -0.1110 -0.0598  0.0037
    21BTZ    N2 9080   2.622   4.441   5.269 -0.1119 -0.1190  0.0211
    21BTZ    N3 9081   2.742   4.595   5.446 -0.0925 -0.0895 -0.0176
    21BTZ    S3 9082   2.743   4.573   5.269 -0.0880 -0.1407 -0.0112
    31IDT   C12 9083   2.675   4.575   5.746 -0.0362 -0.3068  0.2160
    31IDT   C13 9084   2.783   4.658   5.749 -0.2399 -0.0376  0.1661
    31IDT   C14 9085   2.809   4.711   5.880 -0.3166  0.0365  0.1518
    31IDT   C15 9086   2.721   4.668   5.977 -0.1723 -0.1754  0.1904
    31IDT    S4 9087   2.597   4.556   5.910  0.0742 -0.4880  0.2489
    4IDB    C16 9088   2.758   4.720   6.101 -0.1368 -0.0303  0.3774
    4IDB    C17 9089   2.877   4.796   6.085  0.0658 -0.3815  0.1963
    51IDQ   C18 9090   2.927   4.797   5.936  0.1031  0.1267  0.2642
    4IDB    C19 9091   2.938   4.857   6.194  0.1327 -0.1470  0.0299
    51IDQ   C20 9092   2.935   4.943   5.873  0.1165  0.0640  0.3249
    51IDQ   C21 9093   3.069   4.729   5.912 -0.0175  0.3075  0.1685
    51IDQ   C22 9094   3.149   4.662   6.028  0.2103 -0.6018  1.0744
    51IDQ   C23 9095   2.831   5.009   5.788 -0.0215  0.1033 -0.4368
    51IDQ   C24 9096   3.279   4.592   5.991 -0.0303  0.1341 -0.6357
    51IDQ   C25 9097   3.276   4.451   5.924  0.3421 -0.6512 -0.6270
    51IDQ   C26 9098   3.284   4.335   6.017 -0.0369  0.2404  0.3042
    51IDQ   C27 9099   3.423   4.315   6.077 -0.3505  0.2788  0.7962
    51IDQ   C28 9100   3.417   4.218   6.194  0.2727  0.3212 -0.1826
    51IDQ   C29 9101   3.553   4.197   6.252  0.2179 -0.3472 -0.5933
    51IDQ   C30 9102   2.858   5.157   5.773  0.2986  0.6955 -0.0253
    51IDQ   C31 9103   2.767   5.236   5.684  0.1557 -0.0848 -0.6635
    51IDQ   C32 9104   2.615   5.237   5.709 -0.3762  0.1157  0.0512
    51IDQ   C33 9105   2.568   5.274   5.851  0.1415 -0.1050  0.0770
    51IDQ   C34 9106   2.428   5.315   5.836  0.2902  0.6854  0.7284
    51IDQ   C35 9107   2.349   5.314   5.961 -0.1002 -1.0232  0.6204
    4IDB    C36 9108   2.698   4.704   6.227 -0.2744  0.5611  0.3932
    4IDB    C37 9109   2.762   4.767   6.337 -0.2033  0.7932  0.2216
    11RH    C38 9110   2.027   3.961   5.043  0.3379  0.2360  0.4179
    4IDB    C39 9111   2.879   4.841   6.320 -0.0048  0.4444  0.0457
    62IDT   C40 9112   2.918   4.900   6.441 -0.2841  0.0763  0.0546
    72IDQ   C41 9113   2.731   4.758   6.482 -0.3486 -0.6252 -0.6014
    62IDT   C42 9114   2.836   4.859   6.545 -0.1410 -0.0963  0.1000
    72IDQ   C43 9115   2.731   4.609   6.548  0.5059 -0.4051  0.6534
    72IDQ   C44 9116   2.598   4.832   6.528  0.8639  0.2517 -0.3378
    62IDT    S5 9117   3.044   5.015   6.498 -0.3021  0.1018  0.0431
    62IDT   C45 9118   2.976   5.001   6.666 -0.1057 -0.1337  0.1031
    62IDT   C46 9119   2.869   4.916   6.672 -0.0399 -0.2153  0.1275
    82BTZ   C47 9120   3.041   5.084   6.767  0.2601 -0.3943 -0.0732
    82BTZ   C48 9121   3.126   5.181   6.722  0.3167 -0.4736 -0.1364
    82BTZ   C49 9122   3.195   5.271   6.812  0.2685 -0.3709 -0.2009
    82BTZ   C50 9123   3.179   5.263   6.947  0.1640 -0.1890 -0.2022
    82BTZ   C51 9124   3.021   5.072   6.909  0.1504 -0.2043 -0.0717
    82BTZ   C52 9125   3.091   5.163   7.000  0.1014 -0.0998 -0.1373
    92RH    C53 9126   3.264   5.335   7.039  0.1254 -0.1080 -0.1152
    82BTZ    N4 9127   2.940   4.982   6.965  0.0871 -0.1121 -0.0135
    82BTZ    N5 9128   3.067   5.145   7.131 -0.0013  0.0764 -0.1317
    82BTZ    S6 9129   2.951   5.009   7.142 -0.0404  0.1172 -0.0406
    92RH    C54 9130   3.373   5.410   7.018  0.1611 -0.1545 -0.0949
    92RH     S7 9131   3.455   5.443   6.857  0.2249 -0.2167 -0.0755
    92RH    C55 9132   3.447   5.479   7.127  0.1540 -0.1628 -0.0848
    92RH     O2 9133   3.417   5.477   7.247  0.1150 -0.1284 -0.0936
    92RH     N6 9134   3.558   5.551   7.076  0.1978 -0.2153 -0.0632
    92RH    C56 9135   3.582   5.547   6.941  0.2391 -0.2506 -0.0549
    92RH    C57 9136   3.645   5.627   7.167 -0.5196 -0.5707 -0.4796
    92RH    C58 9137   3.771   5.565   7.221  0.3860  0.9004  0.2915
    92RH     S8 9138   3.706   5.622   6.856  0.2955 -0.3151 -0.0300
    72IDQ   C59 9139   2.464   4.776   6.488 -0.3608  0.3515 -0.5475
    72IDQ   C60 9140   2.336   4.798   6.569  0.9000  1.2050 -0.3168
    72IDQ   C61 9141   2.301   4.939   6.622 -0.0558  0.0384 -0.0060
    72IDQ   C62 9142   2.163   4.966   6.687  0.2850  0.2925  0.3989
    72IDQ   C63 9143   2.041   4.937   6.602  0.4911  0.0293  0.2106
    72IDQ   C64 9144   1.912   4.970   6.674  0.0410 -0.0023 -0.3308
    72IDQ   C65 9145   1.811   4.998   6.565 -0.0165 -0.1476 -0.0275
    72IDQ   C66 9146   2.855   4.518   6.541  1.0682  0.1026 -0.1481
    72IDQ   C67 9147   2.827   4.380   6.482 -0.2322  0.7217 -0.2791
    72IDQ   C68 9148   2.798   4.367   6.329  0.4603 -0.4415 -0.4982
    72IDQ   C69 9149   2.917   4.373   6.233  0.3697  0.1029 -0.1675
    72IDQ   C70 9150   2.888   4.346   6.089  0.4346 -0.4965  0.0063
    72IDQ   C71 9151   2.868   4.204   6.045 -0.3028 -0.3625  0.5826
    72IDQ   C72 9152   2.995   4.117   6.047  0.0203 -0.0166  0.0874
    11RH     C1 9153   6.633   3.835   2.820  0.0815  0.2010 -0.1547
    11RH     C2 9154   6.655   3.838   2.967  0.1168  0.2096 -0.1602
    11RH     N1 9155   6.498   3.862   2.788  0.0725  0.1939 -0.1235
    11RH     S1 9156   6.498   3.877   3.052  0.1360  0.2077 -0.1241
    11RH     C3 9157   6.410   3.887   2.890  0.0963  0.1956 -0.1034
    11RH     C4 9158   6.455   3.863   2.643 -0.1378 -0.0007  0.0882
    11RH     S2 9159   6.245   3.922   2.879  0.0923  0.1883 -0.0653
    11RH     O1 9160   6.720   3.812   2.734  0.0617  0.1999 -0.1745
    11RH     C5 9161   6.774   3.816   3.024  0.1316  0.2174 -0.1878
    21BTZ    C6 9162   6.816   3.809   3.160  0.0967 -0.2378 -0.0083
    21BTZ    C7 9163   6.741   3.841   3.270  0.0721 -0.1867 -0.0403
    21BTZ    C8 9164   6.946   3.750   3.180  0.1341 -0.1363  0.0494
    21BTZ    C9 9165   6.789   3.818   3.404  0.0830 -0.0344 -0.0173
    21BTZ   C10 9166   6.911   3.762   3.428  0.1184  0.0667  0.0376
    21BTZ   C11 9167   6.994   3.726   3.317  0.1452  0.0187  0.0728
    21BTZ    N2 9168   7.028   3.714   3.082  0.1606 -0.1727  0.0848
    21BTZ    N3 9169   7.115   3.671   3.328  0.1804  0.1067  0.1270
    21BTZ    S3 9170   7.174   3.647   3.161  0.2015 -0.0072  0.1508
    31IDT   C12 9171   6.933   3.717   3.564  0.3132 -0.4471 -0.1157
    31IDT   C13 9172   7.035   3.636   3.608  0.0935 -0.5878  0.1425
    31IDT   C14 9173   7.026   3.605   3.747 -0.2549 -0.5073  0.1391
    31IDT   C15 9174   6.917   3.662   3.810 -0.3030 -0.3052 -0.1211
    31IDT    S4 9175   6.817   3.760   3.698  0.0928 -0.2001 -0.3844
    4IDB    C16 9176   6.909   3.634   3.950 -0.1450  0.3041 -0.2393
    4IDB    C17 9177   7.020   3.548   3.976 -0.2026  0.2435 -0.1942
    51IDQ   C18 9178   7.103   3.522   3.847 -0.2928 -0.3138  0.0130
    4IDB    C19 9179   7.051   3.508   4.106 -0.3615  0.1131 -0.1953
    51IDQ   C20 9180   7.252   3.564   3.888 -0.0334  0.0956  0.4628
    51IDQ   C21 9181   7.119   3.380   3.782  0.3305  0.2602 -0.3399
    51IDQ   C22 9182   7.051   3.254   3.832  0.3556 -0.3964 -0.3373
    51IDQ   C23 9183   7.311   3.702   3.847 -0.4456 -0.0102 -0.0316
    51IDQ   C24 9184   7.069   3.131   3.754 -0.2311  0.4653 -0.3830
    51IDQ   C25 9185   7.026   3.005   3.824 -0.5144  0.2507 -0.0410
    51IDQ   C26 9186   7.057   2.873   3.746 -0.2136 -0.2868  0.3788
    51IDQ   C27 9187   6.998   2.740   3.794 -0.1675  0.3240  0.2911
    51IDQ   C28 9188   6.851   2.746   3.817 -0.2123 -0.1843 -0.4077
    51IDQ   C29 9189   6.748   2.743   3.705 -0.3503  0.0238 -0.2024
    51IDQ   C30 9190   7.350   3.701   3.697 -0.1409  0.0736  0.3748
    51IDQ   C31 9191   7.398   3.843   3.657  0.8706 -0.4798  0.1040
    51IDQ   C32 9192   7.438   3.860   3.517 -0.4669 -0.0642  1.0164
    51IDQ   C33 9193   7.478   4.005   3.501 -0.8006 -0.1277 -0.2636
    51IDQ   C34 9194   7.515   4.038   3.357  0.3102 -0.0157  0.1947
    51IDQ   C35 9195   7.585   4.173   3.332 -0.6699  0.3188  1.1006
    4IDB    C36 9196   6.829   3.681   4.055 -0.2469  0.2342 -0.2861
    4IDB    C37 9197   6.862   3.640   4.187 -0.4090  0.1011 -0.2863
    11RH    C38 9198   6.463   3.998   2.577  0.4434  0.3377  0.4448
    4IDB    C39 9199   6.970   3.555   4.210 -0.4634  0.0433 -0.2420
    62IDT   C40 9200   6.991   3.535   4.349 -0.8147 -0.6908  0.0910
    72IDQ   C41 9201   6.798   3.683   4.321 -0.1652  0.6015  0.1351
    62IDT   C42 9202   6.887   3.596   4.415 -1.0657 -1.3099  0.2817
    72IDQ   C43 9203   6.650   3.633   4.319  0.3443 -0.4613 -0.4058
    72IDQ   C44 9204   6.801   3.842   4.322  0.3778  0.0486  0.2106
    62IDT    S5 9205   7.106   3.458   4.463  0.1172  0.3709 -0.0927
    62IDT   C45 9206   7.002   3.515   4.601  0.1184 -0.1014  0.1079
    62IDT   C46 9207   6.893   3.585   4.558 -0.5386 -0.9776  0.2915
    82BTZ   C47 9208   7.043   3.491   4.739 -0.0373  0.2054  0.0310
    82BTZ   C48 9209   7.177   3.483   4.766 -0.0234 -0.0427 -0.1048
    82BTZ   C49 9210   7.226   3.445   4.897  0.0402 -0.2668 -0.1923
    82BTZ   C50 9211   7.140   3.415   4.999  0.0897 -0.2424 -0.1440
    82BTZ   C51 9212   6.950   3.461   4.843  0.0130  0.2411  0.0867
    82BTZ   C52 9213   6.999   3.422   4.976  0.0775  0.0134 -0.0025
    92RH    C53 9214   7.189   3.382   5.134  0.1386  0.0668 -0.0433
    82BTZ    N4 9215   6.817   3.465   4.828  0.0053  0.4727  0.2172
    82BTZ    N5 9216   6.906   3.396   5.068  0.1218  0.0619  0.0566
    82BTZ    S6 9217   6.748   3.420   4.987  0.0820  0.4083  0.2324
    92RH    C54 9218   7.313   3.382   5.182  0.1078  0.0898  0.0359
    92RH     S7 9219   7.462   3.456   5.105  0.1703 -0.0106  0.0596
    92RH    C55 9220   7.350   3.318   5.311  0.0152  0.2043  0.1197
    92RH     O2 9221   7.272   3.259   5.388 -0.0438  0.2908  0.1260
    92RH     N6 9222   7.488   3.332   5.338  0.0010  0.2042  0.1932
    92RH    C56 9223   7.566   3.399   5.246  0.0709  0.1035  0.1789
    92RH    C57 9224   7.547   3.287   5.468  0.4301 -0.2008 -0.1232
    92RH    C58 9225   7.581   3.141   5.472  0.0483 -0.7551  0.8745
    92RH     S8 9226   7.732   3.429   5.254  0.0716  0.0805  0.2545
    72IDQ   C59 9227   6.901   3.915   4.402 -0.7499  0.6574 -0.3954
    72IDQ   C60 9228   7.050   3.921   4.349  0.6155  0.2310 -0.6508
    72IDQ   C61 9229   7.059   3.994   4.219 -0.2976 -0.3598  0.3677
    72IDQ   C62 9230   7.194   3.976   4.152 -0.3142 -0.3168 -0.6834
    72IDQ   C63 9231   7.216   4.056   4.030  0.4182  0.5616  0.2308
    72IDQ   C64 9232   7.122   4.040   3.901  0.2981  0.0309  0.3671
    72IDQ   C65 9233   7.129   4.150   3.782 -0.6656  0.0460  0.3425
    72IDQ   C66 9234   6.545   3.684   4.422  0.1727 -0.4307 -0.0110
    72IDQ   C67 9235   6.407   3.638   4.382 -0.3191  0.4949  0.1156
    72IDQ   C68 9236   6.282   3.682   4.465 -0.1349  0.7506  0.3592
    72IDQ   C69 9237   6.149   3.630   4.404 -0.5066 -0.1291  0.2396
    72IDQ   C70 9238   6.133   3.476   4.411 -0.1476  0.2208 -0.2593
    72IDQ   C71 9239   6.008   3.426   4.351  0.3302  0.1514 -0.3116
    72IDQ   C72 9240   5.997   3.275   4.365  0.3544  0.5944 -0.3558
    11RH     C1 9241   3.174   0.031   1.496 -0.2297  0.0620  0.1816
    11RH     C2 9242   3.091   0.154   1.486 -0.2740  0.0425  0.3104
    11RH     N1 9243   3.098  -0.078   1.542 -0.1927 -0.0164  0.0567
    11RH     S1 9244   2.919   0.117   1.538 -0.2640 -0.0777  0.2588
    11RH     C3 9245   2.965  -0.059   1.570 -0.2018 -0.0963  0.0696
    11RH     C4 9246   3.166  -0.213   1.552  0.4284 -0.0338 -0.6123
    11RH     S2 9247   2.854  -0.172   1.626 -0.1640 -0.1987 -0.0615
    11RH     O1 9248   3.295   0.023   1.467 -0.2249  0.1370  0.1805
    11RH     C5 9249   3.139   0.272   1.445 -0.3144  0.1052  0.4425
    21BTZ    C6 9250   3.073   0.404   1.423  0.1973 -0.0056  0.0809
    21BTZ    C7 9251   2.938   0.422   1.443  0.2232  0.0493  0.2053
    21BTZ    C8 9252   3.154   0.518   1.394  0.2124 -0.0427 -0.0230
    21BTZ    C9 9253   2.878   0.553   1.436  0.2650  0.0704  0.2337
    21BTZ   C10 9254   2.951   0.665   1.408  0.2808  0.0366  0.1376
    21BTZ   C11 9255   3.092   0.651   1.386  0.2549 -0.0212  0.0058
    21BTZ    N2 9256   3.286   0.513   1.372  0.1903 -0.0969 -0.1481
    21BTZ    N3 9257   3.174   0.753   1.359  0.2668 -0.0583 -0.0961
    21BTZ    S3 9258   3.338   0.682   1.341  0.2233 -0.1235 -0.2361
    31IDT   C12 9259   2.879   0.794   1.414 -0.2673 -0.1338 -0.1485
    31IDT   C13 9260   2.916   0.911   1.353  0.0294 -0.2231 -0.1414
    31IDT   C14 9261   2.821   1.015   1.371  0.4156  0.0967  0.0861
    31IDT   C15 9262   2.710   0.979   1.445  0.4158  0.4311  0.2534
    31IDT    S4 9263   2.719   0.808   1.499 -0.0775  0.3664  0.1348
    4IDB    C16 9264   2.627   1.086   1.472 -0.3133 -0.2144  0.0035
    4IDB    C17 9265   2.681   1.200   1.405 -0.1527 -0.4974 -0.3503
    51IDQ   C18 9266   2.805   1.162   1.326  0.2536  0.9527  0.4989
    4IDB    C19 9267   2.627   1.326   1.423  0.2700 -0.3002 -0.4359
    51IDQ   C20 9268   2.765   1.182   1.168  0.0059  0.5979  0.0124
    51IDQ   C21 9269   2.941   1.236   1.353 -0.0633 -0.5006 -0.5689
    51IDQ   C22 9270   2.963   1.326   1.477 -0.2445 -0.0170  0.4092
    51IDQ   C23 9271   2.728   1.063   1.084  0.4668  0.1320  0.4260
    51IDQ   C24 9272   3.098   1.389   1.470  0.0091  0.1776 -0.3901
    51IDQ   C25 9273   3.115   1.491   1.585  0.7886 -0.0503  0.3203
    51IDQ   C26 9274   3.248   1.563   1.603 -0.2294 -0.0881  0.1800
    51IDQ   C27 9275   3.261   1.662   1.724  0.0334  0.4354 -0.4677
    51IDQ   C28 9276   3.377   1.756   1.725 -0.3845  0.3504  0.1595
    51IDQ   C29 9277   3.387   1.829   1.859 -0.3826  0.3270  0.3169
    51IDQ   C30 9278   2.706   1.102   0.939 -0.3292 -0.3634  0.2838
    51IDQ   C31 9279   2.636   0.992   0.852 -0.3941  0.3827 -0.0574
    51IDQ   C32 9280   2.625   1.015   0.699  0.4214  0.3668 -0.2773
    51IDQ   C33 9281   2.753   1.046   0.631  0.3264  0.1584 -0.1935
    51IDQ   C34 9282   2.744   1.029   0.479  0.4222  0.3486 -0.2749
    51IDQ   C35 9283   2.886   1.037   0.422 -0.2164 -0.5529  0.3842
    4IDB    C36 9284   2.517   1.099   1.559 -0.0502  0.2706  0.2753
    4IDB    C37 9285   2.463   1.229   1.576  0.3808  0.4659  0.1828
    11RH    C38 9286   3.181  -0.290   1.428  0.3138 -0.2728  0.0581
    4IDB    C39 9287   2.517   1.339   1.510  0.5331  0.1848 -0.1642
    62IDT   C40 9288   2.445   1.458   1.549  0.0502  0.0596  0.1749
    72IDQ   C41 9289   2.349   1.274   1.665  0.9756  0.4019  0.3474
    62IDT   C42 9290   2.344   1.425   1.637  0.1070 -0.0608  0.1951
    72IDQ   C43 9291   2.369   1.243   1.823 -0.4171 -0.7812  1.1230
    72IDQ   C44 9292   2.205   1.214   1.617 -0.1336  0.0436 -0.7094
    62IDT    S5 9293   2.443   1.633   1.508 -0.1826  0.0522  0.1534
    62IDT   C45 9294   2.298   1.653   1.616 -0.1911 -0.1217  0.1739
    62IDT   C46 9295   2.260   1.535   1.675 -0.0293 -0.1634  0.1946
    82BTZ   C47 9296   2.252   1.789   1.643 -0.1618  0.1958 -0.2467
    82BTZ   C48 9297   2.318   1.889   1.577 -0.1606  0.2869 -0.1085
    82BTZ   C49 9298   2.302   2.028   1.613 -0.1270  0.2355  0.1120
    82BTZ   C50 9299   2.218   2.067   1.714 -0.0944  0.0930  0.1939
    82BTZ   C51 9300   2.163   1.825   1.750 -0.1284  0.0456 -0.1686
    82BTZ   C52 9301   2.146   1.966   1.786 -0.0943 -0.0066  0.0555
    92RH    C53 9302   2.216   2.204   1.765  0.0814 -0.1551 -0.5718
    82BTZ    N4 9303   2.092   1.737   1.822 -0.1261 -0.0536 -0.2877
    82BTZ    N5 9304   2.061   1.991   1.887 -0.0644 -0.1478  0.1165
    82BTZ    S6 9305   1.999   1.832   1.941 -0.0791 -0.2215 -0.1147
    92RH    C54 9306   2.292   2.311   1.742  0.0401 -0.0994 -0.4500
    92RH     S7 9307   2.424   2.328   1.616  0.1921  0.0166 -0.2772
    92RH    C55 9308   2.280   2.438   1.818 -0.1419 -0.1244 -0.4366
    92RH     O2 9309   2.200   2.459   1.911 -0.2749 -0.1984 -0.5343
    92RH     N6 9310   2.373   2.535   1.773 -0.1473 -0.0528 -0.2963
    92RH    C56 9311   2.457   2.501   1.670  0.0080  0.0265 -0.1956
    92RH    C57 9312   2.384   2.667   1.842 -0.1165 -0.1135 -0.6716
    92RH    C58 9313   2.472   2.676   1.968  0.0741  0.0888 -0.2569
    92RH     S8 9314   2.576   2.597   1.597  0.0375  0.1213 -0.0223
    72IDQ   C59 9315   2.162   1.070   1.646  0.0573  0.1718 -0.4692
    72IDQ   C60 9316   2.161   0.984   1.506 -0.3753  0.6473 -0.2572
    72IDQ   C61 9317   2.126   0.837   1.525  0.1035 -0.0968  0.7928
    72IDQ   C62 9318   2.044   0.800   1.402  0.2654  0.1975  0.1240
    72IDQ   C63 9319   2.103   0.700   1.312 -0.0421  0.9137  0.7554
    72IDQ   C64 9320   2.000   0.618   1.251  0.2545  0.2210  1.1059
    72IDQ   C65 9321   2.057   0.487   1.190  0.1223 -0.6342 -0.6251
    72IDQ   C66 9322   2.299   1.311   1.940 -0.0917  0.7221  0.2911
    72IDQ   C67 9323   2.346   1.266   2.074 -0.5206 -0.0808 -0.3864
    72IDQ   C68 9324   2.271   1.311   2.205 -1.1955 -0.3295  0.3183
    72IDQ   C69 9325   2.273   1.464   2.228 -0.3438 -0.1025 -0.3072
    72IDQ   C70 9326   2.407   1.541   2.241  0.1613 -0.2117 -0.6845
    72IDQ   C71 9327   2.519   1.505   2.337 -0.6651  0.7006 -0.3571
    72IDQ   C72 9328   2.482   1.467   2.479  0.4527 -0.2578 -0.1803
    11RH     C1 9329   5.762   3.332   3.687  0.1109  0.1363 -0.2764
    11RH     C2 9330   5.663   3.439   3.657  0.1862  0.2587 -0.0872
    11RH     N1 9331   5.838   3.363   3.801  0.1230 -0.1268 -0.2127
    11RH     S1 9332   5.679   3.573   3.782  0.2681  0.0200  0.1621
    11RH     C3 9333   5.814   3.481   3.867  0.1990 -0.2300  0.0043
    11RH     C4 9334   5.944   3.270   3.848  0.5006 -0.1062 -0.1300
    11RH     S2 9335   5.891   3.541   4.005  0.2292 -0.5355  0.1218
    11RH     O1 9336   5.777   3.228   3.622  0.0448  0.2460 -0.4681
    11RH     C5 9337   5.578   3.435   3.554  0.1909  0.5067 -0.1030
    21BTZ    C6 9338   5.472   3.516   3.497  0.2444 -0.4013 -0.2621
    21BTZ    C7 9339   5.416   3.628   3.551  0.3700 -0.3954 -0.1433
    21BTZ    C8 9340   5.427   3.472   3.368  0.1135 -0.2804 -0.2581
    21BTZ    C9 9341   5.314   3.703   3.482  0.3735 -0.2714 -0.0154
    21BTZ   C10 9342   5.268   3.665   3.359  0.2512 -0.1535 -0.0066
    21BTZ   C11 9343   5.323   3.547   3.298  0.1169 -0.1544 -0.1281
    21BTZ    N2 9344   5.474   3.364   3.305 -0.0157 -0.2733 -0.3669
    21BTZ    N3 9345   5.286   3.500   3.179 -0.0094 -0.0461 -0.1325
    21BTZ    S3 9346   5.385   3.354   3.150 -0.1409 -0.1018 -0.3066
    31IDT   C12 9347   5.169   3.754   3.297 -0.6092 -0.1940 -0.0027
    31IDT   C13 9348   5.055   3.720   3.229 -0.5889  0.0930 -0.1839
    31IDT   C14 9349   4.990   3.833   3.170 -0.2618  0.2698 -0.2123
    31IDT   C15 9350   5.054   3.953   3.192 -0.0311  0.1190 -0.0532
    31IDT    S4 9351   5.203   3.932   3.290 -0.2116 -0.2620  0.1466
    4IDB    C16 9352   4.978   4.060   3.132 -0.0112 -0.0150 -0.0359
    4IDB    C17 9353   4.862   4.009   3.067 -0.0441  0.1967 -0.1443
    51IDQ   C18 9354   4.860   3.858   3.097  0.5825 -0.1247  0.5089
    4IDB    C19 9355   4.776   4.093   2.998  0.0898  0.3760 -0.0927
    51IDQ   C20 9356   4.726   3.827   3.183 -0.8602  0.5568  0.4778
    51IDQ   C21 9357   4.863   3.754   2.986  0.6607  0.2018 -0.1473
    51IDQ   C22 9358   4.864   3.795   2.837  0.4298 -0.2411  0.7038
    51IDQ   C23 9359   4.732   3.773   3.325  0.6787  0.1131 -0.1827
    51IDQ   C24 9360   4.898   3.677   2.742  0.0363 -1.1070 -1.0388
    51IDQ   C25 9361   4.881   3.719   2.594 -0.0030  0.3881  0.0221
    51IDQ   C26 9362   4.763   3.651   2.521  0.4975  0.7363 -0.0091
    51IDQ   C27 9363   4.756   3.497   2.528  0.8635 -0.0659  0.7456
    51IDQ   C28 9364   4.860   3.428   2.443 -0.3692 -0.2287  0.5964
    51IDQ   C29 9365   4.851   3.281   2.469 -0.6540  0.5667  0.0875
    51IDQ   C30 9366   4.600   3.763   3.403  0.6002  0.5490 -0.7293
    51IDQ   C31 9367   4.492   3.669   3.344 -0.3167 -0.2065 -0.1424
    51IDQ   C32 9368   4.367   3.652   3.418 -0.2401  0.4833  0.1283
    51IDQ   C33 9369   4.274   3.564   3.337 -0.2268 -0.0039  0.1775
    51IDQ   C34 9370   4.153   3.515   3.424  0.7039 -0.4482  0.0213
    51IDQ   C35 9371   4.067   3.411   3.351 -0.0313 -0.1347 -0.3772
    4IDB    C36 9372   5.008   4.197   3.130  0.1569 -0.0486  0.1257
    4IDB    C37 9373   4.919   4.282   3.060  0.2922  0.1366  0.1763
    11RH    C38 9374   5.894   3.171   3.955  0.0126  0.0227 -0.2356
    4IDB    C39 9375   4.806   4.230   2.996  0.2577  0.3425  0.0689
    62IDT   C40 9376   4.737   4.340   2.931  0.0366  0.0637 -0.3674
    72IDQ   C41 9377   4.912   4.432   3.059 -0.2993 -0.1993 -0.8372
    62IDT   C42 9378   4.812   4.455   2.950  0.2801 -0.0491 -0.6247
    72IDQ   C43 9379   5.045   4.494   3.003  0.5252  0.5790 -0.1325
    72IDQ   C44 9380   4.876   4.492   3.206 -0.3260 -0.4904 -0.1501
    62IDT    S5 9381   4.589   4.372   2.834 -0.1109  0.2373 -0.0862
    62IDT   C45 9382   4.638   4.547   2.825  0.1785  0.1437 -0.3439
    62IDT   C46 9383   4.756   4.572   2.890  0.3606 -0.0041 -0.6118
    82BTZ   C47 9384   4.559   4.649   2.760 -0.0877 -0.1448  0.1720
    82BTZ   C48 9385   4.466   4.605   2.670 -0.1086 -0.1700  0.2065
    82BTZ   C49 9386   4.385   4.696   2.593 -0.0632 -0.1915  0.1332
    82BTZ   C50 9387   4.398   4.832   2.606  0.0032 -0.1876  0.0254
    82BTZ   C51 9388   4.577   4.791   2.777 -0.0186 -0.1396  0.0600
    82BTZ   C52 9389   4.495   4.883   2.698  0.0278 -0.1613 -0.0146
    92RH    C53 9390   4.321   4.927   2.529 -0.2452  0.1450 -0.1394
    82BTZ    N4 9391   4.665   4.846   2.861  0.0080 -0.1156  0.0166
    82BTZ    N5 9392   4.517   5.014   2.720  0.0914 -0.1550 -0.1178
    82BTZ    S6 9393   4.646   5.023   2.843  0.0950 -0.1201 -0.1241
    92RH    C54 9394   4.231   4.911   2.431 -0.1376  0.0178 -0.2190
    92RH     S7 9395   4.164   4.753   2.367  0.0277 -0.0714 -0.1741
    92RH    C55 9396   4.171   5.025   2.358 -0.1369 -0.0736 -0.3607
    92RH     O2 9397   4.195   5.145   2.377 -0.2335 -0.0436 -0.4214
    92RH     N6 9398   4.079   4.980   2.260 -0.0102 -0.2016 -0.4208
    92RH    C56 9399   4.059   4.845   2.246  0.0901 -0.2246 -0.3446
    92RH    C57 9400   4.015   5.085   2.178  0.0845 -0.0641 -0.0196
    92RH    C58 9401   3.900   5.154   2.259  0.2042  0.7650 -0.2989
    92RH     S8 9402   3.957   4.766   2.138  0.2486 -0.3673 -0.3919
    72IDQ   C59 9403   4.725   4.480   3.253 -0.7247 -0.2870 -0.2981
    72IDQ   C60 9404   4.706   4.530   3.397 -0.1577 -0.4893  0.0629
    72IDQ   C61 9405   4.563   4.508   3.445 -0.7190 -0.3826 -0.0975
    72IDQ   C62 9406   4.552   4.542   3.591 -0.5541  0.3068  0.3637
    72IDQ   C63 9407   4.407   4.537   3.631  0.1840  0.4215  0.0016
    72IDQ   C64 9408   4.374   4.558   3.783  0.0821  0.1000  0.9171
    72IDQ   C65 9409   4.229   4.567   3.821  0.4220 -0.4569 -0.0063
    72IDQ   C66 9410   5.172   4.504   3.090  0.1597 -0.3621  0.2383
    72IDQ   C67 9411   5.293   4.556   3.014  0.5851 -0.6595  0.5452
    72IDQ   C68 9412   5.418   4.549   3.091  0.6074  0.5086 -0.6318
    72IDQ   C69 9413   5.424   4.642   3.218 -0.5471 -0.6415 -0.1440
    72IDQ   C70 9414   5.455   4.786   3.172  0.1010  0.2969  0.5024
    72IDQ   C71 9415   5.556   4.845   3.268 -0.3037  0.2746 -0.6191
    72IDQ   C72 9416   5.569   4.999   3.265 -0.9124  0.5233  0.6914
    11RH     C1 9417   0.578   0.524   4.473  0.2568  0.1115 -0.0255
    11RH     C2 9418   0.701   0.541   4.554  0.3166  0.1402 -0.1215
    11RH     N1 9419   0.572   0.396   4.414  0.2768  0.1352 -0.0796
    11RH     S1 9420   0.801   0.387   4.548  0.3953  0.1965 -0.2768
    11RH     C3 9421   0.675   0.308   4.439  0.3454  0.1793 -0.2074
    11RH     C4 9422   0.472   0.373   4.309 -0.1301  0.2642  0.1496
    11RH     S2 9423   0.692   0.150   4.382  0.3825  0.2147 -0.2947
    11RH     O1 9424   0.490   0.610   4.456  0.1962  0.0716  0.0885
    11RH     C5 9425   0.731   0.653   4.620  0.3117  0.1259 -0.0948
    21BTZ    C6 9426   0.846   0.705   4.692 -0.0893  0.0432 -0.0403
    21BTZ    C7 9427   0.962   0.634   4.712 -0.0490  0.0905 -0.1048
    21BTZ    C8 9428   0.842   0.841   4.735 -0.1134  0.0484 -0.0595
    21BTZ    C9 9429   1.078   0.693   4.774 -0.0305  0.1449 -0.1910
    21BTZ   C10 9430   1.078   0.823   4.816 -0.0523  0.1519 -0.2125
    21BTZ   C11 9431   0.959   0.902   4.798 -0.0946  0.1037 -0.1471
    21BTZ    N2 9432   0.735   0.921   4.721 -0.1529  0.0054 -0.0023
    21BTZ    N3 9433   0.947   1.030   4.835 -0.1190  0.1051 -0.1603
    21BTZ    S3 9434   0.781   1.079   4.790 -0.1681  0.0344 -0.0590
    31IDT   C12 9435   1.203   0.874   4.877 -0.5015 -0.7460  0.1207
    31IDT   C13 9436   1.229   1.003   4.915 -1.0277 -0.5490 -0.1558
    31IDT   C14 9437   1.359   1.018   4.972 -1.0240  0.1398 -0.3334
    31IDT   C15 9438   1.433   0.901   4.977 -0.4963  0.4717 -0.1940
    31IDT    S4 9439   1.342   0.762   4.910  0.0418 -0.0673  0.1767
    4IDB    C16 9440   1.566   0.929   5.020 -0.5070  0.3550  0.0159
    4IDB    C17 9441   1.580   1.068   5.049 -0.2242  0.3724 -0.1878
    51IDQ   C18 9442   1.446   1.138   5.024  0.7522  0.0851  0.9656
    4IDB    C19 9443   1.702   1.121   5.087 -0.1361  0.1616 -0.1715
    51IDQ   C20 9444   1.391   1.217   5.149  0.3056 -0.0016  0.2490
    51IDQ   C21 9445   1.454   1.249   4.911  0.4366  0.5350 -0.3229
    51IDQ   C22 9446   1.583   1.255   4.823  0.1285 -0.4877 -0.4606
    51IDQ   C23 9447   1.266   1.167   5.226 -0.3303 -0.5973 -0.3319
    51IDQ   C24 9448   1.563   1.354   4.706 -0.7494 -0.3324  0.4081
    51IDQ   C25 9449   1.687   1.369   4.621  0.1324 -0.6009  0.2597
    51IDQ   C26 9450   1.671   1.487   4.533 -0.7175 -0.6366  0.0775
    51IDQ   C27 9451   1.798   1.526   4.451  0.0054  0.3869  0.2574
    51IDQ   C28 9452   1.820   1.658   4.373  0.0974  0.6185 -0.7013
    51IDQ   C29 9453   1.830   1.777   4.467 -0.0964  0.0285 -0.6332
    51IDQ   C30 9454   1.285   1.032   5.300  0.3781  0.3549  0.3728
    51IDQ   C31 9455   1.192   1.002   5.417  0.4176  0.4928 -0.1762
    51IDQ   C32 9456   1.046   0.991   5.387  0.6203  0.2931 -0.2407
    51IDQ   C33 9457   1.010   0.881   5.283 -0.5391  0.2151  0.0780
    51IDQ   C34 9458   0.865   0.882   5.232 -0.0953 -0.1056 -0.3693
    51IDQ   C35 9459   0.812   0.749   5.189  0.0281 -0.4730  0.0684
    4IDB    C36 9460   1.676   0.842   5.029 -0.7044  0.1250  0.2384
    4IDB    C37 9461   1.801   0.898   5.068 -0.6106 -0.0885  0.2515
    11RH    C38 9462   0.339   0.300   4.358 -0.9353  0.0764 -0.4288
    4IDB    C39 9463   1.812   1.035   5.096 -0.3335 -0.0684  0.0510
    62IDT   C40 9464   1.951   1.066   5.132 -0.1208  0.5398 -0.2449
    72IDQ   C41 9465   1.939   0.831   5.078  0.2686 -0.6955 -0.2829
    62IDT   C42 9466   2.027   0.953   5.116 -0.4607  0.3537 -0.5742
    72IDQ   C43 9467   1.978   0.790   4.937 -0.4780 -0.4039  0.0301
    72IDQ   C44 9468   1.909   0.716   5.185  0.7365 -0.2970  0.0364
    62IDT    S5 9469   2.049   1.205   5.190  0.2490  0.0148  0.4190
    62IDT   C45 9470   2.195   1.097   5.189 -0.0920 -0.4514  0.2060
    62IDT   C46 9471   2.165   0.970   5.148 -0.4449 -0.2069 -0.3197
    82BTZ   C47 9472   2.323   1.143   5.237 -0.0101 -0.1898 -0.1698
    82BTZ   C48 9473   2.324   1.255   5.316 -0.1344 -0.1998 -0.1539
    82BTZ   C49 9474   2.446   1.324   5.349 -0.2019 -0.1158 -0.0770
    82BTZ   C50 9475   2.568   1.280   5.303 -0.1449 -0.0219 -0.0162
    82BTZ   C51 9476   2.448   1.094   5.186  0.0538 -0.0930 -0.1081
    82BTZ   C52 9477   2.572   1.164   5.220 -0.0148 -0.0076 -0.0298
    92RH    C53 9478   2.695   1.342   5.345  0.0380 -0.0740 -0.2035
    82BTZ    N4 9479   2.460   0.986   5.108  0.1746 -0.0739 -0.1165
    82BTZ    N5 9480   2.684   1.112   5.169  0.0509  0.0802  0.0246
    82BTZ    S6 9481   2.634   0.969   5.074  0.2064  0.0568 -0.0227
    92RH    C54 9482   2.723   1.449   5.420 -0.0048 -0.0817 -0.1769
    92RH     S7 9483   2.603   1.572   5.484 -0.0353 -0.0590 -0.2767
    92RH    C55 9484   2.860   1.485   5.464 -0.0347 -0.1107 -0.0575
    92RH     O2 9485   2.963   1.422   5.437 -0.0242 -0.1310  0.0298
    92RH     N6 9486   2.860   1.603   5.542 -0.0780 -0.1127 -0.0547
    92RH    C56 9487   2.739   1.665   5.566 -0.0862 -0.0889 -0.1565
    92RH    C57 9488   2.986   1.640   5.611 -0.0710 -0.1809 -0.1585
    92RH    C58 9489   3.002   1.562   5.744 -0.9648 -0.2682  0.1756
    92RH     S8 9490   2.712   1.806   5.655 -0.1345 -0.0857 -0.1762
    72IDQ   C59 9491   1.930   0.754   5.328  0.5464  0.6280 -0.2324
    72IDQ   C60 9492   1.880   0.646   5.431 -0.6891  0.3013  0.4298
    72IDQ   C61 9493   1.896   0.683   5.579  0.4495 -0.4630 -0.7112
    72IDQ   C62 9494   2.033   0.651   5.643 -0.0296 -0.1426 -0.1320
    72IDQ   C63 9495   2.056   0.696   5.784  0.5118 -0.2555 -0.8229
    72IDQ   C64 9496   2.197   0.663   5.836 -0.6886 -0.3050  0.3678
    72IDQ   C65 9497   2.242   0.700   5.977 -0.7369  0.1791 -0.2428
    72IDQ   C66 9498   2.070   0.673   4.913  0.1364  0.1863  0.8730
    72IDQ   C67 9499   2.214   0.673   4.971 -0.2421 -0.0433 -0.1596
    72IDQ   C68 9500   2.297   0.552   4.923  0.1744  0.3618  0.1475
    72IDQ   C69 9501   2.335   0.544   4.774  0.2594  0.1672  1.0081
    72IDQ   C70 9502   2.400   0.659   4.710 -0.3444 -0.4555 -0.0268
    72IDQ   C71 9503   2.472   0.633   4.575  0.3336  0.4378 -0.5979
    72IDQ   C72 9504   2.499   0.758   4.496  0.4455 -0.1793  0.0553
    11RH     C1 9505   5.529   1.273   0.851  0.1342  0.0927 -0.0852
    11RH     C2 9506   5.513   1.380   0.750  0.1249  0.0462 -0.1331
    11RH     N1 9507   5.468   1.152   0.810  0.0752  0.0917  0.0046
    11RH     S1 9508   5.417   1.316   0.607  0.0387  0.0041 -0.0570
    11RH     C3 9509   5.404   1.150   0.688  0.0193  0.0500  0.0345
    11RH     C4 9510   5.489   1.031   0.899  0.0568  0.4750 -0.3070
    11RH     S2 9511   5.323   1.021   0.615 -0.0567  0.0395  0.1376
    11RH     O1 9512   5.589   1.284   0.959  0.1869  0.1285 -0.1180
    11RH     C5 9513   5.561   1.504   0.765  0.1730  0.0376 -0.2190
    21BTZ    C6 9514   5.566   1.626   0.682 -0.0293 -0.1237  0.1173
    21BTZ    C7 9515   5.515   1.629   0.554 -0.0631 -0.1683  0.1298
    21BTZ    C8 9516   5.631   1.743   0.732 -0.0778 -0.0824  0.0843
    21BTZ    C9 9517   5.526   1.746   0.471 -0.1459 -0.1745  0.1106
    21BTZ   C10 9518   5.587   1.861   0.515 -0.1947 -0.1362  0.0790
    21BTZ   C11 9519   5.642   1.863   0.648 -0.1619 -0.0887  0.0648
    21BTZ    N2 9520   5.685   1.753   0.854 -0.0520 -0.0372  0.0694
    21BTZ    N3 9521   5.703   1.968   0.702 -0.2036 -0.0486  0.0342
    21BTZ    S3 9522   5.752   1.918   0.867 -0.1354  0.0000  0.0290
    31IDT   C12 9523   5.597   1.972   0.418 -0.0938  0.1060  0.2031
    31IDT   C13 9524   5.693   2.069   0.409  0.0529 -0.0274  0.2998
    31IDT   C14 9525   5.677   2.152   0.293  0.2356  0.0479  0.3280
    31IDT   C15 9526   5.570   2.118   0.213  0.2297  0.2385  0.2533
    31IDT    S4 9527   5.479   1.977   0.279 -0.0101  0.3385  0.1402
    4IDB    C16 9528   5.564   2.197   0.090 -0.3939 -0.2406 -0.2797
    4IDB    C17 9529   5.674   2.289   0.094 -0.2345 -0.4385 -0.0098
    51IDQ   C18 9530   5.740   2.276   0.236  0.0609 -0.1027 -0.0149
    4IDB    C19 9531   5.707   2.365  -0.017 -0.1449 -0.1220  0.2290
    51IDQ   C20 9532   5.896   2.261   0.204  0.3877  0.0512  0.5162
    51IDQ   C21 9533   5.709   2.393   0.341 -0.0875 -0.5392 -0.2880
    51IDQ   C22 9534   5.608   2.506   0.315 -0.2458 -0.3030  0.2609
    51IDQ   C23 9535   5.967   2.122   0.213 -0.3924  0.8957 -0.0431
    51IDQ   C24 9536   5.466   2.468   0.270  0.5240 -0.7365 -0.2962
    51IDQ   C25 9537   5.380   2.594   0.279  0.6893 -0.0816  0.1394
    51IDQ   C26 9538   5.255   2.581   0.196 -0.1455  0.8868  0.6284
    51IDQ   C27 9539   5.164   2.703   0.211  0.2765  0.1875  0.0621
    51IDQ   C28 9540   5.038   2.688   0.121  0.0130  0.9003 -0.6330
    51IDQ   C29 9541   4.943   2.806   0.116  0.1410  0.8771 -0.1316
    51IDQ   C30 9542   6.117   2.121   0.179 -0.5604 -0.3819 -0.3172
    51IDQ   C31 9543   6.161   2.131   0.035  0.8928 -0.3024  0.4051
    51IDQ   C32 9544   6.313   2.103   0.012  0.0906  0.2851 -0.0966
    51IDQ   C33 9545   6.361   1.964   0.012  0.6288  0.1284  0.2404
    51IDQ   C34 9546   6.503   1.948  -0.016 -0.0867 -0.2433  0.2938
    51IDQ   C35 9547   6.557   1.802  -0.030  0.4325 -0.4154 -0.6279
    4IDB    C36 9548   5.488   2.180  -0.026 -0.4649  0.2781 -0.3123
    4IDB    C37 9549   5.524   2.259  -0.139 -0.3713  0.5956 -0.0660
    11RH    C38 9550   5.400   1.006   1.014  0.2306  0.3270 -0.5752
    4IDB    C39 9551   5.630   2.348  -0.134 -0.2159  0.3966  0.1963
    62IDT   C40 9552   5.638   2.421  -0.257 -0.4406 -0.1847 -0.3268
    72IDQ   C41 9553   5.470   2.254  -0.280 -0.4316  0.2235  0.6757
    62IDT   C42 9554   5.534   2.385  -0.341 -0.5547  0.4138 -0.4536
    72IDQ   C43 9555   5.310   2.267  -0.297  0.0845  0.3465 -0.1981
    72IDQ   C44 9556   5.530   2.145  -0.373  0.0394 -0.6183  0.1308
    62IDT    S5 9557   5.739   2.550  -0.329 -0.0588 -0.2303  0.1245
    62IDT   C45 9558   5.631   2.549  -0.475 -0.0745  0.6030  0.1177
    62IDT   C46 9559   5.530   2.457  -0.464 -0.3479  0.8600 -0.2025
    82BTZ   C47 9560   5.667   2.633  -0.590  0.0818 -0.1470 -0.0701
    82BTZ   C48 9561   5.776   2.716  -0.581  0.1508 -0.2154 -0.2615
    82BTZ   C49 9562   5.807   2.811  -0.684  0.0370 -0.2449 -0.3235
    82BTZ   C50 9563   5.730   2.824  -0.797 -0.1457 -0.2060 -0.1943
    82BTZ   C51 9564   5.583   2.642  -0.706 -0.1087 -0.1041  0.0709
    82BTZ   C52 9565   5.615   2.740  -0.811 -0.2246 -0.1341  0.0079
    92RH    C53 9566   5.753   2.925  -0.898 -0.0544 -0.0511 -0.2291
    82BTZ    N4 9567   5.475   2.567  -0.726 -0.1918 -0.0369  0.2613
    82BTZ    N5 9568   5.532   2.742  -0.916 -0.4007 -0.0910  0.1476
    82BTZ    S6 9569   5.407   2.618  -0.884 -0.4264 -0.0085  0.3702
    92RH    C54 9570   5.849   3.017  -0.910 -0.0128 -0.0880 -0.1832
    92RH     S7 9571   5.985   3.050  -0.792 -0.1503 -0.0341 -0.0382
    92RH    C55 9572   5.858   3.111  -1.025  0.1572 -0.1814 -0.2457
    92RH     O2 9573   5.780   3.114  -1.122  0.2788 -0.2356 -0.3456
    92RH     N6 9574   5.968   3.198  -1.012  0.1658 -0.2026 -0.1767
    92RH    C56 9575   6.049   3.186  -0.900  0.0236 -0.1377 -0.0668
    92RH    C57 9576   6.005   3.289  -1.116  0.0066 -0.5441  0.1232
    92RH    C58 9577   5.916   3.416  -1.131  0.3072  1.1540 -0.0930
    92RH     S8 9578   6.185   3.276  -0.861  0.0006 -0.1457  0.0319
    72IDQ   C59 9579   5.491   1.999  -0.358  0.6211  0.1694  0.4567
    72IDQ   C60 9580   5.590   1.900  -0.414 -0.0463  0.2916 -0.3815
    72IDQ   C61 9581   5.538   1.752  -0.387  0.0219 -0.8981  0.6516
    72IDQ   C62 9582   5.618   1.637  -0.443  0.8056  0.1198  0.0017
    72IDQ   C63 9583   5.739   1.594  -0.362 -0.1671 -0.3529  0.2533
    72IDQ   C64 9584   5.788   1.452  -0.382 -0.2556 -0.2049  0.0301
    72IDQ   C65 9585   5.702   1.339  -0.324 -0.8240 -0.2000 -0.4277
    72IDQ   C66 9586   5.254   2.393  -0.230  0.1566  0.0694  0.3121
    72IDQ   C67 9587   5.104   2.412  -0.263 -0.0272  0.1603 -0.0064
    72IDQ   C68 9588   5.075   2.454  -0.403  0.4740  0.0434  0.1907
    72IDQ   C69 9589   5.127   2.587  -0.454 -0.5858 -0.3811 -0.3125
    72IDQ   C70 9590   5.112   2.719  -0.371  0.6154  0.9282  0.4310
    72IDQ   C71 9591   4.971   2.781  -0.378 -0.2090 -0.2528  0.3792
    72IDQ   C72 9592   4.940   2.885  -0.279  0.3095 -0.5414  0.0798
    11RH     C1 9593   4.194   2.058   4.014  0.1094 -0.1673 -0.3065
    11RH     C2 9594   4.274   1.968   3.928  0.3424 -0.0592 -0.2038
    11RH     N1 9595   4.201   2.192   3.970 -0.0023 -0.1551 -0.2886
    11RH     S1 9596   4.354   2.065   3.794  0.3993  0.0512 -0.0905
    11RH     C3 9597   4.277   2.220   3.858  0.1127 -0.0507 -0.1841
    11RH     C4 9598   4.122   2.298   4.042 -0.0953  0.8056 -0.3373
    11RH     S2 9599   4.302   2.370   3.785  0.0188 -0.0140 -0.1411
    11RH     O1 9600   4.128   2.024   4.113  0.0196 -0.2581 -0.3978
    11RH     C5 9601   4.285   1.837   3.948  0.4843 -0.0477 -0.1984
    21BTZ    C6 9602   4.356   1.723   3.891 -0.0835  0.0917 -0.0286
    21BTZ    C7 9603   4.444   1.728   3.786 -0.1040  0.0740 -0.0466
    21BTZ    C8 9604   4.342   1.600   3.963 -0.0520  0.1104  0.0101
    21BTZ    C9 9605   4.522   1.613   3.747 -0.0944  0.0739 -0.0275
    21BTZ   C10 9606   4.512   1.493   3.812 -0.0646  0.0914  0.0095
    21BTZ   C11 9607   4.421   1.483   3.923 -0.0423  0.1103  0.0295
    21BTZ    N2 9608   4.260   1.582   4.067 -0.0302  0.1286  0.0305
    21BTZ    N3 9609   4.402   1.371   3.994 -0.0126  0.1284  0.0655
    21BTZ    S3 9610   4.280   1.412   4.118  0.0046  0.1467  0.0764
    31IDT   C12 9611   4.617   1.395   3.777 -0.1461 -0.2867  0.0170
    31IDT   C13 9612   4.614   1.262   3.811 -0.2367 -0.3538 -0.2529
    31IDT   C14 9613   4.724   1.189   3.757 -0.1335 -0.2624 -0.1671
    31IDT   C15 9614   4.812   1.265   3.683  0.0362 -0.1253  0.1680
    31IDT    S4 9615   4.761   1.437   3.674  0.0786 -0.1011  0.4029
    4IDB    C16 9616   4.928   1.185   3.646 -0.1189 -0.1659  0.5049
    4IDB    C17 9617   4.905   1.049   3.680  0.0725 -0.2305  0.3812
    51IDQ   C18 9618   4.773   1.042   3.762 -0.0707 -0.1868  0.0718
    4IDB    C19 9619   4.997   0.950   3.647  0.0736 -0.1140  0.0320
    51IDQ   C20 9620   4.674   0.939   3.696  0.3288  0.0467  0.7562
    51IDQ   C21 9621   4.793   0.996   3.915  0.0830  0.1652  0.1694
    51IDQ   C22 9622   4.916   0.920   3.969 -0.6143  0.1968  0.4646
    51IDQ   C23 9623   4.539   0.980   3.627 -0.5424  0.0489 -0.6030
    51IDQ   C24 9624   4.935   0.769   3.924  0.1690 -0.3193  0.0256
    51IDQ   C25 9625   4.817   0.675   3.942 -0.2369  0.5917 -0.1222
    51IDQ   C26 9626   4.858   0.532   3.902  0.3038  0.7780 -0.4741
    51IDQ   C27 9627   4.767   0.415   3.953 -0.5599  0.2529 -0.3010
    51IDQ   C28 9628   4.743   0.396   4.110 -0.4115 -0.1282  0.3410
    51IDQ   C29 9629   4.660   0.270   4.122  0.2769 -0.6406  0.6822
    51IDQ   C30 9630   4.470   0.846   3.580 -0.2017 -0.9795  0.4502
    51IDQ   C31 9631   4.342   0.867   3.511  0.4370 -0.8485 -0.2967
    51IDQ   C32 9632   4.298   0.747   3.437  0.1268 -0.3580 -1.2968
    51IDQ   C33 9633   4.171   0.744   3.365  0.2901  0.1959  0.1836
    51IDQ   C34 9634   4.044   0.790   3.436 -0.1385 -0.9038 -0.1628
    51IDQ   C35 9635   3.914   0.761   3.360 -0.2470  0.5843 -0.0651
    4IDB    C36 9636   5.044   1.224   3.577 -0.3111  0.0166  0.2783
    4IDB    C37 9637   5.137   1.122   3.544 -0.3068  0.1337 -0.0778
    11RH    C38 9638   3.965   2.290   4.017 -0.0257  0.1935  0.0552
    4IDB    C39 9639   5.113   0.989   3.579 -0.1185  0.0686 -0.1947
    62IDT   C40 9640   5.224   0.903   3.540  0.0731  0.1069 -0.0295
    72IDQ   C41 9641   5.276   1.127   3.474  0.0706 -0.0503 -0.2623
    62IDT   C42 9642   5.321   0.981   3.481  0.1404  0.1741  0.1673
    72IDQ   C43 9643   5.359   1.232   3.560  0.4698  0.0018 -0.3843
    72IDQ   C44 9644   5.253   1.161   3.325 -0.4960  0.2473  0.3081
    62IDT    S5 9645   5.282   0.737   3.574  0.0275  0.0618 -0.1695
    62IDT   C45 9646   5.443   0.783   3.503  0.1057  0.1400  0.0566
    62IDT   C46 9647   5.445   0.913   3.460  0.1590  0.1929  0.2163
    82BTZ   C47 9648   5.559   0.694   3.517  0.1754  0.0045 -0.1064
    82BTZ   C48 9649   5.550   0.590   3.605  0.3095 -0.0814 -0.1927
    82BTZ   C49 9650   5.661   0.501   3.629  0.3895 -0.0253 -0.3477
    82BTZ   C50 9651   5.781   0.517   3.566  0.3353  0.1166 -0.4160
    82BTZ   C51 9652   5.683   0.715   3.448  0.1140  0.1538 -0.1730
    82BTZ   C52 9653   5.796   0.625   3.473  0.1953  0.2108 -0.3304
    92RH    C53 9654   5.899   0.438   3.594 -0.2971 -0.0556  0.3869
    82BTZ    N4 9655   5.705   0.813   3.360 -0.0157  0.2480 -0.1004
    82BTZ    N5 9656   5.908   0.650   3.405  0.1311  0.3509 -0.3845
    82BTZ    S6 9657   5.874   0.794   3.304 -0.0395  0.4172 -0.2333
    92RH    C54 9658   5.926   0.337   3.678 -0.2515 -0.0813  0.3417
    92RH     S7 9659   5.821   0.279   3.817 -0.1499 -0.0859  0.4169
    92RH    C55 9660   6.050   0.255   3.671 -0.2780 -0.1108  0.2194
    92RH     O2 9661   6.141   0.270   3.588 -0.3438 -0.1152  0.1458
    92RH     N6 9662   6.052   0.157   3.772 -0.2181 -0.1340  0.1952
    92RH    C56 9663   5.946   0.149   3.859 -0.1470 -0.1267  0.2832
    92RH    C57 9664   6.176   0.084   3.784 -0.0152  0.3627 -0.9538
    92RH    C58 9665   6.176  -0.050   3.718  0.3935  1.1017  0.3024
    92RH     S8 9666   5.925   0.041   3.987 -0.0666 -0.1499  0.2773
    72IDQ   C59 9667   5.221   1.306   3.281  0.2767  0.5651 -0.2820
    72IDQ   C60 9668   5.168   1.341   3.148  0.1046  0.2944  0.5371
    72IDQ   C61 9669   5.117   1.489   3.146  0.0200 -0.4784  0.3926
    72IDQ   C62 9670   5.070   1.528   2.999 -0.1480 -0.5614 -0.4612
    72IDQ   C63 9671   5.171   1.515   2.883  0.8846  0.2870 -0.5322
    72IDQ   C64 9672   5.287   1.612   2.895 -0.1825 -0.2099 -0.0507
    72IDQ   C65 9673   5.382   1.624   2.772  0.1449 -0.4736 -0.2793
    72IDQ   C66 9674   5.500   1.281   3.522 -0.3244 -0.0415  0.0684
    72IDQ   C67 9675   5.555   1.390   3.618  0.1246  0.6104  0.2386
    72IDQ   C68 9676   5.675   1.468   3.561 -0.0474  0.5632 -0.0853
    72IDQ   C69 9677   5.638   1.578   3.462 -0.9898 -0.1194 -0.5296
    72IDQ   C70 9678   5.750   1.672   3.404 -0.1972  0.3693  0.3975
    72IDQ   C71 9679   5.684   1.781   3.320 -0.1479 -0.6047  0.5097
    72IDQ   C72 9680   5.782   1.861   3.237  0.6300 -0.4222  0.1932
    11RH     C1 9681   5.302   1.797   4.111 -0.1612  0.0665  0.0468
    11RH     C2 9682   5.295   1.649   4.116 -0.3968  0.0749 -0.0039
    11RH     N1 9683   5.400   1.841   4.019 -0.0088 -0.0576  0.1486
    11RH     S1 9684   5.418   1.577   4.000 -0.4026 -0.0809  0.0857
    11RH     C3 9685   5.472   1.746   3.950 -0.0935 -0.1496  0.1857
    11RH     C4 9686   5.400   1.984   3.983 -0.1931 -0.0662 -0.2773
    11RH     S2 9687   5.594   1.772   3.836  0.0509 -0.3037  0.3034
    11RH     O1 9688   5.232   1.875   4.177 -0.1006  0.1555  0.0068
    11RH     C5 9689   5.211   1.582   4.195 -0.5736  0.1819 -0.1006
    21BTZ    C6 9690   5.178   1.441   4.211 -0.1114  0.1289 -0.0059
    21BTZ    C7 9691   5.227   1.333   4.142  0.0637  0.1517  0.0825
    21BTZ    C8 9692   5.086   1.417   4.319 -0.1104  0.0704 -0.0178
    21BTZ    C9 9693   5.188   1.198   4.175  0.2472  0.1183  0.1632
    21BTZ   C10 9694   5.101   1.171   4.277  0.2555  0.0623  0.1553
    21BTZ   C11 9695   5.046   1.280   4.352  0.0763  0.0365  0.0641
    21BTZ    N2 9696   5.031   1.514   4.393 -0.2712  0.0435 -0.1004
    21BTZ    N3 9697   4.960   1.266   4.453  0.0654 -0.0176  0.0476
    21BTZ    S3 9698   4.925   1.432   4.511 -0.1892 -0.0278 -0.0760
    31IDT   C12 9699   5.067   1.030   4.301 -0.1320  0.3080 -0.3082
    31IDT   C13 9700   5.152   0.922   4.304  0.0815  0.4775 -0.1940
    31IDT   C14 9701   5.087   0.801   4.344  0.3531  0.4195  0.0799
    31IDT   C15 9702   4.953   0.816   4.372  0.3486  0.2058  0.1761
    31IDT    S4 9703   4.898   0.986   4.349 -0.0032  0.0602 -0.0751
    4IDB    C16 9704   4.891   0.694   4.412 -0.0001 -0.0728  0.1676
    4IDB    C17 9705   4.983   0.586   4.417  0.0757  0.0097  0.8137
    51IDQ   C18 9706   5.118   0.647   4.365  0.4106  0.1646 -0.0130
    4IDB    C19 9707   4.943   0.459   4.456 -0.0608  0.0018  0.6512
    51IDQ   C20 9708   5.231   0.626   4.479  0.8609  0.4934  0.3374
    51IDQ   C21 9709   5.178   0.584   4.231 -0.2838 -0.2927 -0.4454
    51IDQ   C22 9710   5.124   0.474   4.146 -0.0270  0.1028  0.0181
    51IDQ   C23 9711   5.281   0.740   4.568  0.2311 -0.5243  0.0424
    51IDQ   C24 9712   5.143   0.346   4.219 -0.0292  0.0918 -0.1765
    51IDQ   C25 9713   5.099   0.215   4.155  0.2681  0.0971  0.6532
    51IDQ   C26 9714   5.096   0.091   4.229 -0.2550  0.4903 -0.3486
    51IDQ   C27 9715   5.223   0.032   4.290  0.2814  0.0667 -0.0139
    51IDQ   C28 9716   5.279   0.090   4.425  0.1523  0.1717  0.1049
    51IDQ   C29 9717   5.404   0.015   4.450  0.5692  0.1546  0.2962
    51IDQ   C30 9718   5.400   0.697   4.666 -0.3433 -0.7502 -0.3647
    51IDQ   C31 9719   5.473   0.808   4.753 -0.2132  0.4566  0.5818
    51IDQ   C32 9720   5.596   0.764   4.827  0.0370  0.2360 -0.2864
    51IDQ   C33 9721   5.575   0.638   4.912  0.0701  0.1397 -0.7518
    51IDQ   C34 9722   5.687   0.600   5.017 -0.3214 -0.7075 -0.1258
    51IDQ   C35 9723   5.819   0.573   4.946 -0.7158  0.1517  0.2012
    4IDB    C36 9724   4.756   0.676   4.448 -0.2141 -0.1643 -0.6499
    4IDB    C37 9725   4.717   0.546   4.488 -0.3513 -0.1710 -0.8043
    11RH    C38 9726   5.500   2.065   4.059 -0.5443 -0.4308  0.2674
    4IDB    C39 9727   4.808   0.441   4.492 -0.2747 -0.0897 -0.1664
    62IDT   C40 9728   4.739   0.316   4.509 -0.4273  0.1215 -0.4062
    72IDQ   C41 9729   4.580   0.493   4.532  0.0036  0.0250 -0.2772
    62IDT   C42 9730   4.604   0.339   4.530 -0.4650 -0.1958 -0.2949
    72IDQ   C43 9731   4.452   0.535   4.455  0.0518 -0.9899  0.7062
    72IDQ   C44 9732   4.558   0.515   4.691 -0.5533 -0.1309  0.3304
    62IDT    S5 9733   4.779   0.141   4.512  0.0129  0.2216 -0.2946
    62IDT   C45 9734   4.603   0.106   4.543  0.1283 -0.1910 -0.0936
    62IDT   C46 9735   4.527   0.220   4.549 -0.1510 -0.3729 -0.1180
    82BTZ   C47 9736   4.555  -0.039   4.550 -0.0476 -0.3104 -0.0137
    82BTZ   C48 9737   4.640  -0.139   4.508 -0.0348 -0.4104  0.2427
    82BTZ   C49 9738   4.605  -0.278   4.520 -0.0968 -0.3791  0.4334
    82BTZ   C50 9739   4.485  -0.318   4.574 -0.1711 -0.2475  0.3675
    82BTZ   C51 9740   4.429  -0.076   4.607 -0.1242 -0.1711 -0.0924
    82BTZ   C52 9741   4.394  -0.217   4.620 -0.1872 -0.1391  0.1016
    92RH    C53 9742   4.445  -0.455   4.586 -0.0834  0.1606  0.2555
    82BTZ    N4 9743   4.339   0.012   4.652 -0.1435 -0.0647 -0.3361
    82BTZ    N5 9744   4.275  -0.244   4.674 -0.2570 -0.0070  0.0137
    82BTZ    S6 9745   4.202  -0.085   4.713 -0.2451  0.0840 -0.3277
    92RH    C54 9746   4.494  -0.571   4.542 -0.0638  0.1693  0.2549
    92RH     S7 9747   4.658  -0.598   4.464 -0.1315  0.2274  0.0929
    92RH    C55 9748   4.421  -0.700   4.551  0.0185  0.1314  0.3904
    92RH     O2 9749   4.308  -0.716   4.599  0.0780  0.0881  0.5181
    92RH     N6 9750   4.498  -0.806   4.497  0.0219  0.1504  0.3575
    92RH    C56 9751   4.622  -0.778   4.446 -0.0477  0.1992  0.2120
    92RH    C57 9752   4.442  -0.947   4.501 -0.1061 -0.2195  0.4427
    92RH    C58 9753   4.470  -1.027   4.629 -0.1281  0.2296 -0.5863
    92RH     S8 9754   4.732  -0.886   4.377 -0.0600  0.2307  0.1435
    72IDQ   C59 9755   4.538   0.665   4.743  0.5028  0.1537  0.8439
    72IDQ   C60 9756   4.499   0.669   4.890 -0.4891 -0.1359 -0.2099
    72IDQ   C61 9757   4.608   0.639   4.993  0.1996  0.0096 -0.3079
    72IDQ   C62 9758   4.698   0.755   5.025 -0.0167 -0.5606 -0.1897
    72IDQ   C63 9759   4.808   0.713   5.118 -0.3274  0.1275  0.2382
    72IDQ   C64 9760   4.914   0.829   5.134 -0.2247 -0.1053  0.3892
    72IDQ   C65 9761   5.024   0.782   5.232  0.0708  0.0151  0.0276
    72IDQ   C66 9762   4.451   0.560   4.304  0.3569  0.2325  0.0411
    72IDQ   C67 9763   4.317   0.560   4.244  0.3452  0.8518 -0.1714
    72IDQ   C68 9764   4.303   0.568   4.095 -0.0389 -0.0048  0.0319
    72IDQ   C69 9765   4.164   0.561   4.024  0.0397  0.3819  0.1199
    72IDQ   C70 9766   4.147   0.642   3.894  0.7385 -0.1913 -0.2136
    72IDQ   C71 9767   4.013   0.616   3.824  0.0477  0.5005 -0.0428
    72IDQ   C72 9768   4.018   0.479   3.755  0.0383 -0.7001 -0.0508
    11RH     C1 9769   4.249   2.558   0.140 -0.0888 -0.0696  0.1384
    11RH     C2 9770   4.318   2.630   0.031 -0.1001 -0.0491  0.1449
    11RH     N1 9771   4.214   2.427   0.102 -0.1132 -0.0547  0.1100
    11RH     S1 9772   4.331   2.521  -0.117 -0.1422 -0.0117  0.1131
    11RH     C3 9773   4.246   2.385  -0.026 -0.1426 -0.0248  0.0929
    11RH     C4 9774   4.146   2.333   0.193 -0.2232 -0.6987 -0.5360
    11RH     S2 9775   4.216   2.235  -0.096 -0.1757 -0.0020  0.0584
    11RH     O1 9776   4.225   2.604   0.253 -0.0615 -0.0965  0.1554
    11RH     C5 9777   4.361   2.756   0.041 -0.0816 -0.0577  0.1704
    21BTZ    C6 9778   4.425   2.848  -0.054 -0.0531 -0.0586 -0.1911
    21BTZ    C7 9779   4.453   2.808  -0.182 -0.1192 -0.0062 -0.2222
    21BTZ    C8 9780   4.461   2.981  -0.014 -0.1347 -0.0363 -0.1903
    21BTZ    C9 9781   4.517   2.895  -0.277 -0.2675  0.0703 -0.2539
    21BTZ   C10 9782   4.554   3.023  -0.243 -0.3497  0.0943 -0.2545
    21BTZ   C11 9783   4.527   3.070  -0.111 -0.2855  0.0414 -0.2226
    21BTZ    N2 9784   4.439   3.032   0.107 -0.0823 -0.0821 -0.1616
    21BTZ    N3 9785   4.558   3.192  -0.066 -0.3542  0.0581 -0.2198
    21BTZ    S3 9786   4.503   3.199   0.104 -0.2265 -0.0267 -0.1749
    31IDT   C12 9787   4.620   3.103  -0.350  0.1227  0.3606 -0.2026
    31IDT   C13 9788   4.703   3.212  -0.335 -0.1922  0.6472 -0.5156
    31IDT   C14 9789   4.752   3.261  -0.460 -0.4166  0.4960 -0.6664
    31IDT   C15 9790   4.708   3.190  -0.570 -0.2748  0.0941 -0.4697
    31IDT    S4 9791   4.599   3.055  -0.524  0.1581 -0.1262 -0.0748
    4IDB    C16 9792   4.770   3.249  -0.687  0.0051 -0.0172  0.1256
    4IDB    C17 9793   4.849   3.362  -0.650  0.3821 -0.3195  0.2512
    51IDQ   C18 9794   4.843   3.377  -0.499 -0.1233  0.0248 -0.2409
    4IDB    C19 9795   4.922   3.433  -0.744  0.1398 -0.0965  0.2292
    51IDQ   C20 9796   4.994   3.360  -0.459  0.7766 -0.6434  0.8343
    51IDQ   C21 9797   4.791   3.515  -0.439 -0.3207  0.1108 -0.4574
    51IDQ   C22 9798   4.757   3.634  -0.532 -0.2421  0.3509  0.2537
    51IDQ   C23 9799   5.057   3.229  -0.426 -0.5082 -0.0118  0.2705
    51IDQ   C24 9800   4.750   3.771  -0.468 -0.3885 -0.3112  0.4719
    51IDQ   C25 9801   4.676   3.868  -0.556 -0.4363 -0.7582  0.2826
    51IDQ   C26 9802   4.617   3.984  -0.484  0.2307 -0.2777 -0.3756
    51IDQ   C27 9803   4.507   4.064  -0.556  0.1513  0.6556  0.0407
    51IDQ   C28 9804   4.546   4.155  -0.666  0.1153  0.0097 -0.0074
    51IDQ   C29 9805   4.425   4.231  -0.712  1.2694 -0.1275  0.4596
    51IDQ   C30 9806   5.181   3.248  -0.340 -0.0391 -0.1625  0.0932
    51IDQ   C31 9807   5.254   3.117  -0.307  0.4290  0.3794  0.2373
    51IDQ   C32 9808   5.375   3.124  -0.212  0.3989  0.3169 -0.0234
    51IDQ   C33 9809   5.449   2.991  -0.193 -0.2272 -0.0619  0.2506
    51IDQ   C34 9810   5.372   2.888  -0.106  0.3937  0.2990  0.1991
    51IDQ   C35 9811   5.439   2.754  -0.112 -0.2113  0.0955  0.0511
    4IDB    C36 9812   4.763   3.207  -0.821 -0.6204  0.5129 -0.0234
    4IDB    C37 9813   4.839   3.281  -0.916 -0.8599  0.7340 -0.0435
    11RH    C38 9814   4.235   2.225   0.265  0.2249 -0.1903  0.2828
    4IDB    C39 9815   4.915   3.391  -0.878 -0.4854  0.4336  0.0803
    62IDT   C40 9816   4.993   3.445  -0.984  0.0232  0.0300 -0.1230
    72IDQ   C41 9817   4.867   3.257  -1.070 -0.1616  0.2634 -0.1963
    62IDT   C42 9818   4.960   3.378  -1.100  0.2239 -0.1107 -0.0986
    72IDQ   C43 9819   4.735   3.296  -1.152  0.3923  0.2186  0.0751
    72IDQ   C44 9820   4.887   3.098  -1.087 -0.2575 -0.4727  0.0658
    62IDT    S5 9821   5.112   3.576  -1.014 -0.0720  0.1207 -0.1065
    62IDT   C45 9822   5.111   3.530  -1.190  0.1768 -0.0444 -0.0657
    62IDT   C46 9823   5.027   3.426  -1.217  0.3110 -0.1529 -0.0663
    82BTZ   C47 9824   5.179   3.630  -1.281  0.1901  0.0059 -0.2758
    82BTZ   C48 9825   5.176   3.760  -1.237  0.1570 -0.0092 -0.2338
    82BTZ   C49 9826   5.251   3.864  -1.303  0.0823  0.0427 -0.2377
    82BTZ   C50 9827   5.329   3.838  -1.412  0.0404  0.1094 -0.2838
    82BTZ   C51 9828   5.260   3.598  -1.395  0.1483  0.0749 -0.3250
    82BTZ   C52 9829   5.336   3.703  -1.461  0.0722  0.1276 -0.3289
    92RH    C53 9830   5.417   3.936  -1.475  0.0225  0.1669  0.0380
    82BTZ    N4 9831   5.271   3.475  -1.447  0.1744  0.0958 -0.3687
    82BTZ    N5 9832   5.409   3.666  -1.567  0.0372  0.1908 -0.3759
    82BTZ    S6 9833   5.382   3.490  -1.586  0.1010  0.1856 -0.4177
    92RH    C54 9834   5.438   4.067  -1.461  0.1514  0.1472  0.0278
    92RH     S7 9835   5.328   4.189  -1.378  0.3961  0.2178  0.2510
    92RH    C55 9836   5.558   4.137  -1.513  0.1136  0.0625 -0.1737
    92RH     O2 9837   5.652   4.083  -1.575 -0.0386  0.0005 -0.3532
    92RH     N6 9838   5.555   4.275  -1.485  0.2744  0.0595 -0.1381
    92RH    C56 9839   5.446   4.325  -1.416  0.4368  0.1317  0.0675
    92RH    C57 9840   5.660   4.367  -1.531  0.4163  0.5526  0.7336
    92RH    C58 9841   5.774   4.389  -1.430  0.4492  0.7425 -0.0254
    92RH     S8 9842   5.418   4.485  -1.370  0.6461  0.1450  0.1523
    72IDQ   C59 9843   5.019   3.030  -1.050 -0.6867  0.4288 -0.5242
    72IDQ   C60 9844   5.147   3.091  -1.110 -0.4303  0.6759 -0.2676
    72IDQ   C61 9845   5.278   3.010  -1.093 -0.2593 -0.3009  0.4156
    72IDQ   C62 9846   5.381   3.081  -1.190  0.2911  0.4607  0.1058
    72IDQ   C63 9847   5.425   3.230  -1.168  0.3906  0.3380  0.8528
    72IDQ   C64 9848   5.533   3.276  -1.263  0.2395 -0.0860  0.0066
    72IDQ   C65 9849   5.553   3.421  -1.231  0.9729  0.0891  0.4897
    72IDQ   C66 9850   4.717   3.288  -1.310 -0.8274  0.2109 -0.2255
    72IDQ   C67 9851   4.604   3.380  -1.358 -0.5416 -0.3008 -0.0449
    72IDQ   C68 9852   4.661   3.522  -1.406 -0.4257  0.0045 -0.1023
    72IDQ   C69 9853   4.770   3.554  -1.515  0.4579 -0.8818 -0.4909
    72IDQ   C70 9854   4.848   3.685  -1.484  0.2216 -0.0827  0.3080
    72IDQ   C71 9855   4.932   3.730  -1.604 -0.1960 -0.8885  0.3297
    72IDQ   C72 9856   5.018   3.855  -1.571 -0.3256  0.0562 -0.0113
    11RH     C1 9857   6.118   1.047   4.541 -0.3656  0.1289  0.2037
    11RH     C2 9858   6.199   1.166   4.577 -0.1405  0.0009  0.1274
    11RH     N1 9859   6.041   1.002   4.650 -0.2966  0.2218  0.2916
    11RH     S1 9860   6.168   1.211   4.753  0.1472  0.0110  0.1763
    11RH     C3 9861   6.050   1.070   4.769 -0.0435  0.1839  0.2952
    11RH     C4 9862   5.950   0.886   4.627 -0.2828 -0.5846  0.6441
    11RH     S2 9863   5.969   1.036   4.913  0.0879  0.2750  0.3903
    11RH     O1 9864   6.116   0.993   4.429 -0.5888  0.1541  0.1936
    11RH     C5 9865   6.280   1.229   4.492 -0.1536 -0.1038  0.0373
    21BTZ    C6 9866   6.370   1.344   4.503  0.3880 -0.2778  0.1086
    21BTZ    C7 9867   6.381   1.415   4.619  0.4854 -0.3263  0.1295
    21BTZ    C8 9868   6.440   1.390   4.387  0.1707 -0.1460  0.0278
    21BTZ    C9 9869   6.461   1.535   4.627  0.3750 -0.2482  0.0726
    21BTZ   C10 9870   6.530   1.583   4.519  0.1673 -0.1217 -0.0051
    21BTZ   C11 9871   6.521   1.511   4.395  0.0584 -0.0665 -0.0300
    21BTZ    N2 9872   6.437   1.329   4.268  0.0585 -0.0878  0.0004
    21BTZ    N3 9873   6.584   1.548   4.283 -0.1438  0.0554 -0.1040
    21BTZ    S3 9874   6.541   1.426   4.159 -0.2003  0.0742 -0.1027
    31IDT   C12 9875   6.605   1.712   4.534 -0.2187  0.1184 -0.0731
    31IDT   C13 9876   6.672   1.780   4.435 -0.3005  0.1273 -0.1228
    31IDT   C14 9877   6.728   1.903   4.481 -0.0963  0.0294 -0.1097
    31IDT   C15 9878   6.705   1.930   4.614  0.1421 -0.0547 -0.0502
    31IDT    S4 9879   6.609   1.800   4.693  0.1263 -0.0159 -0.0056
    4IDB    C16 9880   6.769   2.061   4.650 -0.2092  0.1912  0.1682
    4IDB    C17 9881   6.831   2.113   4.533  0.3545 -0.0744  0.3402
    51IDQ   C18 9882   6.806   2.020   4.416  0.6748  0.4935 -0.6539
    4IDB    C19 9883   6.898   2.235   4.535  0.2820 -0.0349  0.3737
    51IDQ   C20 9884   6.718   2.109   4.318  0.7061 -0.1948 -0.0802
    51IDQ   C21 9885   6.925   1.965   4.340 -0.0386  0.9229  0.3653
    51IDQ   C22 9886   7.071   2.003   4.367 -0.3873 -0.4093  0.7860
    51IDQ   C23 9887   6.563   2.091   4.305  0.0592 -0.5459 -0.3242
    51IDQ   C24 9888   7.160   1.896   4.307 -0.1457  0.0268 -0.0826
    51IDQ   C25 9889   7.299   1.951   4.328 -0.1393  0.1460  0.3801
    51IDQ   C26 9890   7.399   1.835   4.295  0.2584  0.2519 -0.6217
    51IDQ   C27 9891   7.394   1.722   4.402 -0.3500 -0.1032  0.6320
    51IDQ   C28 9892   7.473   1.595   4.381  0.2212  0.4264 -0.6138
    51IDQ   C29 9893   7.441   1.515   4.259  0.1896  0.1018 -0.3586
    51IDQ   C30 9894   6.517   2.165   4.186  0.3357 -0.2851  0.4109
    51IDQ   C31 9895   6.370   2.194   4.181  0.6783  0.4845  0.2357
    51IDQ   C32 9896   6.321   2.229   4.043 -0.2659 -0.1664  0.4031
    51IDQ   C33 9897   6.188   2.304   4.037 -0.7096  0.0760 -0.3422
    51IDQ   C34 9898   6.169   2.377   3.900  0.0282 -0.2508  0.0502
    51IDQ   C35 9899   6.026   2.412   3.885 -0.3770 -0.0554  0.5463
    4IDB    C36 9900   6.774   2.130   4.772 -0.8527  0.4997  0.0274
    4IDB    C37 9901   6.843   2.254   4.773 -0.9171  0.5354  0.0639
    11RH    C38 9902   5.815   0.921   4.557 -0.0691 -0.1932 -0.2145
    4IDB    C39 9903   6.903   2.304   4.657 -0.3615  0.2736  0.2330
    62IDT   C40 9904   6.973   2.422   4.686  0.8806 -0.4129 -0.4430
    72IDQ   C41 9905   6.872   2.355   4.889 -1.0484  0.3572 -1.0330
    62IDT   C42 9906   6.963   2.458   4.819  0.9818 -0.7073 -0.3529
    72IDQ   C43 9907   6.945   2.294   5.024  0.0914  0.1677  0.2983
    72IDQ   C44 9908   6.736   2.402   4.946 -0.3161 -0.1005 -0.5186
    62IDT    S5 9909   7.058   2.547   4.589  0.3468  0.0424 -0.3368
    62IDT   C45 9910   7.076   2.646   4.740  0.2857 -0.2012 -0.1680
    62IDT   C46 9911   7.021   2.585   4.850  0.6457 -0.5881 -0.1973
    82BTZ   C47 9912   7.142   2.775   4.736 -0.2177  0.0671  0.5607
    82BTZ   C48 9913   7.251   2.775   4.653 -0.1335 -0.1022  0.6700
    82BTZ   C49 9914   7.315   2.897   4.612 -0.0536 -0.1876  0.5368
    82BTZ   C50 9915   7.271   3.020   4.655 -0.0579 -0.1036  0.2945
    82BTZ   C51 9916   7.091   2.900   4.783 -0.2258  0.1605  0.3074
    82BTZ   C52 9917   7.157   3.025   4.742 -0.1445  0.0737  0.1720
    92RH    C53 9918   7.333   3.148   4.606 -0.0303 -0.0305  0.0005
    82BTZ    N4 9919   6.986   2.913   4.864 -0.3040  0.3257  0.1808
    82BTZ    N5 9920   7.104   3.138   4.790 -0.1574  0.1691 -0.0633
    82BTZ    S6 9921   6.966   3.089   4.892 -0.2764  0.3784 -0.1230
    92RH    C54 9922   7.441   3.180   4.534 -0.0145  0.0502  0.0594
    92RH     S7 9923   7.554   3.064   4.447  0.0254  0.1438 -0.0158
    92RH    C55 9924   7.487   3.319   4.512 -0.0273  0.0765  0.1987
    92RH     O2 9925   7.433   3.421   4.557 -0.0537  0.0281  0.2766
    92RH     N6 9926   7.604   3.323   4.432 -0.0056  0.1653  0.2347
    92RH    C56 9927   7.656   3.204   4.387  0.0231  0.2133  0.1409
    92RH    C57 9928   7.662   3.447   4.383 -0.0774 -0.5673 -0.1892
    92RH    C58 9929   7.604   3.508   4.252 -0.5433  0.8136 -0.1763
    92RH     S8 9930   7.793   3.182   4.291  0.0530  0.3195  0.1582
    72IDQ   C59 9931   6.645   2.500   4.876  0.1377 -0.1723  0.0734
    72IDQ   C60 9932   6.687   2.640   4.900  0.7555 -0.3346  0.0281
    72IDQ   C61 9933   6.588   2.736   4.841  0.6830 -0.4154 -0.1383
    72IDQ   C62 9934   6.619   2.882   4.869  0.2825  0.2696 -0.1269
    72IDQ   C63 9935   6.622   2.924   5.019  0.0374  1.0667 -0.2983
    72IDQ   C64 9936   6.642   3.074   5.050  0.0980  0.0925  0.4485
    72IDQ   C65 9937   6.632   3.102   5.195  0.3005  0.4313  0.0396
    72IDQ   C66 9938   7.073   2.202   5.010 -0.8200 -0.6309 -0.6812
    72IDQ   C67 9939   7.214   2.253   4.968  0.5943  0.4237 -0.0017
    72IDQ   C68 9940   7.264   2.368   5.046 -0.0058 -0.1724  0.0951
    72IDQ   C69 9941   7.397   2.430   4.992 -0.1077 -0.2107  0.1624
    72IDQ   C70 9942   7.446   2.557   5.054  0.6836 -0.7983 -0.3833
    72IDQ   C71 9943   7.436   2.573   5.209  0.0200 -0.0974  0.1036
    72IDQ   C72 9944   7.476   2.717   5.252  0.3930  0.9434 -0.6179
    11RH     C1 9945   0.040   3.363   1.096  0.2129  0.1924 -0.2174
    11RH     C2 9946   0.166   3.292   1.064  0.2099  0.0804  0.0148
    11RH     N1 9947   0.066   3.488   1.158  0.2125  0.2295 -0.2926
    11RH     S1 9948   0.310   3.393   1.116  0.2068  0.0313  0.1192
    11RH     C3 9949   0.197   3.525   1.178  0.2096  0.1609 -0.1490
    11RH     C4 9950  -0.055   3.562   1.198 -0.6154  0.1258 -0.2569
    11RH     S2 9951   0.254   3.667   1.249  0.2085  0.1853 -0.1971
    11RH     O1 9952  -0.074   3.321   1.074  0.2154  0.2483 -0.3347
    11RH     C5 9953   0.170   3.172   1.006  0.2096  0.0262  0.1256
    21BTZ    C6 9954   0.281   3.082   0.958 -0.0999 -0.1383  0.0361
    21BTZ    C7 9955   0.413   3.112   0.979 -0.1372 -0.0712  0.1817
    21BTZ    C8 9956   0.248   2.960   0.890  0.0378 -0.1423 -0.0237
    21BTZ    C9 9957   0.519   3.025   0.933 -0.0418 -0.0049  0.2753
    21BTZ   C10 9958   0.492   2.908   0.867  0.0908 -0.0060  0.2232
    21BTZ   C11 9959   0.355   2.872   0.844  0.1348 -0.0750  0.0715
    21BTZ    N2 9960   0.123   2.920   0.865  0.0863 -0.2045 -0.1637
    21BTZ    N3 9961   0.317   2.760   0.781  0.2612 -0.0831  0.0079
    21BTZ    S3 9962   0.138   2.764   0.778  0.2616 -0.1791 -0.1802
    31IDT   C12 9963   0.607   2.828   0.812  0.0465  0.3699  0.4633
    31IDT   C13 9964   0.604   2.696   0.775  0.0126  0.3119  0.6724
    31IDT   C14 9965   0.734   2.640   0.757 -0.0066  0.3619  0.3682
    31IDT   C15 9966   0.837   2.728   0.780  0.0125  0.4583 -0.0737
    31IDT    S4 9967   0.777   2.891   0.827  0.0567  0.4935 -0.1395
    4IDB    C16 9968   0.962   2.667   0.743 -0.3453 -0.1115 -0.0108
    4IDB    C17 9969   0.938   2.536   0.692 -0.1922 -0.0520 -0.2415
    51IDQ   C18 9970   0.789   2.502   0.717 -0.1472  0.3097 -0.0222
    4IDB    C19 9971   1.042   2.460   0.639 -0.0414  0.0394 -0.0805
    51IDQ   C20 9972   0.732   2.437   0.580 -0.4423 -0.0717 -0.0317
    51IDQ   C21 9973   0.760   2.394   0.827 -0.0664  0.7756 -0.0688
    51IDQ   C22 9974   0.873   2.309   0.890  0.4178  0.6336  0.3342
    51IDQ   C23 9975   0.617   2.504   0.496 -0.4837  0.5142 -0.3084
    51IDQ   C24 9976   0.813   2.204   0.987 -0.2854 -0.1603  0.0225
    51IDQ   C25 9977   0.917   2.135   1.076 -0.1435  0.1460  0.3059
    51IDQ   C26 9978   0.869   2.022   1.173  0.2483 -0.1141  0.2887
    51IDQ   C27 9979   0.796   1.910   1.099 -0.0497 -0.0049 -0.0420
    51IDQ   C28 9980   0.881   1.841   0.987  0.3195  0.1042 -0.0800
    51IDQ   C29 9981   0.950   1.722   1.043 -0.3056  0.4271  0.0591
    51IDQ   C30 9982   0.511   2.435   0.405 -0.1563 -0.6510  0.0476
    51IDQ   C31 9983   0.407   2.342   0.471 -0.5331 -0.4194 -0.5038
    51IDQ   C32 9984   0.450   2.203   0.522 -0.6298 -0.2096 -0.3971
    51IDQ   C33 9985   0.535   2.126   0.423 -0.1375  0.0350  0.5181
    51IDQ   C34 9986   0.559   1.985   0.454  0.1656 -0.0404  0.0763
    51IDQ   C35 9987   0.616   1.925   0.327  0.2673 -0.1611  0.0272
    4IDB    C36 9988   1.090   2.724   0.740 -0.3482 -0.0796  0.3849
    4IDB    C37 9989   1.195   2.645   0.685 -0.1928  0.0141  0.5445
    11RH    C38 9990  -0.114   3.651   1.092 -0.0331 -0.6362 -0.1129
    4IDB    C39 9991   1.170   2.517   0.636 -0.0443  0.0713  0.3153
    62IDT   C40 9992   1.286   2.466   0.580  0.0411  0.2783  0.1785
    72IDQ   C41 9993   1.347   2.679   0.678  0.5457  0.2041 -0.5933
    62IDT   C42 9994   1.393   2.552   0.600  0.2117  0.0194  0.4025
    72IDQ   C43 9995   1.407   2.693   0.823  0.1611 -0.2048 -0.2715
    72IDQ   C44 9996   1.381   2.802   0.584  0.9953  0.1959  0.7594
    62IDT    S5 9997   1.329   2.329   0.472 -0.1027  0.2426  0.1663
    62IDT   C45 9998   1.497   2.398   0.458  0.0846 -0.1389  0.4798
    62IDT   C46 9999   1.512   2.514   0.531  0.2365 -0.2168  0.5731
    82BTZ   C4710000   1.588   2.347   0.356  0.0255  0.4135 -0.4079
    82BTZ   C4810001   1.536   2.276   0.250  0.1174  0.2822 -0.3656
    82BTZ   C4910002   1.620   2.198   0.163  0.1787  0.0654 -0.1171
    82BTZ   C5010003   1.756   2.191   0.180  0.1479 -0.0199  0.0886
    82BTZ   C5110004   1.729   2.343   0.379 -0.0100  0.3316 -0.1984
    82BTZ   C5210005   1.815   2.264   0.289  0.0522  0.1112  0.0541
    92RH    C5310006   1.843   2.121   0.082 -0.0772  0.0132 -0.0948
    82BTZ    N410007   1.791   2.407   0.478 -0.0982  0.4438 -0.2158
    82BTZ    N510008   1.945   2.264   0.317  0.0142  0.0462  0.2397
    82BTZ    S610009   1.965   2.369   0.461 -0.1055  0.2687  0.0966
    92RH    C5410010   1.827   2.050  -0.030 -0.1220 -0.0499 -0.0480
    92RH     S710011   1.672   1.971  -0.088 -0.1813  0.0417 -0.0152
    92RH    C5510012   1.936   2.024  -0.127 -0.1305 -0.2093 -0.0149
    92RH     O210013   2.053   2.064  -0.117 -0.0979 -0.3016 -0.0262
    92RH     N610014   1.890   1.946  -0.236 -0.1812 -0.2457  0.0322
    92RH    C5610015   1.758   1.907  -0.238 -0.2144 -0.1349  0.0410
    92RH    C5710016   1.992   1.894  -0.335  0.4929  0.3865 -0.0340
    92RH    C5810017   1.989   1.974  -0.464  0.1867 -0.2488 -0.0450
    92RH     S810018   1.680   1.814  -0.355 -0.2764 -0.1489  0.0936
    72IDQ   C5910019   1.326   2.946   0.616  0.5119  0.4365 -0.5967
    72IDQ   C6010020   1.360   3.052   0.513  0.0217  0.2965 -0.0489
    72IDQ   C6110021   1.505   3.095   0.502  0.6012 -0.4818  0.7921
    72IDQ   C6210022   1.576   3.158   0.623 -0.7268  0.5798  0.1354
    72IDQ   C6310023   1.548   3.296   0.652 -0.6072 -0.2116 -0.6952
    72IDQ   C6410024   1.636   3.348   0.770  0.2385  0.0363 -0.2556
    72IDQ   C6510025   1.600   3.487   0.829 -0.1019 -0.1125 -0.3797
    72IDQ   C6610026   1.557   2.721   0.836  0.2012  0.1237  0.3690
    72IDQ   C6710027   1.588   2.737   0.980 -0.0344 -0.9324  0.0619
    72IDQ   C6810028   1.738   2.757   1.006 -0.6702 -0.2418  0.8545
    72IDQ   C6910029   1.761   2.829   1.139 -0.7171 -0.3178 -0.2402
    72IDQ   C7010030   1.911   2.873   1.142  0.6024 -0.3980  0.7000
    72IDQ   C7110031   1.939   2.960   1.261  0.0286 -0.0203 -0.9192
    72IDQ   C7210032   2.087   3.001   1.278  0.3536  0.2534  0.2783
    11RH     C110033   2.526   0.322   5.350  0.2700  0.1088 -0.3023
    11RH     C210034   2.586   0.245   5.238  0.1873 -0.0271 -0.2538
    11RH     N110035   2.388   0.343   5.330  0.2684  0.1412 -0.2574
    11RH     S110036   2.457   0.205   5.114  0.1129 -0.1034 -0.1524
    11RH     C310037   2.330   0.292   5.216  0.1945  0.0479 -0.1789
    11RH     C410038   2.305   0.413   5.430 -0.4708 -0.0470  1.0074
    11RH     S210039   2.168   0.303   5.168  0.1760  0.0616 -0.1129
    11RH     O110040   2.587   0.364   5.450  0.3337  0.1864 -0.3736
    11RH     C510041   2.715   0.212   5.233  0.1721 -0.0822 -0.2822
    21BTZ    C610042   2.798   0.132   5.140 -0.0521 -0.4664 -0.0807
    21BTZ    C710043   2.742   0.076   5.028 -0.0018 -0.4898 -0.0944
    21BTZ    C810044   2.941   0.130   5.153 -0.0373 -0.1391 -0.1888
    21BTZ    C910045   2.823   0.016   4.925  0.0653 -0.1949 -0.2140
    21BTZ   C1010046   2.960   0.012   4.933  0.0819  0.1228 -0.3199
    21BTZ   C1110047   3.023   0.070   5.048  0.0310  0.1605 -0.3104
    21BTZ    N210048   3.007   0.182   5.257 -0.0820 -0.0840 -0.1875
    21BTZ    N310049   3.155   0.072   5.068  0.0410  0.4566 -0.4067
    21BTZ    S310050   3.181   0.154   5.225 -0.0380  0.3627 -0.3449
    31IDT   C1210051   3.028  -0.016   4.805 -0.4547  0.0866  0.0657
    31IDT   C1310052   3.155  -0.064   4.788 -0.2913  0.3392  0.5289
    31IDT   C1410053   3.187  -0.089   4.651  0.2625  0.4100  0.6415
    31IDT   C1510054   3.085  -0.059   4.563  0.5244  0.2124  0.2658
    31IDT    S410055   2.939   0.002   4.648  0.0859 -0.0815 -0.2644
    4IDB    C1610056   3.122  -0.108   4.430 -0.0710 -0.0384  0.4434
    4IDB    C1710057   3.251  -0.168   4.438  0.0085  0.1130  0.2944
    51IDQ   C1810058   3.311  -0.140   4.578  0.5446 -0.2889 -0.2354
    4IDB    C1910059   3.301  -0.244   4.333 -0.0507  0.1174  0.2629
    51IDQ   C2010060   3.381  -0.268   4.634 -0.4055  0.2034  0.0652
    51IDQ   C2110061   3.425  -0.028   4.586  0.5148 -0.9216 -0.1619
    51IDQ   C2210062   3.459   0.058   4.471  0.1479 -0.3833  0.5881
    51IDQ   C2310063   3.343  -0.339   4.762  0.5795  0.0805 -0.0003
    51IDQ   C2410064   3.538   0.177   4.512 -0.6374  0.0705 -0.9589
    51IDQ   C2510065   3.569   0.279   4.398  0.5012  0.0992  0.1764
    51IDQ   C2610066   3.611   0.407   4.472  0.3063  0.4045  0.6607
    51IDQ   C2710067   3.654   0.511   4.374 -0.2756 -0.3119 -0.3732
    51IDQ   C2810068   3.764   0.489   4.268  0.4242  0.3249  0.1114
    51IDQ   C2910069   3.829   0.614   4.221  0.4507  0.7136  0.1321
    51IDQ   C3010070   3.440  -0.460   4.796 -0.0054  0.5041 -0.2388
    51IDQ   C3110071   3.555  -0.414   4.877 -0.1611 -0.4906 -0.1836
    51IDQ   C3210072   3.644  -0.510   4.952 -0.2993 -0.4591  0.1055
    51IDQ   C3310073   3.568  -0.597   5.054  0.0489  0.3853  1.0110
    51IDQ   C3410074   3.652  -0.721   5.093 -0.4807 -0.0179  0.3863
    51IDQ   C3510075   3.782  -0.696   5.164 -0.2203  0.3202 -0.2961
    4IDB    C3610076   3.041  -0.124   4.317 -0.2110 -0.1875  0.5624
    4IDB    C3710077   3.094  -0.202   4.210 -0.2697 -0.1807  0.5282
    11RH    C3810078   2.243   0.330   5.540 -0.3626 -0.0282  0.2436
    4IDB    C3910079   3.221  -0.259   4.219 -0.1907 -0.0317  0.3820
    62IDT   C4010080   3.249  -0.331   4.093 -0.1628  0.2155 -0.1805
    72IDQ   C4110081   3.042  -0.217   4.066  0.1350  0.0871  0.3296
    62IDT   C4210082   3.148  -0.305   4.003  0.0085  0.2962 -0.3496
    72IDQ   C4310083   3.028  -0.093   3.974 -0.8465  0.4282 -0.5842
    72IDQ   C4410084   2.898  -0.291   4.056 -0.3238 -0.3656  0.3639
    62IDT    S510085   3.375  -0.438   4.024 -0.2726 -0.1140  0.1248
    62IDT   C4510086   3.280  -0.443   3.869 -0.0713 -0.1259  0.0014
    62IDT   C4610087   3.165  -0.368   3.876  0.0604  0.1034 -0.2471
    82BTZ   C4710088   3.334  -0.492   3.737  0.0470  0.1638  0.1639
    82BTZ   C4810089   3.248  -0.548   3.645 -0.0404  0.1245  0.2692
    82BTZ   C4910090   3.293  -0.587   3.514 -0.1673  0.0737  0.2407
    82BTZ   C5010091   3.423  -0.570   3.474 -0.2066  0.0623  0.1069
    82BTZ   C5110092   3.470  -0.471   3.699  0.0103  0.1535  0.0220
    82BTZ   C5210093   3.516  -0.511   3.566 -0.1187  0.1018 -0.0070
    92RH    C5310094   3.467  -0.610   3.339 -0.0314 -0.0586 -0.0659
    82BTZ    N410095   3.563  -0.417   3.779  0.0869  0.1886 -0.0894
    82BTZ    N510096   3.645  -0.489   3.538 -0.1458  0.0955 -0.1416
    82BTZ    S610097   3.715  -0.415   3.685 -0.0046  0.1562 -0.2392
    92RH    C5410098   3.399  -0.651   3.232 -0.1960 -0.0627  0.0397
    92RH     S710099   3.222  -0.700   3.226 -0.2508  0.1021  0.2779
    92RH    C5510100   3.458  -0.662   3.096 -0.3645 -0.2071 -0.0229
    92RH     O210101   3.576  -0.636   3.067 -0.3733 -0.3384 -0.1774
    92RH     N610102   3.363  -0.707   3.002 -0.5184 -0.1776  0.1165
    92RH    C5610103   3.235  -0.733   3.045 -0.4936 -0.0275  0.2832
    92RH    C5710104   3.392  -0.696   2.858  0.0551  0.1516  0.0018
    92RH    C5810105   3.340  -0.568   2.793 -0.3288  0.7375 -0.0286
    92RH     S810106   3.105  -0.788   2.954 -0.6531  0.0380  0.4708
    72IDQ   C5910107   2.883  -0.430   4.119 -0.0099 -0.4436 -0.4441
    72IDQ   C6010108   2.793  -0.525   4.047  0.0932 -0.0148 -0.2087
    72IDQ   C6110109   2.787  -0.667   4.103  0.1154  0.6742 -0.2741
    72IDQ   C6210110   2.907  -0.760   4.084  0.8181  0.7650  0.1545
    72IDQ   C6310111   2.875  -0.893   4.151  0.1403 -0.0691 -0.1412
    72IDQ   C6410112   2.936  -0.921   4.288  0.4941 -0.8011 -0.8000
    72IDQ   C6510113   2.848  -1.018   4.374 -0.0743 -0.0219  0.4896
    72IDQ   C6610114   2.919   0.012   4.012 -0.0341 -0.5241  0.2613
    72IDQ   C6710115   2.890   0.118   3.895 -0.7645  0.4238  0.1951
    72IDQ   C6810116   2.812   0.245   3.916 -0.6548  0.2012 -0.8900
    72IDQ   C6910117   2.667   0.222   3.960 -0.3849 -0.1037  0.4018
    72IDQ   C7010118   2.600   0.350   4.001  0.0990  0.5562 -0.4700
    72IDQ   C7110119   2.465   0.325   4.054  0.5172  0.3778  0.0362
    72IDQ   C7210120   2.407   0.431   4.148 -0.0740 -0.3376  0.3415
    11RH     C110121   0.251   2.736   1.469 -0.2488  0.2111  0.0072
    11RH     C210122   0.235   2.836   1.577 -0.0834  0.2362  0.0087
    11RH     N110123   0.388   2.711   1.442 -0.2897  0.0045 -0.0098
    11RH     S110124   0.401   2.891   1.635  0.0078 -0.0133 -0.0123
    11RH     C310125   0.483   2.779   1.514 -0.1771 -0.1388 -0.0221
    11RH     C410126   0.431   2.632   1.327  0.7032  0.2520 -0.1527
    11RH     S210127   0.650   2.767   1.501 -0.1954 -0.3929 -0.0430
    11RH     O110128   0.159   2.679   1.409 -0.3423  0.3508  0.0191
    11RH     C510129   0.117   2.878   1.622 -0.0152  0.4165  0.0234
    21BTZ    C610130   0.078   2.950   1.742 -0.1941  0.0596 -0.5994
    21BTZ    C710131   0.168   2.983   1.840 -0.0722 -0.0283 -0.6803
    21BTZ    C810132  -0.058   2.994   1.755 -0.1761  0.0581 -0.3965
    21BTZ    C910133   0.129   3.062   1.955  0.0725 -0.1214 -0.5667
    21BTZ   C1010134   0.000   3.107   1.971  0.0951 -0.1264 -0.3724
    21BTZ   C1110135  -0.097   3.074   1.872 -0.0291 -0.0365 -0.2810
    21BTZ    N210136  -0.154   2.968   1.667 -0.2862  0.1386 -0.3013
    21BTZ    N310137  -0.225   3.112   1.876 -0.0211 -0.0320 -0.0930
    21BTZ    S310138  -0.303   3.046   1.729 -0.2051  0.0960 -0.0549
    31IDT   C1210139  -0.029   3.177   2.100 -0.1217  0.7458 -0.1564
    31IDT   C1310140  -0.136   3.254   2.137  0.1073  0.8706  0.2554
    31IDT   C1410141  -0.125   3.303   2.271  0.4711  0.5020  0.3648
    31IDT   C1510142  -0.011   3.263   2.337  0.5217  0.0949  0.0381
    31IDT    S410143   0.094   3.160   2.233  0.1087  0.1472 -0.4379
    4IDB    C1610144  -0.003   3.319   2.464  0.1828  0.3323 -0.2592
    4IDB    C1710145  -0.122   3.394   2.491  0.1725  0.3592 -0.3774
    51IDQ   C1810146  -0.207   3.398   2.363  0.2735 -0.5586  0.2263
    4IDB    C1910147  -0.142   3.455   2.614 -0.0205  0.2046 -0.3309
    51IDQ   C2010148  -0.354   3.352   2.404  0.4113 -0.2045 -0.1400
    51IDQ   C2110149  -0.219   3.536   2.282 -0.2503  0.6739 -0.7424
    51IDQ   C2210150  -0.129   3.655   2.307  0.3778  0.3237  0.8590
    51IDQ   C2310151  -0.423   3.215   2.363 -0.1386 -0.1192 -0.4379
    51IDQ   C2410152   0.015   3.635   2.245  0.4983  0.3728  0.3391
    51IDQ   C2510153   0.028   3.596   2.096 -0.8056 -0.4863 -0.1650
    51IDQ   C2610154   0.168   3.567   2.041 -0.4769  0.1785  0.5992
    51IDQ   C2710155   0.167   3.539   1.887 -0.3988 -0.3144 -0.1918
    51IDQ   C2810156   0.300   3.504   1.826 -0.3569 -0.1278 -0.2215
    51IDQ   C2910157   0.291   3.450   1.686  0.6100  0.3265 -0.0480
    51IDQ   C3010158  -0.573   3.209   2.398 -0.3569 -0.3990  0.7157
    51IDQ   C3110159  -0.654   3.085   2.385 -0.3374  0.9627 -0.6898
    51IDQ   C3210160  -0.787   3.107   2.332 -0.5437 -0.0272  0.1741
    51IDQ   C3310161  -0.887   2.996   2.355  0.4926  0.3075  0.5452
    51IDQ   C3410162  -1.027   3.015   2.298 -0.3727 -0.1907  0.1522
    51IDQ   C3510163  -1.026   2.990   2.147 -0.2620 -0.0194 -0.2054
    4IDB    C3610164   0.097   3.305   2.561 -0.0013  0.1494 -0.0929
    4IDB    C3710165   0.075   3.368   2.686 -0.1971 -0.0070 -0.0477
    11RH    C3810166   0.441   2.706   1.194  0.1965 -0.0643 -0.4596
    4IDB    C3910167  -0.041   3.441   2.711 -0.2045  0.0216 -0.1646
    62IDT   C4010168  -0.050   3.469   2.851  0.1915 -0.1617 -0.4129
    72IDQ   C4110169   0.169   3.375   2.808 -0.5959 -0.3333  0.0312
    62IDT   C4210170   0.070   3.431   2.907  0.1917  0.0095 -0.2954
    72IDQ   C4310171   0.287   3.471   2.788  0.1687 -0.5513  0.3800
    72IDQ   C4410172   0.218   3.228   2.853  0.2446 -1.0225 -0.3336
    62IDT    S510173  -0.167   3.526   2.975  0.0957 -0.0408 -0.5582
    62IDT   C4510174  -0.041   3.493   3.103  0.0593  0.2490 -0.4471
    62IDT   C4610175   0.075   3.444   3.049  0.1169  0.2419 -0.3147
    82BTZ   C4710176  -0.074   3.521   3.245  0.0006  0.0224 -0.2367
    82BTZ   C4810177  -0.186   3.596   3.272  0.0641  0.1615 -0.3558
    82BTZ   C4910178  -0.224   3.628   3.408  0.0792  0.3917 -0.4053
    82BTZ   C5010179  -0.150   3.585   3.515  0.0305  0.4822 -0.3358
    82BTZ   C5110180   0.006   3.474   3.354 -0.0519  0.1093 -0.1602
    82BTZ   C5210181  -0.033   3.506   3.491 -0.0367  0.3431 -0.2106
    92RH    C5310182  -0.197   3.611   3.653 -0.2372 -0.0301 -0.3230
    82BTZ    N410183   0.116   3.400   3.339 -0.1158 -0.0098 -0.0429
    82BTZ    N510184   0.047   3.459   3.588 -0.0882  0.4120 -0.1338
    82BTZ    S610185   0.177   3.369   3.505 -0.1599  0.1759  0.0091
    92RH    C5410186  -0.303   3.666   3.714 -0.1074 -0.0745 -0.0559
    92RH     S710187  -0.458   3.722   3.635 -0.2793 -0.0177  0.3187
    92RH    C5510188  -0.309   3.689   3.860  0.2068 -0.1800 -0.0228
    92RH     O210189  -0.220   3.662   3.942  0.3836 -0.2388 -0.2338
    92RH     N610190  -0.432   3.748   3.898  0.2852 -0.2072  0.2840
    92RH    C5610191  -0.525   3.775   3.799  0.0721 -0.1362  0.5009
    92RH    C5710192  -0.461   3.777   4.041 -0.6183 -0.4973  0.5771
    92RH    C5810193  -0.401   3.910   4.082  0.2982  0.4324  0.1208
    92RH     S810194  -0.677   3.844   3.817  0.1076 -0.1492  0.8793
    72IDQ   C5910195   0.351   3.200   2.927 -0.2994  1.0221  0.1480
    72IDQ   C6010196   0.353   3.252   3.068 -0.0817  0.1593 -0.2859
    72IDQ   C6110197   0.478   3.214   3.147 -0.1158  0.1851 -0.0238
    72IDQ   C6210198   0.483   3.278   3.285 -0.4333 -0.6637  0.2155
    72IDQ   C6310199   0.624   3.276   3.350  0.1938  0.3241  0.6742
    72IDQ   C6410200   0.638   3.365   3.466 -0.2418 -0.0333  0.5473
    72IDQ   C6510201   0.769   3.339   3.524  0.4947 -0.1517 -0.8511
    72IDQ   C6610202   0.366   3.497   2.658  0.1441  0.3978  0.1770
    72IDQ   C6710203   0.294   3.602   2.581 -0.1532  0.2225  0.6321
    72IDQ   C6810204   0.370   3.651   2.453  0.2089 -0.0121 -0.1455
    72IDQ   C6910205   0.416   3.545   2.355  0.2663 -0.2511  0.2894
    72IDQ   C7010206   0.475   3.612   2.240 -0.7081  0.5341  0.3597
    72IDQ   C7110207   0.550   3.514   2.151 -0.6718  0.0617 -0.1436
    72IDQ   C7210208   0.616   3.595   2.036 -0.2142 -0.1692 -0.3732
    11RH     C110209   0.183   5.105   1.628 -0.1588 -0.1053  0.0414
    11RH     C210210   0.325   5.142   1.647 -0.1600 -0.0757 -0.0054
    11RH     N110211   0.097   5.189   1.702 -0.1577 -0.0553 -0.0136
    11RH     S110212   0.337   5.284   1.763 -0.1596  0.0162 -0.1187
    11RH     C310213   0.153   5.289   1.779 -0.1579  0.0108 -0.0987
    11RH     C410214  -0.050   5.171   1.688  0.1496 -0.0609 -0.4242
    11RH     S210215   0.074   5.401   1.876 -0.1568  0.0798 -0.1770
    11RH     O110216   0.141   5.013   1.556 -0.1588 -0.1661  0.1190
    11RH     C510217   0.427   5.078   1.588 -0.1611 -0.1119  0.0318
    21BTZ    C610218   0.573   5.096   1.601 -0.2959  0.0049  0.1882
    21BTZ    C710219   0.630   5.191   1.681 -0.3443 -0.0548  0.2943
    21BTZ    C810220   0.659   5.010   1.524 -0.2507  0.0970  0.1359
    21BTZ    C910221   0.773   5.207   1.690 -0.3508 -0.0273  0.3539
    21BTZ   C1010222   0.859   5.128   1.618 -0.3089  0.0602  0.3073
    21BTZ   C1110223   0.804   5.027   1.533 -0.2574  0.1252  0.1965
    21BTZ    N210224   0.615   4.914   1.442 -0.2015  0.1616  0.0330
    21BTZ    N310225   0.877   4.944   1.458 -0.2135  0.2123  0.1423
    21BTZ    S310226   0.761   4.839   1.371 -0.1608  0.2629  0.0088
    31IDT   C1210227   1.008   5.165   1.626  0.3092  0.3164 -0.4702
    31IDT   C1310228   1.113   5.126   1.547  0.5826  0.5327 -0.2160
    31IDT   C1410229   1.237   5.181   1.590  0.4049  0.5960  0.2351
    31IDT   C1510230   1.228   5.263   1.700 -0.0042  0.4288  0.3275
    31IDT    S410231   1.059   5.276   1.760 -0.1978  0.1761 -0.1540
    4IDB    C1610232   1.358   5.319   1.735  0.0209  0.3239 -0.0757
    4IDB    C1710233   1.451   5.288   1.630  0.0815  0.3198 -0.0208
    51IDQ   C1810234   1.386   5.176   1.545  0.5527 -0.2141  0.1404
    4IDB    C1910235   1.578   5.343   1.629  0.1765  0.1134  0.1959
    51IDQ   C2010236   1.399   5.220   1.397 -0.1094 -0.1379  0.0802
    51IDQ   C2110237   1.440   5.023   1.555  0.4065 -0.2068 -0.7113
    51IDQ   C2210238   1.545   4.982   1.654 -0.1738  0.0861  0.2048
    51IDQ   C2310239   1.298   5.306   1.320 -0.6039  0.3976  0.1638
    51IDQ   C2410240   1.495   4.981   1.798  0.3933  0.2867 -0.4039
    51IDQ   C2510241   1.601   4.972   1.908 -1.1256 -0.9802  0.1402
    51IDQ   C2610242   1.541   4.997   2.047 -0.0342 -0.4837 -0.4509
    51IDQ   C2710243   1.474   5.135   2.071  0.5870 -0.0571  0.3600
    51IDQ   C2810244   1.413   5.153   2.206  0.3380 -0.4682 -0.2796
    51IDQ   C2910245   1.331   5.285   2.212 -0.1365  0.2191 -0.9279
    51IDQ   C3010246   1.354   5.353   1.187 -0.4505  0.2748  0.1923
    51IDQ   C3110247   1.253   5.428   1.105  0.7227  0.1739 -0.0451
    51IDQ   C3210248   1.275   5.448   0.955  0.0163 -0.4010  0.2967
    51IDQ   C3310249   1.401   5.528   0.911 -0.2391 -0.1796  0.4787
    51IDQ   C3410250   1.448   5.660   0.978  0.0358 -0.5388 -0.2166
    51IDQ   C3510251   1.347   5.774   0.979  0.1979 -0.0255  0.0787
    4IDB    C3610252   1.393   5.407   1.838  0.0554  0.1202  0.0869
    4IDB    C3710253   1.523   5.463   1.835  0.1527 -0.0892  0.3075
    11RH    C3810254  -0.106   5.258   1.578 -0.3074  0.0994  0.1476
    4IDB    C3910255   1.613   5.431   1.733  0.2110 -0.0905  0.3585
    62IDT   C4010256   1.723   5.516   1.736 -0.0958 -0.3646 -0.0542
    72IDQ   C4110257   1.587   5.568   1.932  0.1005  0.1867  0.7452
    62IDT   C4210258   1.714   5.597   1.848 -0.4748 -0.2193 -0.1866
    72IDQ   C4310259   1.620   5.500   2.071 -0.0813 -0.4376  0.0692
    72IDQ   C4410260   1.495   5.691   1.957 -0.1667 -0.5671  0.2275
    62IDT    S510261   1.868   5.556   1.637  0.1606 -0.3934  0.3040
    62IDT   C4510262   1.910   5.685   1.757 -0.2795 -0.1982  0.2534
    62IDT   C4610263   1.820   5.692   1.860 -0.5791 -0.1252 -0.0128
    82BTZ   C4710264   2.035   5.772   1.735 -0.1060 -0.0215 -0.0624
    82BTZ   C4810265   2.090   5.769   1.609 -0.1382 -0.0516 -0.0760
    82BTZ   C4910266   2.205   5.850   1.575 -0.1276 -0.0833 -0.1157
    82BTZ   C5010267   2.264   5.934   1.666 -0.0849 -0.0848 -0.1418
    82BTZ   C5110268   2.093   5.858   1.833 -0.0607 -0.0218 -0.0885
    82BTZ   C5210269   2.209   5.940   1.799 -0.0500 -0.0540 -0.1289
    92RH    C5310270   2.382   6.020   1.643 -0.1333  0.3306 -0.1237
    82BTZ    N410271   2.047   5.870   1.959 -0.0265  0.0056 -0.0788
    82BTZ    N510272   2.257   6.018   1.896 -0.0070 -0.0525 -0.1515
    82BTZ    S610273   2.154   5.989   2.039  0.0220 -0.0086 -0.1216
    92RH    C5410274   2.460   6.038   1.535 -0.1183  0.3000 -0.1178
    92RH     S710275   2.465   5.932   1.385  0.0315  0.1528 -0.0102
    92RH    C5510276   2.557   6.149   1.522 -0.2249  0.3836 -0.2007
    92RH     O210277   2.578   6.237   1.606 -0.3384  0.4900 -0.2836
    92RH     N610278   2.626   6.142   1.398 -0.1819  0.3274 -0.1739
    92RH    C5610279   2.595   6.040   1.312 -0.0538  0.2091 -0.0798
    92RH    C5710280   2.729   6.246   1.366  0.4406 -0.1420  0.0730
    92RH    C5810281   2.687   6.370   1.282  0.3953  0.4010  0.5529
    92RH     S810282   2.662   6.010   1.160  0.0214  0.1221 -0.0298
    72IDQ   C5910283   1.504   5.825   1.878 -0.1661 -0.5299  0.3360
    72IDQ   C6010284   1.419   5.939   1.940 -0.2614  0.3019  0.0552
    72IDQ   C6110285   1.417   6.074   1.868  0.6858  0.0644 -0.4128
    72IDQ   C6210286   1.397   6.068   1.717 -0.0158 -0.5796 -0.1612
    72IDQ   C6310287   1.356   6.208   1.661  0.1383  0.4024 -0.1270
    72IDQ   C6410288   1.333   6.218   1.512  0.5740 -0.0540  0.1176
    72IDQ   C6510289   1.254   6.343   1.480  0.2121  0.3874  0.3354
    72IDQ   C6610290   1.727   5.573   2.151 -0.1470  0.0368 -0.4056
    72IDQ   C6710291   1.781   5.482   2.260 -0.6786  0.6551  0.5102
    72IDQ   C6810292   1.882   5.553   2.348  0.2953 -0.9063 -0.1541
    72IDQ   C6910293   1.967   5.472   2.449  0.6177  0.4053  0.7549
    72IDQ   C7010294   2.064   5.368   2.385 -0.1195 -0.7938 -0.2858
    72IDQ   C7110295   2.102   5.263   2.486 -0.6675  0.0270 -0.1079
    72IDQ   C7210296   2.176   5.150   2.423  0.3019 -0.1093  0.4406
    11RH     C110297   5.099   3.519   1.944 -0.1649  0.2509 -0.1299
    11RH     C210298   5.018   3.400   1.980  0.0939  0.0648 -0.1608
    11RH     N110299   5.041   3.590   1.836 -0.3619  0.1995 -0.0588
    11RH     S110300   4.872   3.389   1.870  0.0611 -0.1657 -0.0942
    11RH     C310301   4.924   3.542   1.782 -0.2928 -0.0051 -0.0288
    11RH     C410302   5.117   3.697   1.771 -0.1349  0.1672 -0.4892
    11RH     S210303   4.835   3.607   1.654 -0.4885 -0.1066  0.0543
    11RH     O110304   5.204   3.555   2.000 -0.2086  0.4308 -0.1614
    11RH     C510305   5.051   3.316   2.079  0.3136  0.0708 -0.2273
    21BTZ    C610306   4.995   3.185   2.124  0.4270  0.0516 -0.0946
    21BTZ    C710307   4.892   3.116   2.066  0.3810  0.1848 -0.1724
    21BTZ    C810308   5.051   3.134   2.246  0.1988  0.0346  0.0055
    21BTZ    C910309   4.840   2.994   2.124  0.1104  0.3073 -0.1557
    21BTZ   C1010310   4.891   2.942   2.240 -0.1137  0.2963 -0.0614
    21BTZ   C1110311   4.998   3.011   2.305 -0.0762  0.1591  0.0224
    21BTZ    N210312   5.152   3.192   2.312  0.2178 -0.0896  0.0873
    21BTZ    N310313   5.056   2.970   2.418 -0.2785  0.1350  0.1177
    21BTZ    S310314   5.183   3.090   2.455 -0.1225 -0.0518  0.1914
    31IDT   C1210315   4.831   2.821   2.295  0.2911 -0.3589  0.1892
    31IDT   C1310316   4.864   2.690   2.268  0.4855 -0.3398  0.3313
    31IDT   C1410317   4.783   2.597   2.340  0.4854 -0.3839  0.2742
    31IDT   C1510318   4.688   2.655   2.422  0.2916 -0.4366  0.0886
    31IDT    S410319   4.694   2.835   2.414  0.0920 -0.4347 -0.0292
    4IDB    C1610320   4.614   2.552   2.495 -0.1099 -0.0163 -0.0321
    4IDB    C1710321   4.653   2.425   2.444  0.0992 -0.0396  0.1833
    51IDQ   C1810322   4.773   2.446   2.346  0.3137  1.1732  0.2214
    4IDB    C1910323   4.595   2.308   2.492  0.0270 -0.0287  0.1239
    51IDQ   C2010324   4.905   2.378   2.401  0.7164 -0.1527 -0.1753
    51IDQ   C2110325   4.746   2.382   2.200 -0.2529 -0.1220 -0.3326
    51IDQ   C2210326   4.609   2.338   2.140 -0.5096  0.3444 -0.6685
    51IDQ   C2310327   5.020   2.453   2.448 -0.0745 -0.3574  0.0727
    51IDQ   C2410328   4.511   2.450   2.109 -0.0703  0.2147 -0.3818
    51IDQ   C2510329   4.375   2.400   2.056  0.0431  0.3633 -0.4455
    51IDQ   C2610330   4.292   2.507   1.993 -0.3172 -0.3785 -0.0160
    51IDQ   C2710331   4.181   2.447   1.905  0.0638  0.2686 -0.4130
    51IDQ   C2810332   4.069   2.358   1.968  0.1220 -0.1988  0.2400
    51IDQ   C2910333   3.948   2.331   1.880  0.7036  0.2511 -0.3301
    51IDQ   C3010334   5.113   2.352   2.515 -0.4089  0.1348  0.4961
    51IDQ   C3110335   5.240   2.428   2.556  0.5042 -0.7985 -0.4127
    51IDQ   C3210336   5.348   2.340   2.619  0.2304 -0.6163  1.0374
    51IDQ   C3310337   5.477   2.399   2.670 -0.0229 -0.0269 -0.8185
    51IDQ   C3410338   5.567   2.464   2.570 -0.4278 -0.7082 -0.2022
    51IDQ   C3510339   5.702   2.500   2.632 -0.0180 -0.2814  0.5450
    4IDB    C3610340   4.517   2.564   2.595 -0.3942  0.0185 -0.3101
    4IDB    C3710341   4.459   2.443   2.643 -0.4641  0.0292 -0.3669
    11RH    C3810342   5.115   3.838   1.836  0.0454 -0.3593 -0.2016
    4IDB    C3910343   4.498   2.319   2.593 -0.2572  0.0061 -0.1541
    62IDT   C4010344   4.436   2.212   2.671  0.2292  0.1770  0.1436
    72IDQ   C4110345   4.351   2.421   2.757 -0.3397  0.3004  0.0848
    62IDT   C4210346   4.353   2.269   2.765  0.5776  0.2380  0.4170
    72IDQ   C4310347   4.208   2.490   2.734  0.4229  0.4132 -0.2508
    72IDQ   C4410348   4.408   2.467   2.900  0.4477 -0.4105 -0.1827
    62IDT    S510349   4.431   2.033   2.675 -0.2110  0.1785 -0.1329
    62IDT   C4510350   4.312   2.044   2.812  0.1148  0.2660  0.1495
    62IDT   C4610351   4.283   2.173   2.845  0.5133  0.2884  0.4206
    82BTZ   C4710352   4.261   1.924   2.882  0.3126 -0.1788  0.2524
    82BTZ   C4810353   4.290   1.804   2.823  0.1768 -0.1771  0.1822
    82BTZ   C4910354   4.258   1.679   2.886 -0.0780 -0.1792  0.0534
    82BTZ   C5010355   4.198   1.673   3.009 -0.1966 -0.1830 -0.0050
    82BTZ   C5110356   4.197   1.924   3.011  0.1968 -0.1828  0.1957
    82BTZ   C5210357   4.165   1.796   3.075 -0.0622 -0.1849  0.0647
    92RH    C5310358   4.165   1.551   3.074 -0.3728 -0.2809 -0.0043
    82BTZ    N410359   4.164   2.034   3.079  0.3098 -0.1848  0.2543
    82BTZ    N510360   4.106   1.804   3.195 -0.1575 -0.1886  0.0182
    82BTZ    S610361   4.089   1.978   3.231  0.0850 -0.1895  0.1424
    92RH    C5410362   4.192   1.422   3.048 -0.1889 -0.2536  0.0455
    92RH     S710363   4.320   1.357   2.935  0.1441 -0.1209  0.3420
    92RH    C5510364   4.118   1.309   3.111 -0.2292 -0.3296 -0.1387
    92RH     O210365   4.025   1.320   3.192 -0.4336 -0.4257 -0.3567
    92RH     N610366   4.167   1.185   3.066 -0.0028 -0.2793 -0.0360
    92RH    C5610367   4.271   1.184   2.975  0.2139 -0.1722  0.2080
    92RH    C5710368   4.118   1.065   3.133 -0.5409  0.1462 -0.1261
    92RH    C5810369   4.005   0.984   3.063 -0.2073  0.2233 -0.0540
    92RH     S810370   4.346   1.050   2.906  0.5059 -0.0940  0.3735
    72IDQ   C5910371   4.427   2.615   2.933  0.1552 -0.8989 -0.0375
    72IDQ   C6010372   4.535   2.610   3.035 -0.6598 -0.2447 -0.3506
    72IDQ   C6110373   4.567   2.742   3.122  0.2824 -0.3402  0.1284
    72IDQ   C6210374   4.587   2.876   3.050 -0.4968  0.0354  0.8851
    72IDQ   C6310375   4.698   2.880   2.951  0.3906 -0.6473 -0.4646
    72IDQ   C6410376   4.695   2.992   2.846  0.0508 -0.3938 -0.2289
    72IDQ   C6510377   4.813   2.965   2.750  0.2746  0.9876  0.1842
    72IDQ   C6610378   4.107   2.415   2.640  0.4903  0.2394 -0.1409
    72IDQ   C6710379   4.146   2.395   2.493 -0.0952  0.1467  0.1012
    72IDQ   C6810380   4.037   2.348   2.397 -0.2042 -0.2916 -0.0747
    72IDQ   C6910381   3.928   2.451   2.367 -0.3580  0.3387 -0.3146
    72IDQ   C7010382   3.824   2.401   2.262  0.2152 -0.6337 -0.8623
    72IDQ   C7110383   3.733   2.523   2.231 -0.3958 -0.3898 -0.2128
    72IDQ   C7210384   3.630   2.504   2.122  0.0932  0.8686  0.6055
    11RH     C110385   3.337   5.369   2.455 -0.1145 -0.1922 -0.1450
    11RH     C210386   3.480   5.404   2.440 -0.1513 -0.0437 -0.1498
    11RH     N110387   3.319   5.229   2.462  0.0354 -0.2096 -0.0952
    11RH     S110388   3.581   5.251   2.435  0.0136  0.0631 -0.0884
    11RH     C310389   3.430   5.148   2.454  0.1231 -0.0932 -0.0595
    11RH     C410390   3.187   5.170   2.490  0.6698  0.4660  0.1326
    11RH     S210391   3.435   4.980   2.459  0.3039 -0.0856  0.0020
    11RH     O110392   3.243   5.450   2.462 -0.2019 -0.2906 -0.1796
    11RH     C510393   3.524   5.530   2.431 -0.2860  0.0010 -0.1929
    21BTZ    C610394   3.648   5.600   2.401 -0.3230  0.0434  0.1790
    21BTZ    C710395   3.767   5.544   2.364 -0.3544 -0.0328  0.1935
    21BTZ    C810396   3.634   5.743   2.395 -0.2871  0.0399  0.0134
    21BTZ    C910397   3.879   5.624   2.320 -0.3524 -0.1153  0.0468
    21BTZ   C1010398   3.871   5.761   2.313 -0.3188 -0.1218 -0.1139
    21BTZ   C1110399   3.748   5.825   2.350 -0.2851 -0.0440 -0.1356
    21BTZ    N210400   3.523   5.810   2.427 -0.2546  0.1093 -0.0169
    21BTZ    N310401   3.728   5.957   2.347 -0.2509 -0.0420 -0.2857
    21BTZ    S310402   3.560   5.983   2.402 -0.2191  0.0697 -0.2418
    31IDT   C1210403   3.983   5.838   2.260  0.3834  0.0992  0.1755
    31IDT   C1310404   4.037   5.948   2.322  0.5829  0.1229 -0.0365
    31IDT   C1410405   4.155   5.996   2.258  0.5101 -0.0423 -0.2968
    31IDT   C1510406   4.192   5.923   2.147  0.2552 -0.1932 -0.2849
    31IDT    S410407   4.079   5.787   2.115  0.0860 -0.1365  0.0599
    4IDB    C1610408   4.312   5.990   2.090  0.0956 -0.0410  0.2289
    4IDB    C1710409   4.350   6.096   2.178 -0.1137  0.2143  0.0162
    51IDQ   C1810410   4.250   6.112   2.288  0.8928 -0.1834 -0.3530
    4IDB    C1910411   4.462   6.173   2.152 -0.1873  0.2954 -0.0651
    51IDQ   C2010412   4.342   6.102   2.421 -0.1383  0.4449  0.4636
    51IDQ   C2110413   4.167   6.245   2.291  0.1920 -0.4622 -0.0540
    51IDQ   C2210414   4.167   6.356   2.180 -0.2633  0.6752 -0.2019
    51IDQ   C2310415   4.348   5.974   2.508 -0.2171  0.3575  0.1720
    51IDQ   C2410416   4.103   6.485   2.216  0.6232 -0.2906 -0.2340
    51IDQ   C2510417   3.950   6.501   2.202 -0.3847  0.7864 -0.9293
    51IDQ   C2610418   3.905   6.646   2.208  0.0505  0.4520  0.4283
    51IDQ   C2710419   3.756   6.656   2.251 -0.2211 -0.2348 -0.0971
    51IDQ   C2810420   3.709   6.793   2.283  0.5577 -0.3355  0.1910
    51IDQ   C2910421   3.562   6.806   2.321 -0.1023 -0.0591  0.1810
    51IDQ   C3010422   4.401   5.838   2.460 -0.4195 -0.7929 -0.0028
    51IDQ   C3110423   4.540   5.836   2.403  0.1748  0.4202  0.1152
    51IDQ   C3210424   4.655   5.822   2.498 -0.0968 -0.4338 -0.4211
    51IDQ   C3310425   4.793   5.848   2.442  0.1040  0.2435  0.2808
    51IDQ   C3410426   4.841   5.743   2.339  0.1640 -0.1487 -0.8226
    51IDQ   C3510427   4.987   5.731   2.299  0.2403  0.4411  0.7318
    4IDB    C3610428   4.387   5.961   1.975  0.2335 -0.2178  0.3623
    4IDB    C3710429   4.502   6.041   1.950  0.1556 -0.1317  0.2766
    11RH    C3810430   3.154   5.146   2.646 -0.4972  0.0623  0.5653
    4IDB    C3910431   4.538   6.144   2.037 -0.0495  0.1185  0.0685
    62IDT   C4010432   4.637   6.228   1.977 -0.3237  0.4521  0.3967
    72IDQ   C4110433   4.609   6.027   1.836 -0.2359 -0.2484 -0.4636
    62IDT   C4210434   4.682   6.165   1.863 -1.0465  0.0306  0.3264
    72IDQ   C4310435   4.550   6.006   1.696  0.2281 -0.3021  0.9739
    72IDQ   C4410436   4.716   5.927   1.879 -0.0147  0.0421  0.4148
    62IDT    S510437   4.722   6.383   2.007  0.5951  0.0663 -0.1396
    62IDT   C4510438   4.820   6.353   1.857 -0.0793 -0.6806 -0.4456
    62IDT   C4610439   4.786   6.236   1.795 -0.9094 -0.6102 -0.1499
    82BTZ   C4710440   4.930   6.448   1.826  0.1876 -0.1825  0.3954
    82BTZ   C4810441   4.930   6.567   1.893  0.2171 -0.1622  0.3601
    82BTZ   C4910442   5.037   6.663   1.879  0.1736 -0.1324  0.2254
    82BTZ   C5010443   5.144   6.639   1.798  0.1003 -0.1228  0.1261
    82BTZ   C5110444   5.040   6.419   1.739  0.1112 -0.1734  0.2950
    82BTZ   C5210445   5.149   6.516   1.725  0.0669 -0.1432  0.1580
    92RH    C5310446   5.240   6.745   1.764 -0.0167  0.1300 -0.2699
    82BTZ    N410447   5.052   6.306   1.668  0.0765 -0.1911  0.3171
    82BTZ    N510448   5.249   6.482   1.642 -0.0037 -0.1365  0.0700
    82BTZ    S610449   5.206   6.320   1.578 -0.0167 -0.1694  0.1604
    92RH    C5410450   5.258   6.874   1.794 -0.0619  0.1102 -0.1587
    92RH     S710451   5.142   6.982   1.887 -0.1590  0.0252 -0.1803
    92RH    C5510452   5.379   6.951   1.756 -0.0391  0.1559  0.0044
    92RH     O210453   5.476   6.906   1.693  0.0232  0.2167  0.0566
    92RH     N610454   5.371   7.084   1.801 -0.0977  0.1216  0.0965
    92RH    C5610455   5.259   7.124   1.871 -0.1649  0.0541  0.0272
    92RH    C5710456   5.482   7.180   1.766  0.4766 -0.7885 -0.6261
    92RH    C5810457   5.584   7.209   1.879 -0.1962 -0.1216 -0.2468
    92RH     S810458   5.225   7.276   1.935 -0.2429  0.0020  0.1103
    72IDQ   C5910459   4.700   5.774   1.873  0.2449 -0.3801  0.2273
    72IDQ   C6010460   4.631   5.720   1.998  0.5120 -0.7937  0.1702
    72IDQ   C6110461   4.630   5.567   2.023  0.0096 -0.0606  0.1541
    72IDQ   C6210462   4.555   5.509   2.149 -0.0636 -0.3754 -0.0602
    72IDQ   C6310463   4.401   5.521   2.163 -1.0384  0.1011  0.4854
    72IDQ   C6410464   4.367   5.461   2.298 -0.0266  0.5123 -0.3583
    72IDQ   C6510465   4.217   5.474   2.327 -0.9828 -0.1009  0.1500
    72IDQ   C6610466   4.439   6.104   1.645 -0.1301  0.1736 -0.6414
    72IDQ   C6710467   4.389   6.070   1.507 -0.0708 -0.7152  0.6821
    72IDQ   C6810468   4.314   5.943   1.479 -0.1560 -0.6841 -0.5933
    72IDQ   C6910469   4.253   5.942   1.339 -0.1546 -0.2915  0.4175
    72IDQ   C7010470   4.204   5.798   1.308  0.4540 -0.0085  0.2976
    72IDQ   C7110471   4.152   5.778   1.168  0.2421  0.3911  0.3370
    72IDQ   C7210472   4.109   5.638   1.128  0.0747  0.0926 -0.5482
    11RH     C110473   3.524   2.938   3.088  0.0373 -0.1199 -0.4137
    11RH     C210474   3.480   3.042   3.184  0.0538 -0.2549 -0.2606
    11RH     N110475   3.434   2.927   2.979 -0.0712 -0.0870 -0.3274
    11RH     S110476   3.323   3.118   3.127 -0.0744 -0.3297 -0.0131
    11RH     C310477   3.323   3.009   2.978 -0.1436 -0.1791 -0.1239
    11RH     C410478   3.455   2.824   2.870 -0.1764  0.1284  0.5699
    11RH     S210479   3.201   3.015   2.861 -0.2764 -0.1645  0.0150
    11RH     O110480   3.626   2.869   3.098  0.1082 -0.0435 -0.5956
    11RH     C510481   3.547   3.072   3.296  0.1492 -0.3102 -0.3029
    21BTZ    C610482   3.518   3.162   3.409 -0.0515 -0.2098 -0.2700
    21BTZ    C710483   3.402   3.232   3.429  0.0225 -0.0682 -0.3275
    21BTZ    C810484   3.617   3.162   3.513 -0.0634 -0.2519 -0.2589
    21BTZ    C910485   3.377   3.304   3.552  0.0882  0.0384 -0.3767
    21BTZ   C1010486   3.469   3.306   3.654  0.0798  0.0032 -0.3683
    21BTZ   C1110487   3.592   3.235   3.637  0.0034 -0.1435 -0.3089
    21BTZ    N210488   3.734   3.098   3.504 -0.1325 -0.3864 -0.2050
    21BTZ    N310489   3.689   3.230   3.729 -0.0122 -0.1909 -0.2950
    21BTZ    S310490   3.819   3.129   3.659 -0.1149 -0.3800 -0.2159
    31IDT   C1210491   3.432   3.370   3.786 -0.3239 -0.2684  0.4693
    31IDT   C1310492   3.462   3.318   3.909 -0.3046 -0.3036  0.4498
    31IDT   C1410493   3.404   3.393   4.016 -0.0229 -0.1493  0.4947
    31IDT   C1510494   3.331   3.502   3.976  0.1739  0.0041  0.5485
    31IDT    S410495   3.328   3.519   3.797  0.0162 -0.0353  0.5466
    4IDB    C1610496   3.279   3.575   4.092  0.2708  0.2013 -0.0581
    4IDB    C1710497   3.321   3.505   4.209  0.6250  0.3325 -0.1038
    51IDQ   C1810498   3.408   3.383   4.168 -1.0025  0.0305  0.2215
    4IDB    C1910499   3.289   3.554   4.336  0.3815  0.0929 -0.0714
    51IDQ   C2010500   3.552   3.385   4.238  0.0253  1.1741 -0.2076
    51IDQ   C2110501   3.346   3.240   4.199 -0.3224 -0.5929  0.2151
    51IDQ   C2210502   3.213   3.226   4.279  0.1267  0.1299 -0.6588
    51IDQ   C2310503   3.693   3.386   4.175  0.0492  0.2866  0.2098
    51IDQ   C2410504   3.155   3.084   4.304  0.1913  0.3311  0.4149
    51IDQ   C2510505   3.032   3.100   4.384 -0.3775  0.5191  0.6462
    51IDQ   C2610506   2.983   2.959   4.424 -0.5667 -0.3509  0.8165
    51IDQ   C2710507   2.865   2.940   4.519  0.1208  0.4778 -0.1465
    51IDQ   C2810508   2.902   3.000   4.654  0.1947  0.8410  0.6868
    51IDQ   C2910509   2.796   2.987   4.760 -0.7762 -0.5932 -0.0013
    51IDQ   C3010510   3.754   3.293   4.067  0.6243  0.7481 -0.1294
    51IDQ   C3110511   3.899   3.311   4.034 -0.1003 -0.2296 -0.3102
    51IDQ   C3210512   3.948   3.455   3.998 -0.2488  0.2230 -0.5429
    51IDQ   C3310513   3.903   3.514   3.863 -0.4132  0.3904  0.2919
    51IDQ   C3410514   3.967   3.651   3.837 -0.5340  0.4441  0.5479
    51IDQ   C3510515   3.953   3.717   3.696 -0.7487 -0.0636  0.4603
    4IDB    C3610516   3.205   3.693   4.099 -0.3328 -0.1728  0.0207
    4IDB    C3710517   3.173   3.741   4.229 -0.5740 -0.4135  0.0528
    11RH    C3810518   3.540   2.888   2.755 -0.1451  0.3161  0.0653
    4IDB    C3910519   3.215   3.673   4.344 -0.2221 -0.2811  0.0074
    62IDT   C4010520   3.161   3.745   4.460 -0.4978  0.3338 -0.1370
    72IDQ   C4110521   3.094   3.869   4.273  0.1142  0.5618  0.9291
    62IDT   C4210522   3.076   3.847   4.421 -0.3148  0.6565  0.2959
    72IDQ   C4310523   2.946   3.868   4.212 -0.0414 -0.0567  0.3724
    72IDQ   C4410524   3.173   4.006   4.252 -0.1132  0.2403  0.2899
    62IDT    S510525   3.151   3.713   4.636 -0.2078 -0.0797 -0.1935
    62IDT   C4510526   3.027   3.845   4.649  0.1638  0.2201  0.4003
    62IDT   C4610527   3.000   3.904   4.528  0.0595  0.5927  0.6005
    82BTZ   C4710528   2.953   3.856   4.782  0.0163  0.0908  0.4755
    82BTZ   C4810529   3.012   3.807   4.895 -0.1115  0.1541  0.5699
    82BTZ   C4910530   2.944   3.807   5.022 -0.3176  0.0737  0.4600
    82BTZ   C5010531   2.817   3.856   5.036 -0.3957 -0.0698  0.2559
    82BTZ   C5110532   2.820   3.908   4.791 -0.0585 -0.0592  0.2618
    82BTZ   C5210533   2.751   3.908   4.920 -0.2680 -0.1410  0.1501
    92RH    C5310534   2.743   3.871   5.161 -0.3901 -0.0984  0.0010
    82BTZ    N410535   2.752   3.959   4.687  0.0512 -0.1329  0.1529
    82BTZ    N510536   2.627   3.959   4.920 -0.3267 -0.2802 -0.0484
    82BTZ    S610537   2.593   4.010   4.752 -0.1121 -0.3136 -0.1022
    92RH    C5410538   2.768   3.860   5.292 -0.2604 -0.0166 -0.0161
    92RH     S710539   2.919   3.789   5.369 -0.0827  0.2447 -0.1204
    92RH    C5510540   2.674   3.904   5.397 -0.2409 -0.1299  0.0496
    92RH     O210541   2.563   3.956   5.377 -0.3401 -0.3101  0.1265
    92RH     N610542   2.725   3.880   5.526 -0.0928 -0.0066  0.0139
    92RH    C5610543   2.850   3.822   5.537  0.0088  0.1916 -0.0722
    92RH    C5710544   2.643   3.905   5.648  0.1650 -0.3945 -0.7541
    92RH    C5810545   2.681   4.043   5.703 -0.4668  0.2065 -0.2352
    92RH     S810546   2.933   3.783   5.678  0.1908  0.3689 -0.1302
    72IDQ   C5910547   3.257   4.042   4.132  0.5848  0.6875  0.1501
    72IDQ   C6010548   3.294   4.188   4.115 -0.0456  0.3432  0.7568
    72IDQ   C6110549   3.185   4.278   4.051  0.1960 -0.6533  0.0517
    72IDQ   C6210550   3.191   4.418   4.101 -0.6648 -0.7788 -0.0474
    72IDQ   C6310551   3.095   4.526   4.039  0.2967  0.7445 -0.4525
    72IDQ   C6410552   3.104   4.671   4.086  0.4925 -0.0945 -0.1536
    72IDQ   C6510553   3.214   4.752   4.006 -0.3394  0.5249 -0.1494
    72IDQ   C6610554   2.915   3.881   4.052 -0.2426  0.1201  0.3015
    72IDQ   C6710555   2.767   3.929   4.024  0.1347  0.2626  0.4951
    72IDQ   C6810556   2.750   4.080   4.027 -0.1287 -0.3871  0.0418
    72IDQ   C6910557   2.646   4.138   3.931 -0.1210  0.0866  0.2183
    72IDQ   C7010558   2.641   4.287   3.945  0.6596 -0.3180  0.2721
    72IDQ   C7110559   2.761   4.367   3.889 -0.1284 -0.0041 -0.5618
    72IDQ   C7210560   2.732   4.515   3.871  0.1747 -0.6076 -0.1697
    11RH     C110561   5.313   6.490   0.437 -0.3414 -0.1659 -0.0862
    11RH     C210562   5.435   6.561   0.392 -0.3854 -0.0205  0.0241
    11RH     N110563   5.334   6.350   0.441 -0.1497 -0.1353  0.0209
    11RH     S110564   5.569   6.440   0.358 -0.1717  0.1468  0.2616
    11RH     C310565   5.457   6.301   0.405 -0.0349  0.0167  0.2036
    11RH     C410566   5.223   6.261   0.481 -0.0110  0.0345 -0.0229
    11RH     S210567   5.507   6.140   0.401  0.1968  0.0840  0.3600
    11RH     O110568   5.206   6.543   0.468 -0.4555 -0.2990 -0.2519
    11RH     C510569   5.443   6.694   0.380 -0.5569 -0.0170 -0.0445
    21BTZ    C610570   5.546   6.790   0.332 -0.0194 -0.0730 -0.3354
    21BTZ    C710571   5.674   6.747   0.307 -0.0263 -0.0855 -0.3497
    21BTZ    C810572   5.512   6.925   0.302  0.0585 -0.0004 -0.1060
    21BTZ    C910573   5.774   6.834   0.251  0.0422 -0.0276 -0.1407
    21BTZ   C1010574   5.746   6.965   0.219  0.1178  0.0426  0.0822
    21BTZ   C1110575   5.613   7.014   0.244  0.1283  0.0584  0.1064
    21BTZ    N210576   5.391   6.979   0.322  0.0730  0.0185 -0.0693
    21BTZ    N310577   5.574   7.139   0.218  0.1988  0.1246  0.3138
    21BTZ    S310578   5.402   7.149   0.267  0.1786  0.1143  0.2448
    31IDT   C1210579   5.865   7.056   0.184  0.0670  0.1204  0.2674
    31IDT   C1310580   5.869   7.183   0.133  0.2054  0.0918  0.2048
    31IDT   C1410581   6.001   7.227   0.102  0.2153 -0.2333 -0.2382
    31IDT   C1510582   6.099   7.134   0.130  0.0849 -0.4542 -0.5156
    31IDT    S410583   6.031   6.982   0.197 -0.0619 -0.2659 -0.2347
    4IDB    C1610584   6.228   7.196   0.133  0.0031 -0.2425  0.2872
    4IDB    C1710585   6.211   7.337   0.113 -0.1379 -0.2160  0.5865
    51IDQ   C1810586   6.069   7.360   0.054 -0.2439  0.4560  0.6661
    4IDB    C1910587   6.316   7.425   0.132 -0.0897 -0.2069  0.2866
    51IDQ   C2010588   6.021   7.491   0.127 -0.3624  0.3395 -0.4421
    51IDQ   C2110589   6.068   7.375  -0.109  0.9793  0.0468  0.3944
    51IDQ   C2210590   6.200   7.389  -0.193  0.3048 -0.1486  0.6137
    51IDQ   C2310591   5.921   7.498   0.241  0.4406 -0.5173 -0.6863
    51IDQ   C2410592   6.190   7.413  -0.346  1.0501  0.3944 -0.2372
    51IDQ   C2510593   6.143   7.287  -0.431 -0.3304 -0.0243 -0.3203
    51IDQ   C2610594   5.999   7.284  -0.488 -0.7384 -0.3221  0.4113
    51IDQ   C2710595   5.928   7.414  -0.534 -0.2696 -0.0581  0.4524
    51IDQ   C2810596   5.992   7.495  -0.641 -0.3411 -0.1595  0.9217
    51IDQ   C2910597   5.939   7.641  -0.646  0.0770 -0.5739 -1.2042
    51IDQ   C3010598   5.772   7.495   0.206 -0.3820 -0.2529  0.0361
    51IDQ   C3110599   5.685   7.496   0.331 -0.5094  0.3766  0.1644
    51IDQ   C3210600   5.704   7.603   0.438  0.2396  0.1645  0.1514
    51IDQ   C3310601   5.719   7.754   0.390 -0.3757  1.0348 -0.0570
    51IDQ   C3410602   5.747   7.847   0.507  0.2711  0.2252  0.4461
    51IDQ   C3510603   5.765   7.991   0.470  0.1799 -0.5022  0.3990
    4IDB    C3610604   6.352   7.144   0.172  0.1944 -0.2602 -0.3177
    4IDB    C3710605   6.459   7.236   0.191  0.2409 -0.2505 -0.6170
    11RH    C3810606   5.129   6.213   0.373 -0.2245  0.4493 -0.6605
    4IDB    C3910607   6.440   7.373   0.171  0.1016 -0.2245 -0.3184
    62IDT   C4010608   6.571   7.440   0.177 -0.0537  0.3017 -0.8451
    72IDQ   C4110609   6.600   7.214   0.245  0.6297  0.5416 -0.5504
    62IDT   C4210610   6.663   7.348   0.223 -0.4188 -0.0597 -0.8221
    72IDQ   C4310611   6.669   7.096   0.161  0.1410 -0.5220 -0.5102
    72IDQ   C4410612   6.589   7.172   0.398 -0.7819  0.2296 -0.4579
    62IDT    S510613   6.645   7.601   0.148  0.4287  0.2237 -0.1043
    62IDT   C4510614   6.805   7.532   0.202  0.0950 -0.3199  0.2129
    62IDT   C4610615   6.795   7.400   0.237 -0.3352 -0.4116 -0.2241
    82BTZ   C4710616   6.926   7.617   0.191 -0.2148  0.0021  0.0826
    82BTZ   C4810617   6.940   7.692   0.078 -0.3272 -0.0261  0.0495
    82BTZ   C4910618   7.049   7.784   0.061 -0.3574 -0.0117 -0.0714
    82BTZ   C5010619   7.144   7.801   0.158 -0.2750  0.0309 -0.1592
    82BTZ   C5110620   7.023   7.631   0.296 -0.1255  0.0471 -0.0061
    82BTZ   C5210621   7.134   7.725   0.279 -0.1561  0.0618 -0.1290
    92RH    C5310622   7.255   7.892   0.144 -0.5513  0.1126  0.1365
    82BTZ    N410623   7.019   7.563   0.411 -0.0130  0.0777  0.0152
    82BTZ    N510624   7.220   7.733   0.381 -0.0682  0.1041 -0.2065
    82BTZ    S610625   7.162   7.618   0.505  0.0601  0.1275 -0.1240
    92RH    C5410626   7.295   7.980   0.052 -0.2204  0.0245  0.1943
    92RH     S710627   7.211   8.022  -0.106  0.1263  0.1775  0.0461
    92RH    C5510628   7.419   8.061   0.065 -0.0807 -0.2189  0.3943
    92RH     O210629   7.499   8.056   0.160 -0.2495 -0.3675  0.5295
    92RH     N610630   7.437   8.146  -0.046  0.2759 -0.2646  0.4146
    92RH    C5610631   7.343   8.144  -0.147  0.4390 -0.0876  0.2555
    92RH    C5710632   7.558   8.227  -0.058  0.6549  0.2611  0.2156
    92RH    C5810633   7.532   8.373  -0.021 -0.0608 -0.2770 -0.6240
    92RH     S810634   7.341   8.234  -0.289  0.8586 -0.0965  0.2412
    72IDQ   C5910635   6.719   7.137   0.482 -0.1158 -0.2095 -0.1220
    72IDQ   C6010636   6.686   7.073   0.618  0.2755  0.2294 -0.6154
    72IDQ   C6110637   6.629   7.173   0.719  0.1765  0.1613  0.0770
    72IDQ   C6210638   6.732   7.268   0.776  0.6302  0.3742  0.6595
    72IDQ   C6310639   6.698   7.371   0.881 -0.2121 -0.0489  0.4891
    72IDQ   C6410640   6.620   7.324   0.998 -0.5111 -0.3175 -0.5375
    72IDQ   C6510641   6.607   7.425   1.117  0.5888  0.4642 -0.3998
    72IDQ   C6610642   6.675   7.101   0.010  0.6645  0.5374  0.1962
    72IDQ   C6710643   6.566   7.013  -0.057 -0.7436  0.1527  0.8741
    72IDQ   C6810644   6.569   7.023  -0.212 -0.3229 -0.1921 -0.6034
    72IDQ   C6910645   6.536   7.160  -0.276  0.1294  0.0348 -0.3303
    72IDQ   C7010646   6.511   7.149  -0.429  0.5233 -0.0116 -0.3679
    72IDQ   C7110647   6.411   7.055  -0.498  0.6369  0.1413  0.0037
    72IDQ   C7210648   6.434   7.070  -0.650 -0.3849 -0.1547 -0.7066
    11RH     C110649   4.019   4.017   6.256  0.3263  0.1631 -0.2079
    11RH     C210650   3.986   4.104   6.372  0.2932  0.0957 -0.1663
    11RH     N110651   4.091   3.902   6.297  0.3611  0.1661 -0.2609
    11RH     S110652   4.051   4.030   6.526  0.3100  0.0408 -0.1996
    11RH     C310653   4.120   3.887   6.431  0.3599  0.1094 -0.2668
    11RH     C410654   4.135   3.802   6.195  0.4168 -0.3367 -0.4100
    11RH     S210655   4.204   3.761   6.505  0.3970  0.0997 -0.3250
    11RH     O110656   3.988   4.039   6.138  0.3245  0.2116 -0.1986
    11RH     C510657   3.918   4.218   6.360  0.2569  0.0795 -0.1128
    21BTZ    C610658   3.864   4.316   6.455  0.4168  0.3075  0.2213
    21BTZ    C710659   3.871   4.296   6.590  0.4535  0.3786  0.2301
    21BTZ    C810660   3.792   4.430   6.406  0.1532  0.1205  0.1683
    21BTZ    C910661   3.808   4.386   6.684  0.2349  0.2705  0.1879
    21BTZ   C1010662   3.738   4.496   6.642 -0.0202  0.0913  0.1367
    21BTZ   C1110663   3.728   4.522   6.501 -0.0690  0.0106  0.1253
    21BTZ    N210664   3.779   4.461   6.277  0.0923  0.0358  0.1546
    21BTZ    N310665   3.663   4.626   6.448 -0.3086 -0.1624  0.0769
    21BTZ    S310666   3.681   4.611   6.271 -0.2591 -0.1929  0.0848
    31IDT   C1210667   3.675   4.584   6.747  0.1354  0.3239 -0.1418
    31IDT   C1310668   3.626   4.710   6.732 -0.1329  0.2232 -0.1156
    31IDT   C1410669   3.590   4.771   6.856 -0.4914  0.0317 -0.1234
    31IDT   C1510670   3.611   4.691   6.967 -0.4989 -0.0148 -0.1557
    31IDT    S410671   3.680   4.531   6.921 -0.0481  0.1822 -0.1787
    4IDB    C1610672   3.571   4.768   7.086 -0.0427 -0.2133  0.0587
    4IDB    C1710673   3.513   4.892   7.044 -0.1627 -0.2837  0.0157
    51IDQ   C1810674   3.531   4.907   6.893 -0.4111  0.6663  0.0010
    4IDB    C1910675   3.458   4.979   7.137 -0.2573 -0.3094 -0.0159
    51IDQ   C2010676   3.386   4.930   6.839 -0.1153 -0.4428 -0.1939
    51IDQ   C2110677   3.622   5.021   6.841 -0.5986 -0.3978  0.1717
    51IDQ   C2210678   3.716   5.104   6.929 -0.2082  0.1730  0.6654
    51IDQ   C2310679   3.309   4.821   6.758 -0.5622  0.2824 -0.4806
    51IDQ   C2410680   3.822   5.017   6.996  0.1962  0.4865 -0.2255
    51IDQ   C2510681   3.937   5.095   7.066  0.3608 -0.4776 -0.2343
    51IDQ   C2610682   3.890   5.165   7.197 -0.3012 -0.2445  0.2496
    51IDQ   C2710683   3.998   5.272   7.238 -0.0398  0.1250  0.3609
    51IDQ   C2810684   3.990   5.316   7.382 -0.6065 -0.5085  0.4811
    51IDQ   C2910685   4.079   5.437   7.391  0.1060  0.0166  1.1148
    51IDQ   C3010686   3.243   4.719   6.847 -0.2703  0.4594 -0.3549
    51IDQ   C3110687   3.166   4.615   6.767 -0.1553  0.4538  0.1176
    51IDQ   C3210688   3.114   4.480   6.833 -0.3057 -0.1843  0.2591
    51IDQ   C3310689   3.210   4.399   6.920  0.4891  0.4485 -0.0310
    51IDQ   C3410690   3.316   4.326   6.837 -0.4750  0.5536  0.1065
    51IDQ   C3510691   3.415   4.260   6.934 -0.1808 -0.1694  0.0667
    4IDB    C3610692   3.574   4.731   7.221 -0.0166 -0.1677  0.0705
    4IDB    C3710693   3.518   4.822   7.314 -0.1145 -0.1948  0.0378
    11RH    C3810694   4.275   3.826   6.149  0.0940 -0.0977  0.8336
    4IDB    C3910695   3.461   4.943   7.272 -0.2312 -0.2638 -0.0041
    62IDT   C4010696   3.418   5.016   7.386  0.1143  0.1468 -0.1892
    72IDQ   C4110697   3.496   4.806   7.464  0.0198  0.5207 -0.5281
    62IDT   C4210698   3.421   4.937   7.499  0.1719 -0.0154 -0.3021
    72IDQ   C4310699   3.637   4.783   7.537  0.4305 -0.5121 -0.2970
    72IDQ   C4410700   3.389   4.687   7.496 -0.2264 -0.1344 -0.4934
    62IDT    S510701   3.360   5.182   7.420  0.1064  0.0902  0.0730
    62IDT   C4510702   3.341   5.134   7.595  0.1852 -0.1622  0.0132
    62IDT   C4610703   3.377   5.004   7.617  0.2120 -0.1901 -0.1879
    82BTZ   C4710704   3.279   5.224   7.691 -0.0621 -0.0720  0.1920
    82BTZ   C4810705   3.313   5.357   7.688 -0.0169 -0.0850  0.1296
    82BTZ   C4910706   3.258   5.452   7.782  0.0362 -0.0271  0.1025
    82BTZ   C5010707   3.168   5.414   7.878  0.0439  0.0440  0.1377
    82BTZ   C5110708   3.186   5.179   7.790 -0.0561  0.0014  0.2309
    82BTZ   C5210709   3.129   5.276   7.885 -0.0021  0.0604  0.2033
    92RH    C5310710   3.125   5.501   7.985 -0.0363 -0.0526 -0.0088
    82BTZ    N410711   3.145   5.053   7.803 -0.0971  0.0209  0.2922
    82BTZ    N510712   3.043   5.227   7.975  0.0002  0.1272  0.2425
    82BTZ    S610713   3.030   5.052   7.940 -0.0678  0.1174  0.3178
    92RH    C5410714   3.157   5.625   8.023  0.0784 -0.0818 -0.0101
    92RH     S710715   3.271   5.741   7.938  0.0406 -0.1190 -0.1106
    92RH    C5510716   3.104   5.689   8.146  0.2597 -0.0886  0.0728
    92RH     O210717   3.025   5.636   8.226  0.3259 -0.0685  0.1517
    92RH     N610718   3.155   5.819   8.163  0.3516 -0.1213  0.0515
    92RH    C5610719   3.242   5.868   8.068  0.2662 -0.1416 -0.0384
    92RH    C5710720   3.109   5.902   8.275  0.2765 -0.1774  0.4288
    92RH    C5810721   2.983   5.986   8.239  0.3589 -0.0487 -1.2165
    92RH     S810722   3.316   6.019   8.064  0.3455 -0.1816 -0.0816
    72IDQ   C5910723   3.406   4.548   7.427 -0.2486 -0.0636 -0.6574
    72IDQ   C6010724   3.321   4.431   7.476  0.0968 -0.0268 -0.3375
    72IDQ   C6110725   3.355   4.303   7.411 -0.1476 -0.5684  0.4083
    72IDQ   C6210726   3.289   4.174   7.458 -0.1167 -0.0024 -0.4499
    72IDQ   C6310727   3.144   4.148   7.422  0.0711  0.4478  0.1385
    72IDQ   C6410728   3.106   4.015   7.493  0.0804 -0.6747 -0.4123
    72IDQ   C6510729   2.997   3.932   7.417 -0.5704 -0.2421 -0.0190
    72IDQ   C6610730   3.648   4.749   7.682 -0.1648  0.1137 -0.3734
    72IDQ   C6710731   3.776   4.683   7.730 -0.0294 -0.6332 -0.3636
    72IDQ   C6810732   3.895   4.780   7.748  0.3022  0.8360 -0.3756
    72IDQ   C6910733   3.893   4.876   7.871 -0.1021 -0.3110 -0.2261
    72IDQ   C7010734   3.859   4.811   8.003  0.4455 -0.9700 -0.1365
    72IDQ   C7110735   3.833   4.917   8.113 -0.2165  0.1466  0.4825
    72IDQ   C7210736   3.814   4.859   8.255  0.0731  0.2457  0.2483
    11RH     C110737   3.798   0.603   0.319 -0.0350 -0.0876  0.0088
    11RH     C210738   3.899   0.651   0.417 -0.1177 -0.0618  0.0813
    11RH     N110739   3.744   0.710   0.244 -0.0340 -0.0970 -0.0052
    11RH     S110740   3.916   0.833   0.404 -0.1887 -0.0517  0.1263
    11RH     C310741   3.790   0.837   0.270 -0.1057 -0.0819  0.0472
    11RH     C410742   3.637   0.674   0.150  0.4129  0.3210  0.4791
    11RH     S210743   3.743   0.981   0.195 -0.1209 -0.0885  0.0440
    11RH     O110744   3.763   0.485   0.303  0.0266 -0.0998 -0.0351
    11RH     C510745   3.964   0.570   0.501 -0.1352 -0.0486  0.1080
    21BTZ    C610746   4.071   0.595   0.599  0.3417 -0.1253 -0.3651
    21BTZ    C710747   4.128   0.719   0.618  0.2835 -0.0864 -0.4414
    21BTZ    C810748   4.122   0.484   0.673  0.2689 -0.0188 -0.1542
    21BTZ    C910749   4.237   0.738   0.710  0.1520  0.0581 -0.3152
    21BTZ   C1010750   4.289   0.635   0.784  0.0787  0.1634 -0.1130
    21BTZ   C1110751   4.233   0.504   0.767  0.1351  0.1281 -0.0260
    21BTZ    N210752   4.074   0.359   0.664  0.3147 -0.0435 -0.0624
    21BTZ    N310753   4.274   0.395   0.833  0.0734  0.2213  0.1689
    21BTZ    S310754   4.172   0.260   0.776  0.1862  0.1232  0.1972
    31IDT   C1210755   4.391   0.669   0.885  0.0941 -0.3082 -0.3310
    31IDT   C1310756   4.456   0.591   0.976 -0.1080 -0.3563 -0.2263
    31IDT   C1410757   4.537   0.665   1.066 -0.2866 -0.4064 -0.0221
    31IDT   C1510758   4.535   0.802   1.045 -0.2216 -0.3968  0.0301
    31IDT    S410759   4.428   0.846   0.907  0.0731 -0.3229 -0.1772
    4IDB    C1610760   4.634   0.865   1.132  0.1000  0.1655  0.2583
    4IDB    C1710761   4.703   0.766   1.209  0.3284 -0.0601 -0.2291
    51IDQ   C1810762   4.639   0.625   1.178 -0.1688 -0.6256 -0.2515
    4IDB    C1910763   4.802   0.803   1.300  0.3730 -0.3004 -0.1798
    51IDQ   C2010764   4.763   0.534   1.144 -0.2874 -0.7179 -0.1714
    51IDQ   C2110765   4.570   0.558   1.295  0.6584  0.3376  0.0571
    51IDQ   C2210766   4.552   0.623   1.429  0.1270  0.2319  0.1018
    51IDQ   C2310767   4.787   0.467   1.009  0.0952 -0.7901 -0.3573
    51IDQ   C2410768   4.450   0.558   1.524 -0.2444 -0.4784  0.4563
    51IDQ   C2510769   4.395   0.654   1.629 -0.6683 -0.2532 -0.6620
    51IDQ   C2610770   4.315   0.605   1.744 -0.2112 -0.3146 -0.4133
    51IDQ   C2710771   4.201   0.515   1.701 -0.4054 -0.1736  0.6324
    51IDQ   C2810772   4.114   0.456   1.805 -0.0795  0.1671 -0.0504
    51IDQ   C2910773   4.043   0.331   1.752 -0.1190 -0.1006  0.0076
    51IDQ   C3010774   4.923   0.402   1.002 -0.6109  0.4817 -0.1911
    51IDQ   C3110775   4.972   0.293   1.101  0.0113 -0.0048 -0.6188
    51IDQ   C3210776   4.887   0.173   1.143  0.3466 -0.2420 -0.3228
    51IDQ   C3310777   4.932   0.088   1.258  0.4937  0.7200  0.0511
    51IDQ   C3410778   4.939   0.145   1.404 -0.8490 -0.1447  0.0837
    51IDQ   C3510779   4.806   0.168   1.471 -0.4557  0.6484  0.4304
    4IDB    C3610780   4.663   1.001   1.147 -0.0865  0.1518  0.8011
    4IDB    C3710781   4.764   1.037   1.241 -0.0379 -0.0954  0.8433
    11RH    C3810782   3.688   0.643   0.011 -0.8002  0.3009 -0.3796
    4IDB    C3910783   4.830   0.939   1.315  0.1865 -0.3141  0.3631
    62IDT   C4010784   4.921   1.002   1.409 -0.2531  0.3277  0.3118
    72IDQ   C4110785   4.817   1.175   1.282 -0.2564 -0.6534  0.2474
    62IDT   C4210786   4.924   1.139   1.391 -0.3707  0.3716  0.6260
    72IDQ   C4310787   4.709   1.274   1.345  0.1113 -0.2836  0.1338
    72IDQ   C4410788   4.888   1.248   1.163  0.1515 -0.1823  0.5660
    62IDT    S510789   5.037   0.947   1.534  0.3622  0.0488 -0.3634
    62IDT   C4510790   5.086   1.121   1.558  0.4315  0.0039 -0.1762
    62IDT   C4610791   5.017   1.206   1.476  0.0161  0.1886  0.3505
    82BTZ   C4710792   5.187   1.156   1.661 -0.0145  0.0772 -0.3808
    82BTZ   C4810793   5.235   1.057   1.742 -0.0733 -0.0043 -0.4447
    82BTZ   C4910794   5.335   1.083   1.843 -0.1704 -0.0970 -0.3223
    82BTZ   C5010795   5.387   1.209   1.861 -0.2084 -0.1080 -0.1364
    82BTZ   C5110796   5.238   1.289   1.676 -0.0508  0.0694 -0.1871
    82BTZ   C5210797   5.340   1.316   1.778 -0.1495 -0.0248 -0.0628
    92RH    C5310798   5.469   1.250   1.975 -0.3237 -0.0020  0.1292
    82BTZ    N410799   5.199   1.394   1.603 -0.0004  0.1435 -0.1086
    82BTZ    N510800   5.383   1.442   1.787 -0.1783 -0.0265  0.1157
    82BTZ    S610801   5.293   1.534   1.662 -0.0784  0.0949  0.1328
    92RH    C5410802   5.506   1.185   2.086 -0.1974 -0.0001  0.0880
    92RH     S710803   5.492   1.005   2.118 -0.1081 -0.0077  0.0847
    92RH    C5510804   5.567   1.252   2.204 -0.1076  0.0087  0.0370
    92RH     O210805   5.590   1.373   2.214 -0.1378  0.0153  0.0265
    92RH     N610806   5.596   1.159   2.306  0.0199  0.0088  0.0005
    92RH    C5610807   5.567   1.026   2.285  0.0432  0.0012  0.0162
    92RH    C5710808   5.658   1.209   2.434 -0.2758 -0.6856 -0.1257
    92RH    C5810809   5.816   1.193   2.439  0.3972 -0.3231 -1.0502
    92RH     S810810   5.592   0.897   2.390  0.1854 -0.0005 -0.0195
    72IDQ   C5910811   5.023   1.198   1.113  0.2655 -0.0439 -0.3868
    72IDQ   C6010812   5.069   1.251   0.977  0.3532  0.6083  0.4382
    72IDQ   C6110813   5.070   1.396   0.945 -0.1708 -0.8962  0.2693
    72IDQ   C6210814   5.108   1.419   0.801 -0.5207  0.3189 -0.7721
    72IDQ   C6310815   5.099   1.562   0.737 -0.5583  0.1410 -0.0506
    72IDQ   C6410816   5.158   1.571   0.597 -0.3518  0.5248 -0.1713
    72IDQ   C6510817   5.139   1.711   0.532 -0.0323  0.8304  0.8759
    72IDQ   C6610818   4.593   1.242   1.450 -0.0862  0.1873  0.9526
    72IDQ   C6710819   4.483   1.151   1.390  1.2103 -0.6473 -0.0258
    72IDQ   C6810820   4.347   1.141   1.459  0.1670 -0.1174 -0.3411
    72IDQ   C6910821   4.281   1.261   1.532  0.2496  0.1336  0.1599
    72IDQ   C7010822   4.150   1.218   1.600  0.8223  0.2171  0.2823
    72IDQ   C7110823   4.099   1.306   1.704  0.0295  0.0560 -0.4107
    72IDQ   C7210824   3.972   1.248   1.762 -0.4933 -0.2200 -0.2802
    11RH     C110825   3.743   5.771   1.341 -0.0674  0.1793 -0.0441
    11RH     C210826   3.690   5.643   1.393  0.1343  0.1330  0.0495
    11RH     N110827   3.721   5.877   1.432 -0.0796  0.1765 -0.0440
    11RH     S110828   3.614   5.670   1.558  0.2946  0.0888  0.1315
    11RH     C310829   3.656   5.849   1.550  0.0876  0.1336  0.0383
    11RH     C410830   3.731   6.015   1.386  0.0698  0.1001  0.0566
    11RH     S210831   3.617   5.956   1.674  0.1122  0.1209  0.0571
    11RH     O110832   3.801   5.787   1.232 -0.2101  0.2164 -0.1148
    11RH     C510833   3.699   5.527   1.326  0.1854  0.1259  0.0683
    21BTZ    C610834   3.658   5.391   1.357  0.0415 -0.0482  0.1891
    21BTZ    C710835   3.595   5.359   1.474 -0.0926 -0.0173  0.1247
    21BTZ    C810836   3.662   5.294   1.252  0.0677 -0.0360  0.1787
    21BTZ    C910837   3.532   5.231   1.493 -0.2071  0.0267  0.0474
    21BTZ   C1010838   3.533   5.135   1.395 -0.1872  0.0400  0.0347
    21BTZ   C1110839   3.599   5.164   1.271 -0.0488  0.0089  0.1002
    21BTZ    N210840   3.721   5.314   1.133  0.1937 -0.0631  0.2369
    21BTZ    N310841   3.606   5.079   1.168 -0.0163  0.0178  0.0952
    21BTZ    S310842   3.697   5.163   1.040  0.1683 -0.0316  0.1927
    31IDT   C1210843   3.457   5.015   1.422  0.2004  0.0433 -0.1634
    31IDT   C1310844   3.459   4.894   1.357  0.0393 -0.0925  0.0843
    31IDT   C1410845   3.358   4.804   1.405 -0.1943  0.2006  0.1497
    31IDT   C1510846   3.279   4.856   1.505 -0.2129  0.5612 -0.0472
    31IDT    S410847   3.327   5.024   1.548  0.0666  0.5572 -0.3334
    4IDB    C1610848   3.181   4.753   1.539 -0.1922  0.1804 -0.5073
    4IDB    C1710849   3.192   4.636   1.459 -0.0744  0.0652 -0.3223
    51IDQ   C1810850   3.303   4.663   1.359 -0.4668  0.6127 -0.2319
    4IDB    C1910851   3.115   4.523   1.486  0.0424  0.0279 -0.1415
    51IDQ   C2010852   3.406   4.541   1.370 -0.1643  0.3438  0.3087
    51IDQ   C2110853   3.250   4.678   1.214 -0.3303  0.6106 -0.0063
    51IDQ   C2210854   3.101   4.652   1.185 -0.2140  0.2741  0.6299
    51IDQ   C2310855   3.546   4.547   1.439  0.4546  0.8471  0.4817
    51IDQ   C2410856   3.042   4.705   1.055 -1.0591 -0.3781  0.9089
    51IDQ   C2510857   2.919   4.628   1.018  0.1636 -0.1528  0.1096
    51IDQ   C2610858   2.846   4.686   0.898 -0.3914 -0.6093 -0.4196
    51IDQ   C2710859   2.901   4.697   0.762  0.5180 -0.0991  0.1496
    51IDQ   C2810860   2.963   4.579   0.695  0.1615  0.1768  0.0653
    51IDQ   C2910861   3.031   4.623   0.566  0.1321  0.5563  0.2485
    51IDQ   C3010862   3.632   4.423   1.410 -0.0474 -0.1223 -0.1888
    51IDQ   C3110863   3.782   4.439   1.445  0.6401 -0.8902  0.5573
    51IDQ   C3210864   3.866   4.315   1.433 -0.0462 -0.2593 -0.6303
    51IDQ   C3310865   4.016   4.336   1.449 -0.5398 -0.1478 -0.5850
    51IDQ   C3410866   4.098   4.206   1.451  0.4280 -0.5246 -0.2881
    51IDQ   C3510867   4.243   4.246   1.470 -0.4676 -0.6035 -0.0611
    4IDB    C3610868   3.092   4.759   1.648 -0.1935  0.2599 -0.5124
    4IDB    C3710869   3.014   4.643   1.674 -0.0730  0.2202 -0.3262
    11RH    C3810870   3.860   6.094   1.411  0.9519  0.7465 -0.1737
    4IDB    C3910871   3.026   4.529   1.595  0.0412  0.1071 -0.1466
    62IDT   C4010872   2.927   4.435   1.627  0.5032 -0.3295 -0.5207
    72IDQ   C4110873   2.898   4.618   1.778 -0.3958  0.5868 -0.0657
    62IDT   C4210874   2.858   4.476   1.738  0.8811 -0.0217 -0.3966
    72IDQ   C4310875   2.781   4.727   1.765  0.2817 -0.0121  0.1754
    72IDQ   C4410876   2.962   4.592   1.921 -0.2385 -0.3863 -0.2949
    62IDT    S510877   2.869   4.275   1.567  0.0692 -0.3372 -0.0897
    62IDT   C4510878   2.748   4.274   1.703  0.4395  0.0975  0.2522
    62IDT   C4610879   2.756   4.385   1.782  0.8456  0.2204  0.0404
    82BTZ   C4710880   2.650   4.163   1.723  0.0956  0.3216  0.0944
    82BTZ   C4810881   2.667   4.050   1.648  0.1560  0.3911  0.0025
    82BTZ   C4910882   2.577   3.938   1.659  0.2007  0.3446 -0.1073
    82BTZ   C5010883   2.470   3.939   1.744  0.1849  0.2287 -0.1249
    82BTZ   C5110884   2.539   4.169   1.814  0.0767  0.1996  0.0803
    82BTZ   C5210885   2.448   4.055   1.825  0.1222  0.1522 -0.0313
    92RH    C5310886   2.377   3.829   1.763 -0.1236  0.0184  0.0025
    82BTZ    N410887   2.512   4.274   1.892  0.0194  0.1229  0.1633
    82BTZ    N510888   2.347   4.069   1.912  0.1013  0.0378 -0.0379
    82BTZ    S610889   2.365   4.231   1.985  0.0209 -0.0156  0.1011
    92RH    C5410890   2.367   3.705   1.715 -0.2113  0.0417 -0.0406
    92RH     S710891   2.489   3.617   1.610 -0.2558 -0.0211 -0.0397
    92RH    C5510892   2.251   3.616   1.742 -0.2884  0.1251 -0.0975
    92RH     O210893   2.151   3.646   1.810 -0.2812  0.1820 -0.1118
    92RH     N610894   2.267   3.490   1.680 -0.3735  0.1327 -0.1348
    92RH    C5610895   2.381   3.467   1.607 -0.3740  0.0656 -0.1147
    92RH    C5710896   2.165   3.385   1.696 -0.4399  0.4045 -0.5012
    92RH    C5810897   2.041   3.389   1.614  0.6949  0.2913 -0.0616
    92RH     S810898   2.424   3.327   1.523 -0.4654  0.0586 -0.1501
    72IDQ   C5910899   3.023   4.720   1.989  0.4554 -0.3391  0.0589
    72IDQ   C6010900   3.029   4.701   2.142 -0.0212 -0.4378  0.4428
    72IDQ   C6110901   3.086   4.825   2.222 -0.0621 -0.4509 -0.0342
    72IDQ   C6210902   3.087   4.809   2.375  0.2431 -0.7423 -0.5309
    72IDQ   C6310903   3.144   4.675   2.428 -0.0183  0.0260 -0.7856
    72IDQ   C6410904   3.294   4.645   2.418  0.0942 -0.1291  0.3170
    72IDQ   C6510905   3.336   4.522   2.487 -0.4536  0.4486  0.0377
    72IDQ   C6610906   2.661   4.708   1.867  0.0666  0.0168  0.7401
    72IDQ   C6710907   2.663   4.755   2.012  0.2008 -0.4195 -0.6876
    72IDQ   C6810908   2.687   4.900   2.052 -0.4040  0.3841  0.4790
    72IDQ   C6910909   2.723   4.908   2.201  0.5681 -0.6778  0.3089
    72IDQ   C7010910   2.746   5.053   2.241 -0.3251  0.1452 -0.5329
    72IDQ   C7110911   2.774   5.056   2.394 -0.6165  0.2068  0.8385
    72IDQ   C7210912   2.794   5.202   2.447 -0.6945 -0.6095  0.3043
    11RH     C110913   1.325   3.969   3.987  0.0999 -0.3758 -0.2782
    11RH     C210914   1.353   3.998   3.845 -0.0407 -0.2346 -0.2777
    11RH     N110915   1.217   3.878   4.001  0.0033 -0.2579 -0.2573
    11RH     S110916   1.236   3.905   3.738 -0.2907  0.0442 -0.2498
    11RH     C310917   1.156   3.832   3.887 -0.1975 -0.0393 -0.2401
    11RH     C410918   1.181   3.824   4.137 -0.1008  0.4381  0.7436
    11RH     S210919   1.026   3.724   3.876 -0.3466  0.1367 -0.2137
    11RH     O110920   1.386   4.016   4.084  0.2801 -0.5730 -0.2946
    11RH     C510921   1.450   4.080   3.804  0.0129 -0.3060 -0.2954
    21BTZ    C610922   1.478   4.143   3.675 -0.1574  0.1547 -0.0343
    21BTZ    C710923   1.399   4.123   3.565 -0.2369  0.1475  0.0241
    21BTZ    C810924   1.589   4.233   3.664 -0.0931  0.0620 -0.1550
    21BTZ    C910925   1.424   4.190   3.440 -0.2571  0.0494 -0.0326
    21BTZ   C1010926   1.529   4.277   3.425 -0.1978 -0.0412 -0.1477
    21BTZ   C1110927   1.615   4.301   3.537 -0.1136 -0.0378 -0.2127
    21BTZ    N210928   1.673   4.261   3.764 -0.0134  0.0592 -0.2211
    21BTZ    N310929   1.720   4.384   3.535 -0.0505 -0.1205 -0.3251
    21BTZ    S310930   1.791   4.378   3.698  0.0398 -0.0737 -0.3628
    31IDT   C1210931   1.550   4.335   3.292 -0.4447  0.0549  0.1061
    31IDT   C1310932   1.586   4.463   3.258 -0.2399 -0.0203  0.0336
    31IDT   C1410933   1.612   4.478   3.119  0.0380 -0.1992  0.0638
    31IDT   C1510934   1.596   4.363   3.045  0.0471 -0.2612  0.1593
    31IDT    S410935   1.547   4.224   3.148 -0.2989 -0.0965  0.2191
    4IDB    C1610936   1.630   4.391   2.902  0.2608 -0.3388 -0.2416
    4IDB    C1710937   1.671   4.526   2.888  0.3007 -0.3258 -0.0161
    51IDQ   C1810938   1.641   4.598   3.021 -0.0525 -1.0241 -0.2844
    4IDB    C1910939   1.730   4.571   2.770 -0.0122 -0.0626 -0.0755
    51IDQ   C2010940   1.769   4.687   3.064 -0.8341 -0.0477  0.7734
    51IDQ   C2110941   1.518   4.703   3.022 -0.8906  0.4641 -0.3996
    51IDQ   C2210942   1.430   4.710   2.897  0.3826 -0.0333  0.5357
    51IDQ   C2310943   1.860   4.678   3.192  0.0490 -0.1352 -0.3146
    51IDQ   C2410944   1.279   4.736   2.932  0.4946 -0.4284  0.1603
    51IDQ   C2510945   1.176   4.723   2.817 -0.2948  0.0168  0.8123
    51IDQ   C2610946   1.157   4.585   2.753 -0.5547  0.5317  0.0475
    51IDQ   C2710947   1.139   4.467   2.853 -0.4218  0.6749  0.2786
    51IDQ   C2810948   1.264   4.389   2.891 -0.0831 -0.0178 -0.4255
    51IDQ   C2910949   1.235   4.338   3.031  0.6206  0.1739 -0.0097
    51IDQ   C3010950   1.942   4.551   3.214  0.0336  0.4175 -0.2054
    51IDQ   C3110951   2.023   4.546   3.347  0.3176 -0.3014  0.7994
    51IDQ   C3210952   2.172   4.524   3.316 -0.1746 -0.2621 -0.4059
    51IDQ   C3310953   2.261   4.493   3.439  0.4703 -0.7015  0.4799
    51IDQ   C3410954   2.413   4.486   3.433 -0.3906 -0.2932 -0.6480
    51IDQ   C3510955   2.465   4.450   3.573 -0.2500 -0.4909 -0.1256
    4IDB    C3610956   1.647   4.298   2.798 -0.0949 -0.0870 -0.5296
    4IDB    C3710957   1.707   4.345   2.679 -0.4116  0.1800 -0.5862
    11RH    C3810958   1.102   3.913   4.227  0.8548 -0.5947  0.3717
    4IDB    C3910959   1.747   4.478   2.666 -0.3678  0.1892 -0.3635
    62IDT   C4010960   1.815   4.496   2.545  0.3662  0.0855  0.3723
    72IDQ   C4110961   1.731   4.271   2.551 -0.4962  0.3853 -0.0593
    62IDT   C4210962   1.813   4.377   2.474  0.7688 -0.0749  0.6247
    72IDQ   C4310963   1.596   4.230   2.476 -0.9880  0.2164  0.2812
    72IDQ   C4410964   1.807   4.136   2.570  0.5140  0.5408 -0.5098
    62IDT    S510965   1.891   4.628   2.451 -0.2310  0.1924  0.0262
    62IDT   C4510966   1.918   4.511   2.315  0.1117  0.0057  0.2521
    62IDT   C4610967   1.871   4.385   2.344  0.6255 -0.1202  0.5570
    82BTZ   C4710968   1.995   4.558   2.199  0.3430  0.0422  0.1355
    82BTZ   C4810969   2.042   4.687   2.208  0.2450  0.0792  0.1230
    82BTZ   C4910970   2.126   4.744   2.106  0.1631  0.1488  0.0950
    82BTZ   C5010971   2.162   4.673   1.994  0.1795  0.1810  0.0796
    82BTZ   C5110972   2.030   4.480   2.085  0.3639  0.0738  0.1203
    82BTZ   C5210973   2.115   4.538   1.980  0.2808  0.1445  0.0919
    92RH    C5310974   2.250   4.733   1.892  0.1266  0.1154  0.1036
    82BTZ    N410975   1.991   4.354   2.064  0.4562  0.0430  0.1303
    82BTZ    N510976   2.144   4.459   1.876  0.3062  0.1706  0.0790
    82BTZ    S610977   2.062   4.304   1.908  0.4403  0.1044  0.1032
    92RH    C5410978   2.313   4.850   1.881  0.1016  0.1262  0.0747
    92RH     S710979   2.332   4.979   2.011 -0.1932  0.2990 -0.0505
    92RH    C5510980   2.380   4.895   1.756  0.3172 -0.0051  0.1423
    92RH     O210981   2.386   4.831   1.650  0.5418 -0.1382  0.2320
    92RH     N610982   2.439   5.023   1.772  0.2364  0.0389  0.0922
    92RH    C5610983   2.428   5.085   1.894 -0.0175  0.1894 -0.0074
    92RH    C5710984   2.516   5.089   1.656 -0.2421  0.3216  0.1307
    92RH    C5810985   2.666   5.054   1.662 -0.5037 -0.3412  0.4130
    92RH     S810986   2.488   5.236   1.940 -0.1617  0.2708 -0.0838
    72IDQ   C5910987   1.901   4.100   2.688  1.0290 -0.0631  0.0699
    72IDQ   C6010988   2.030   4.186   2.694  0.0198  0.1517  0.5293
    72IDQ   C6110989   2.092   4.175   2.835  0.1692  0.3308  0.3217
    72IDQ   C6210990   2.216   4.267   2.862 -0.2613 -0.1551  0.3947
    72IDQ   C6310991   2.189   4.405   2.916 -0.3888  0.1454  0.1163
    72IDQ   C6410992   2.099   4.496   2.846  0.3458 -0.4666  0.4395
    72IDQ   C6510993   2.156   4.553   2.712  0.1256 -0.7668 -0.1880
    72IDQ   C6610994   1.500   4.331   2.426 -0.1940 -0.0296 -0.2248
    72IDQ   C6710995   1.350   4.304   2.459 -0.4840 -0.5441 -0.1024
    72IDQ   C6810996   1.251   4.404   2.396  0.1370 -0.1778  0.0088
    72IDQ   C6910997   1.109   4.380   2.422 -0.1571  0.1127 -0.0916
    72IDQ   C7010998   0.995   4.461   2.359 -0.5663  0.3328  0.0662
    72IDQ   C7110999   0.986   4.608   2.400 -0.1195  0.0314  0.5730
    72IDQ   C7211000   0.865   4.672   2.333  0.0674 -0.0498 -0.0213
    11RH     C111001   4.961   5.399   3.315  0.1359  0.1926  0.1044
    11RH     C211002   4.872   5.290   3.268  0.2685  0.1130  0.0390
    11RH     N111003   5.032   5.458   3.208 -0.0043  0.4058  0.1259
    11RH     S111004   4.889   5.271   3.086  0.2004  0.3238  0.0100
    11RH     C311005   5.012   5.408   3.081 -0.0001  0.5068  0.0858
    11RH     C411006   5.131   5.566   3.232  0.1292 -0.0386 -0.3215
    11RH     S211007   5.083   5.460   2.937 -0.1495  0.7584  0.0997
    11RH     O111008   4.973   5.437   3.433  0.1434  0.0887  0.1372
    11RH     C511009   4.794   5.218   3.349  0.4143 -0.0840  0.0075
    21BTZ    C611010   4.696   5.107   3.328 -0.1060 -0.0097 -0.0651
    21BTZ    C711011   4.666   5.057   3.204 -0.0356 -0.1124 -0.0407
    21BTZ    C811012   4.621   5.061   3.441 -0.1080  0.0149 -0.0564
    21BTZ    C911013   4.562   4.959   3.186  0.0359 -0.1954 -0.0067
    21BTZ   C1011014   4.488   4.912   3.291  0.0369 -0.1757  0.0027
    21BTZ   C1111015   4.515   4.962   3.422 -0.0354 -0.0696 -0.0220
    21BTZ    N211016   4.641   5.103   3.567 -0.1730  0.1117 -0.0781
    21BTZ    N311017   4.450   4.924   3.532 -0.0420 -0.0407 -0.0158
    21BTZ    S311018   4.523   5.015   3.668 -0.1433  0.0988 -0.0546
    31IDT   C1211019   4.402   4.800   3.261  0.1740 -0.0460  0.1042
    31IDT   C1311020   4.275   4.776   3.305  0.2251 -0.1057  0.2196
    31IDT   C1411021   4.214   4.662   3.244  0.1640 -0.0390  0.1551
    31IDT   C1511022   4.295   4.598   3.152  0.0663  0.0717 -0.0095
    31IDT    S411023   4.455   4.678   3.136  0.0437  0.1003 -0.0963
    4IDB    C1611024   4.221   4.486   3.096  0.0610 -0.2772 -0.0802
    4IDB    C1711025   4.090   4.485   3.152  0.0520 -0.0257 -0.0948
    51IDQ   C1811026   4.079   4.587   3.262  0.7542 -0.5857  0.0818
    4IDB    C1911027   3.993   4.398   3.105 -0.0900  0.1098 -0.0566
    51IDQ   C2011028   3.942   4.673   3.239 -0.5674  0.1600 -0.1328
    51IDQ   C2111029   4.063   4.538   3.411 -0.0223  0.2930 -0.0388
    51IDQ   C2211030   4.030   4.390   3.445 -0.0697 -0.3633 -0.0435
    51IDQ   C2311031   3.958   4.811   3.177 -0.3236  0.5755  0.8175
    51IDQ   C2411032   3.997   4.361   3.592  0.2131  0.6903 -0.9485
    51IDQ   C2511033   3.879   4.438   3.658  0.2562 -0.1960 -0.5176
    51IDQ   C2611034   3.823   4.368   3.778 -0.1684  0.1288  0.6597
    51IDQ   C2711035   3.688   4.432   3.808  0.1920  0.5903  0.3503
    51IDQ   C2811036   3.661   4.450   3.957  0.4065  0.1411 -0.3783
    51IDQ   C2911037   3.541   4.534   3.999  0.0659  0.2608  0.6048
    51IDQ   C3011038   3.950   4.817   3.026  0.4278  0.4168  0.1186
    51IDQ   C3111039   4.067   4.773   2.928 -0.0262 -0.6043 -0.7257
    51IDQ   C3211040   4.183   4.876   2.918 -0.0485 -0.0704  0.4798
    51IDQ   C3311041   4.145   5.024   2.902 -0.0168 -0.0121  0.2607
    51IDQ   C3411042   4.268   5.113   2.904  0.3549 -0.1062  0.8266
    51IDQ   C3511043   4.211   5.245   2.867  0.1115  0.2281  0.1254
    4IDB    C3611044   4.256   4.399   2.992 -0.0728 -0.3953 -0.0269
    4IDB    C3711045   4.156   4.310   2.945 -0.2171 -0.2539  0.0117
    11RH    C3811046   5.272   5.506   3.259 -0.1464 -0.1455 -0.4171
    4IDB    C3911047   4.028   4.310   3.001 -0.2240 -0.0081 -0.0033
    62IDT   C4011048   3.947   4.211   2.934 -0.0173  0.0435  0.0411
    72IDQ   C4111049   4.165   4.208   2.830 -0.1000  0.0062  0.6137
    62IDT   C4211050   4.019   4.157   2.830 -0.2261  0.1787 -0.1763
    72IDQ   C4311051   4.274   4.093   2.848  0.0849 -0.2410 -0.0265
    72IDQ   C4411052   4.204   4.282   2.690 -0.5603  0.6965  0.3585
    62IDT    S511053   3.785   4.134   2.951  0.0024  0.0447  0.2446
    62IDT   C4511054   3.826   4.027   2.809 -0.2869  0.2376  0.0136
    62IDT   C4611055   3.951   4.053   2.759 -0.3788  0.2888 -0.1923
    82BTZ   C4711056   3.724   3.938   2.749 -0.0012 -0.1011 -0.1755
    82BTZ   C4811057   3.594   3.960   2.787  0.0119 -0.1900 -0.0766
    82BTZ   C4911058   3.487   3.871   2.748  0.0561 -0.3101  0.0768
    82BTZ   C5011059   3.510   3.760   2.672  0.0871 -0.3409  0.1314
    82BTZ   C5111060   3.753   3.822   2.669  0.0300 -0.1289 -0.1237
    82BTZ   C5211061   3.644   3.732   2.630  0.0750 -0.2510  0.0322
    92RH    C5311062   3.406   3.660   2.654 -0.0570 -0.1504  0.1037
    82BTZ    N411063   3.875   3.790   2.626  0.0213 -0.0500 -0.2093
    82BTZ    N511064   3.679   3.626   2.555  0.1022 -0.2701  0.0721
    82BTZ    S611065   3.856   3.639   2.531  0.0711 -0.1301 -0.0915
    92RH    C5411066   3.279   3.645   2.693 -0.0801 -0.0408  0.0732
    92RH     S711067   3.184   3.755   2.804 -0.1442  0.2716 -0.2871
    92RH    C5511068   3.194   3.531   2.649 -0.0563 -0.1608  0.3362
    92RH     O211069   3.229   3.439   2.574 -0.0131 -0.3728  0.6107
    92RH     N611070   3.064   3.540   2.705 -0.0891 -0.0031  0.2374
    92RH    C5611071   3.036   3.646   2.788 -0.1363  0.2287 -0.0728
    92RH    C5711072   2.962   3.430   2.682 -0.2694  0.1321 -0.1330
    92RH    C5811073   2.968   3.317   2.792  0.0928 -0.8741  0.8882
    92RH     S811074   2.890   3.679   2.867 -0.1823  0.4505 -0.2491
    72IDQ   C5911075   4.105   4.374   2.621  0.0242  0.7537 -0.7473
    72IDQ   C6011076   4.054   4.509   2.686  0.5006  0.6115  0.2687
    72IDQ   C6111077   3.931   4.566   2.603  1.0822  0.3271 -0.4683
    72IDQ   C6211078   3.806   4.478   2.604  0.4193 -0.1343  0.0636
    72IDQ   C6311079   3.729   4.434   2.729 -0.1353 -0.2759  0.0648
    72IDQ   C6411080   3.698   4.542   2.834  0.1015 -0.2270 -0.0823
    72IDQ   C6511081   3.609   4.480   2.937 -0.5886  0.2163 -0.3559
    72IDQ   C6611082   4.272   3.993   2.958  0.5660  0.2366 -0.1401
    72IDQ   C6711083   4.286   4.039   3.103 -0.3322  0.2784  0.0389
    72IDQ   C6811084   4.416   4.105   3.143  0.3445 -0.5877 -0.5145
    72IDQ   C6911085   4.426   4.156   3.292  0.1490 -0.0674  0.6746
    72IDQ   C7011086   4.370   4.072   3.413  0.8180 -0.6724 -0.0691
    72IDQ   C7111087   4.400   4.151   3.540 -0.5205  0.6070 -0.6270
    72IDQ   C7211088   4.306   4.090   3.644  0.2147  0.0015 -0.1585
    11RH     C111089   4.877   6.435   3.924  0.1591  0.0613  0.0299
    11RH     C211090   4.756   6.363   3.971  0.2083 -0.0170  0.0368
    11RH     N111091   4.958   6.352   3.844  0.2107  0.1126  0.0290
    11RH     S111092   4.757   6.191   3.907  0.3193 -0.0183  0.0419
    11RH     C311093   4.917   6.222   3.821  0.2953  0.0848  0.0345
    11RH     C411094   5.082   6.406   3.781 -0.2244 -0.3292 -0.0007
    11RH     S211095   4.996   6.104   3.731  0.3699  0.1336  0.0348
    11RH     O111096   4.905   6.553   3.949  0.0823  0.0813  0.0252
    11RH     C511097   4.662   6.419   4.048  0.1743 -0.0765  0.0391
    21BTZ    C611098   4.547   6.365   4.124  0.0640 -0.0570  0.0527
    21BTZ    C711099   4.518   6.231   4.126  0.0393 -0.0546 -0.1522
    21BTZ    C811100   4.454   6.456   4.184  0.0221 -0.1194  0.0827
    21BTZ    C911101   4.397   6.180   4.185 -0.0274 -0.1131 -0.3366
    21BTZ   C1011102   4.305   6.263   4.243 -0.0694 -0.1738 -0.3159
    21BTZ   C1111103   4.331   6.404   4.244 -0.0458 -0.1789 -0.1047
    21BTZ    N211104   4.471   6.588   4.189  0.0405 -0.1281  0.2742
    21BTZ    N311105   4.248   6.495   4.298 -0.0819 -0.2353 -0.0639
    21BTZ    S311106   4.327   6.654   4.272 -0.0297 -0.2144  0.2216
    31IDT   C1211107   4.185   6.205   4.305 -0.1376  0.2256 -0.2014
    31IDT   C1311108   4.087   6.263   4.380  0.0144  0.1942  0.0257
    31IDT   C1411109   3.995   6.168   4.435  0.3475  0.1398  0.4946
    31IDT   C1511110   4.024   6.037   4.403  0.4516  0.1295  0.6274
    31IDT    S411111   4.170   6.024   4.299  0.1327  0.1882  0.1649
    4IDB    C1611112   3.932   5.950   4.477  0.3927  0.1515  0.1274
    4IDB    C1711113   3.840   6.028   4.555  0.1518 -0.0925  0.0892
    51IDQ   C1811114   3.877   6.177   4.539 -0.3369  0.4968  0.4429
    4IDB    C1911115   3.748   5.967   4.639  0.1577 -0.3447 -0.0851
    51IDQ   C2011116   3.740   6.250   4.508 -0.1508  0.4270  0.5696
    51IDQ   C2111117   3.924   6.264   4.660 -0.2035 -0.2553 -0.2457
    51IDQ   C2211118   3.947   6.206   4.805  0.0446  0.0038 -0.1193
    51IDQ   C2311119   3.716   6.314   4.366  0.1450  0.2866 -0.4980
    51IDQ   C2411120   4.073   6.113   4.812  0.0566 -0.3388 -0.0412
    51IDQ   C2511121   4.121   6.073   4.948  0.3578  0.0644  0.1176
    51IDQ   C2611122   4.224   5.966   4.925  0.5276 -0.0746  0.0179
    51IDQ   C2711123   4.281   5.898   5.046  0.0744 -0.2367  0.8577
    51IDQ   C2811124   4.184   5.816   5.131  0.5631 -1.5754  0.2273
    51IDQ   C2911125   4.250   5.775   5.258  0.2130 -0.0788 -0.2695
    51IDQ   C3011126   3.805   6.436   4.340  0.1989 -0.2717  0.1602
    51IDQ   C3111127   3.819   6.553   4.433  0.1506  0.1155 -0.6779
    51IDQ   C3211128   3.937   6.650   4.408  0.1157 -0.1447 -0.2313
    51IDQ   C3311129   3.960   6.761   4.511 -0.6518 -0.4163  0.6944
    51IDQ   C3411130   4.075   6.859   4.488  0.1344 -0.2044 -0.0900
    51IDQ   C3511131   4.080   6.966   4.597  0.0366 -0.7080  0.0551
    4IDB    C3611132   3.932   5.810   4.485  0.6423  0.1445 -0.0092
    4IDB    C3711133   3.838   5.749   4.572  0.6442 -0.1150 -0.1863
    11RH    C3811134   5.072   6.452   3.636  0.1624  0.3277  0.5130
    4IDB    C3911135   3.749   5.826   4.646  0.4072 -0.3518 -0.2217
    62IDT   C4011136   3.659   5.742   4.719  0.3913 -0.3805 -0.0309
    72IDQ   C4111137   3.825   5.601   4.615 -1.0702 -0.1441 -0.1717
    62IDT   C4211138   3.701   5.611   4.704  0.0539 -0.4849 -0.0714
    72IDQ   C4311139   3.960   5.555   4.685  0.0190  0.8339  0.2425
    72IDQ   C4411140   3.810   5.511   4.487 -0.6804 -0.2244 -0.1204
    62IDT    S511141   3.510   5.755   4.819  0.2806 -0.0506 -0.2336
    62IDT   C4511142   3.512   5.574   4.837 -0.2414 -0.0725 -0.3692
    62IDT   C4611143   3.618   5.516   4.771 -0.3042 -0.3108 -0.2627
    82BTZ   C4711144   3.416   5.501   4.921  0.2960 -0.3801  0.3121
    82BTZ   C4811145   3.380   5.375   4.882  0.3114 -0.4185  0.4200
    82BTZ   C4911146   3.305   5.287   4.968  0.1740 -0.2913  0.4301
    82BTZ   C5011147   3.265   5.326   5.093  0.0212 -0.1257  0.3320
    82BTZ   C5111148   3.377   5.546   5.052  0.1384 -0.2083  0.2068
    82BTZ   C5211149   3.300   5.457   5.139 -0.0013 -0.0789  0.2171
    92RH    C5311150   3.193   5.242   5.192  0.2075 -0.1898  0.2307
    82BTZ    N411151   3.406   5.667   5.101  0.1079 -0.1554  0.0967
    82BTZ    N511152   3.268   5.506   5.259 -0.1441  0.0780  0.1150
    82BTZ    S611153   3.335   5.671   5.265 -0.1051  0.0669 -0.0006
    92RH    C5411154   3.154   5.115   5.204  0.1901 -0.1944  0.1210
    92RH     S711155   3.180   4.981   5.082  0.2040 -0.1017  0.0213
    92RH    C5511156   3.081   5.063   5.321  0.1557 -0.2786  0.0621
    92RH     O211157   3.047   5.128   5.421  0.1394 -0.3535  0.1061
    92RH     N611158   3.052   4.925   5.307  0.1434 -0.2642 -0.0531
    92RH    C5611159   3.093   4.861   5.192  0.1638 -0.1786 -0.0937
    92RH    C5711160   2.972   4.860   5.403  0.4642  0.4378 -0.3389
    92RH    C5811161   3.043   4.820   5.535  0.0865  0.6751  0.3025
    92RH     S811162   3.072   4.699   5.150  0.1552 -0.1434 -0.2264
    72IDQ   C5911163   3.733   5.375   4.488 -0.2231 -0.2723 -0.3728
    72IDQ   C6011164   3.734   5.310   4.352  0.4369  0.0025  0.2392
    72IDQ   C6111165   3.651   5.188   4.353 -0.4260  0.5868  0.2780
    72IDQ   C6211166   3.632   5.130   4.212  0.2396  0.3082  0.1467
    72IDQ   C6311167   3.549   5.002   4.217 -0.3363  0.1742 -0.2582
    72IDQ   C6411168   3.550   4.934   4.083  0.2372  0.6323  0.0111
    72IDQ   C6511169   3.680   4.863   4.043 -0.3386  0.0558  0.1037
    72IDQ   C6611170   4.024   5.621   4.809  0.2733  0.0405  0.1742
    72IDQ   C6711171   4.158   5.564   4.846  0.1882  0.2483 -0.8036
    72IDQ   C6811172   4.164   5.417   4.888 -0.4046 -0.7979  0.5113
    72IDQ   C6911173   4.297   5.384   4.944 -0.3887 -0.3545  0.4797
    72IDQ   C7011174   4.329   5.239   4.923 -0.2129  0.3939  0.8379
    72IDQ   C7111175   4.372   5.207   4.776  0.0143  0.1820 -0.4753
    72IDQ   C7211176   4.441   5.072   4.751  0.1519  0.2269  0.2694
    11RH     C111177   4.132   0.577   1.168 -0.1160 -0.1913  0.0752
    11RH     C211178   4.061   0.672   1.079 -0.0474 -0.0876  0.1315
    11RH     N111179   4.082   0.446   1.153 -0.2502 -0.1364  0.0402
    11RH     S111180   3.933   0.583   0.982 -0.1637  0.0754  0.1347
    11RH     C311181   3.980   0.425   1.064 -0.2973 -0.0013  0.0616
    11RH     C411182   4.142   0.330   1.221 -0.5306 -0.0131 -0.1351
    11RH     S211183   3.903   0.279   1.028 -0.4518  0.0882  0.0289
    11RH     O111184   4.225   0.606   1.246 -0.0647 -0.3117  0.0596
    11RH     C511185   4.090   0.803   1.073  0.0803 -0.1132  0.1725
    21BTZ    C611186   4.025   0.916   0.997 -0.1573 -0.0454 -0.1447
    21BTZ    C711187   3.911   0.901   0.922 -0.1859 -0.0706 -0.0956
    21BTZ    C811188   4.085   1.046   1.003 -0.2880  0.0100 -0.0197
    21BTZ    C911189   3.851   1.011   0.851 -0.3436 -0.0428  0.0777
    21BTZ   C1011190   3.905   1.137   0.854 -0.4722  0.0100  0.2016
    21BTZ   C1111191   4.025   1.158   0.931 -0.4481  0.0381  0.1565
    21BTZ    N211192   4.196   1.074   1.072 -0.2751  0.0388 -0.0520
    21BTZ    N311193   4.087   1.276   0.942 -0.5641  0.0897  0.2657
    21BTZ    S311194   4.229   1.248   1.047 -0.4713  0.1046  0.1455
    31IDT   C1211195   3.842   1.238   0.761 -0.0811  0.6181  0.0237
    31IDT   C1311196   3.867   1.372   0.750  0.0182  0.5762 -0.2885
    31IDT   C1411197   3.812   1.430   0.631  0.1476  0.3219 -0.4736
    31IDT   C1511198   3.745   1.340   0.551  0.1477  0.1687 -0.3043
    31IDT    S411199   3.746   1.175   0.620 -0.0176  0.3361  0.1065
    4IDB    C1611200   3.695   1.410   0.433 -0.0279 -0.1321  0.2833
    4IDB    C1711201   3.740   1.545   0.436 -0.3828 -0.0117  0.2464
    51IDQ   C1811202   3.819   1.567   0.566  0.4988 -0.9344 -0.0339
    4IDB    C1911203   3.712   1.632   0.331 -0.3879 -0.1839  0.1050
    51IDQ   C2011204   3.961   1.632   0.527 -0.4053 -0.0661  0.4797
    51IDQ   C2111205   3.760   1.677   0.665 -0.3464  0.8348 -0.1155
    51IDQ   C2211206   3.630   1.760   0.654  0.6821  0.9595  0.1221
    51IDQ   C2311207   4.091   1.563   0.565  0.7232 -0.2337 -0.5440
    51IDQ   C2411208   3.503   1.674   0.656  0.6232 -0.1438 -0.6081
    51IDQ   C2511209   3.386   1.754   0.696  0.2307 -0.0455  0.2058
    51IDQ   C2611210   3.251   1.687   0.707 -0.0755  0.0966 -0.3420
    51IDQ   C2711211   3.136   1.779   0.758 -0.4210  0.2990  0.4043
    51IDQ   C2811212   2.997   1.716   0.775 -0.0826  0.5527  0.1407
    51IDQ   C2911213   2.944   1.619   0.668 -0.4596 -0.2439  0.1393
    51IDQ   C3011214   4.140   1.598   0.706 -0.4536  0.6703 -0.0573
    51IDQ   C3111215   4.275   1.529   0.740 -0.3969 -0.0674 -0.5592
    51IDQ   C3211216   4.310   1.564   0.885 -0.2225 -0.0727 -0.3832
    51IDQ   C3311217   4.444   1.503   0.925  0.2753  0.0767 -0.1887
    51IDQ   C3411218   4.474   1.523   1.068 -0.3723 -0.6488 -0.0077
    51IDQ   C3511219   4.622   1.511   1.090 -0.3962 -0.5695  0.3301
    4IDB    C3611220   3.622   1.360   0.324  0.3260 -0.4274  0.1784
    4IDB    C3711221   3.595   1.450   0.217  0.3150 -0.6000  0.0345
    11RH    C3811222   4.092   0.290   1.360 -0.1912  0.2697  0.3282
    4IDB    C3911223   3.640   1.582   0.221 -0.0341 -0.4791  0.0001
    62IDT   C4011224   3.594   1.656   0.104 -0.1124  0.2148 -0.0244
    72IDQ   C4111225   3.520   1.431   0.083 -0.1739  0.2260  0.6620
    62IDT   C4211226   3.525   1.574   0.017 -0.2270  0.2578  0.0256
    72IDQ   C4311227   3.371   1.379   0.088  0.7032 -0.2789  0.1005
    72IDQ   C4411228   3.595   1.308   0.015 -0.0349 -0.1668  0.1782
    62IDT    S511229   3.611   1.823   0.039  0.2023  0.1286 -0.1693
    62IDT   C4511230   3.519   1.770  -0.109  0.1604  0.1567 -0.1533
    62IDT   C4611231   3.482   1.638  -0.103 -0.0730  0.2250 -0.0471
    82BTZ   C4711232   3.506   1.857  -0.221 -0.3924 -0.0113  0.1550
    82BTZ   C4811233   3.619   1.915  -0.271 -0.3378 -0.0754  0.2038
    82BTZ   C4911234   3.615   2.003  -0.385 -0.2447 -0.0357  0.2311
    82BTZ   C5011235   3.497   2.034  -0.448 -0.2061  0.0680  0.2095
    82BTZ   C5111236   3.380   1.886  -0.283 -0.3551  0.0980  0.1305
    82BTZ   C5211237   3.376   1.976  -0.399 -0.2605  0.1383  0.1583
    92RH    C5311238   3.487   2.130  -0.562 -0.0213  0.0309  0.0368
    82BTZ    N411239   3.263   1.836  -0.243 -0.4014  0.1681  0.0830
    82BTZ    N511240   3.255   1.999  -0.452 -0.2306  0.2409  0.1332
    82BTZ    S611241   3.139   1.904  -0.354 -0.3242  0.2913  0.0716
    92RH    C5411242   3.578   2.212  -0.616  0.0688 -0.0375  0.0829
    92RH     S711243   3.750   2.241  -0.557  0.0131 -0.0583  0.2576
    92RH    C5511244   3.551   2.295  -0.736  0.2331 -0.1091 -0.0037
    92RH     O211245   3.445   2.299  -0.799  0.3056 -0.1142 -0.1268
    92RH     N611246   3.664   2.372  -0.771  0.3002 -0.1725  0.0717
    92RH    C5611247   3.778   2.361  -0.694  0.2096 -0.1605  0.2078
    92RH    C5711248   3.656   2.463  -0.889  0.8116  0.1556 -0.2550
    92RH    C5811249   3.732   2.429  -1.018  0.3467  0.1407 -0.2260
    92RH     S811250   3.925   2.441  -0.715  0.2610 -0.2258  0.3194
    72IDQ   C5911251   3.714   1.321  -0.083  0.0724  0.5400  0.6367
    72IDQ   C6011252   3.843   1.402  -0.062  0.2271  0.0838 -0.4430
    72IDQ   C6111253   3.909   1.401   0.074 -0.1060 -0.4843 -0.3069
    72IDQ   C6211254   3.969   1.271   0.131  0.7362 -0.1364 -0.0842
    72IDQ   C6311255   4.050   1.291   0.258  0.3374 -0.4139 -0.6482
    72IDQ   C6411256   4.068   1.172   0.346  0.0369  0.2234  0.3597
    72IDQ   C6511257   4.156   1.189   0.470 -0.3798 -0.3942  0.2484
    72IDQ   C6611258   3.280   1.400   0.214  0.0317 -0.9115 -0.4219
    72IDQ   C6711259   3.255   1.542   0.262  0.1476 -0.3233  0.5333
    72IDQ   C6811260   3.176   1.618   0.152 -0.2749  0.4363 -0.1194
    72IDQ   C6911261   3.177   1.777   0.167  0.5670  0.6027 -0.4370
    72IDQ   C7011262   3.081   1.837   0.065  0.1464  0.3100 -0.1160
    72IDQ   C7111263   2.935   1.824   0.100  0.8452  0.3362  0.2143
    72IDQ   C7211264   2.846   1.886  -0.006  0.3441  0.8304  0.0057
    11RH     C111265   0.952   3.711   6.450 -0.0847  0.0565  0.0941
    11RH     C211266   0.893   3.847   6.447  0.0906  0.1382  0.2563
    11RH     N111267   1.093   3.717   6.466 -0.0788 -0.1437  0.1129
    11RH     S111268   1.026   3.973   6.464  0.2519 -0.0533  0.4233
    11RH     C311269   1.153   3.840   6.475  0.0798 -0.2322  0.2706
    11RH     C411270   1.178   3.598   6.451 -0.2305 -0.1328 -0.6021
    11RH     S211271   1.317   3.874   6.494  0.1221 -0.4669  0.3266
    11RH     O111272   0.889   3.605   6.441 -0.2216  0.1485 -0.0429
    11RH     C511273   0.762   3.870   6.433  0.1210  0.3245  0.2729
    21BTZ    C611274   0.685   3.993   6.416  0.1985  0.3382  0.0709
    21BTZ    C711275   0.744   4.117   6.407  0.0796  0.3914  0.0190
    21BTZ    C811276   0.542   3.984   6.410  0.2078  0.1955  0.0553
    21BTZ    C911277   0.665   4.237   6.391 -0.0355  0.3077 -0.0508
    21BTZ   C1011278   0.529   4.233   6.384 -0.0314  0.1707 -0.0682
    21BTZ   C1111279   0.462   4.107   6.393  0.0909  0.1105 -0.0156
    21BTZ    N211280   0.473   3.870   6.417  0.3181  0.1320  0.1016
    21BTZ    N311281   0.330   4.090   6.388  0.1071 -0.0217 -0.0262
    21BTZ    S311282   0.300   3.915   6.403  0.2763 -0.0430  0.0554
    31IDT   C1211283   0.460   4.362   6.383 -0.4643  0.2114 -0.2746
    31IDT   C1311284   0.338   4.397   6.330 -0.5708  0.5840  0.2110
    31IDT   C1411285   0.313   4.538   6.338 -0.2048  0.6366  0.5097
    31IDT   C1511286   0.415   4.610   6.396  0.1824  0.3051  0.2550
    31IDT    S411287   0.552   4.505   6.446  0.1127 -0.1029 -0.3893
    4IDB    C1611288   0.373   4.743   6.411  0.2254 -0.1155  0.1609
    4IDB    C1711289   0.242   4.763   6.358  0.3594  0.0907 -0.0958
    51IDQ   C1811290   0.200   4.629   6.295  0.2991  0.0208  0.3377
    4IDB    C1911291   0.177   4.885   6.373  0.5064  0.1821 -0.1934
    51IDQ   C2011292   0.056   4.606   6.349  0.1749  0.5668 -1.1044
    51IDQ   C2111293   0.179   4.635   6.133  0.7561  0.4953 -0.4581
    51IDQ   C2211294   0.201   4.759   6.050  0.6686  0.5470  0.8333
    51IDQ   C2311295   0.016   4.491   6.442 -0.7381 -0.4206 -0.7082
    51IDQ   C2411296   0.178   4.748   5.899  0.5961 -0.2739 -0.1853
    51IDQ   C2511297   0.253   4.632   5.834  0.2843 -0.2812 -0.2410
    51IDQ   C2611298   0.212   4.581   5.694 -0.2371 -0.9070  0.1489
    51IDQ   C2711299   0.303   4.470   5.633  0.2564 -0.1333  0.3050
    51IDQ   C2811300   0.451   4.500   5.641  0.0826  0.3616 -0.2770
    51IDQ   C2911301   0.536   4.387   5.595 -0.0598  0.0515 -0.6195
    51IDQ   C3011302  -0.123   4.512   6.502 -0.8294  0.6097 -0.5801
    51IDQ   C3111303  -0.142   4.399   6.595  0.4808  0.9560  0.2698
    51IDQ   C3211304  -0.292   4.356   6.584 -0.0598  0.2153  0.2688
    51IDQ   C3311305  -0.339   4.268   6.466 -0.5697 -0.3610 -0.1398
    51IDQ   C3411306  -0.327   4.316   6.315  0.1993  0.1416 -0.7730
    51IDQ   C3511307  -0.396   4.219   6.219  0.2394 -0.7640 -0.0488
    4IDB    C3611308   0.440   4.845   6.480  0.2377 -0.2320  0.3223
    4IDB    C3711309   0.372   4.969   6.494  0.3888 -0.1359  0.2193
    11RH    C3811310   1.204   3.509   6.568  0.0055 -0.0697  0.1043
    4IDB    C3911311   0.244   4.987   6.442  0.5187  0.0657 -0.0318
    62IDT   C4011312   0.200   5.119   6.460 -0.4802 -0.3809  0.2356
    72IDQ   C4111313   0.414   5.093   6.571  0.1532 -0.8339 -0.1762
    62IDT   C4211314   0.290   5.186   6.539 -0.4165 -0.8694  0.5831
    72IDQ   C4311315   0.553   5.161   6.522  0.3350  0.5824  0.7029
    72IDQ   C4411316   0.452   5.069   6.726  0.2185  0.2937 -0.1939
    62IDT    S511317   0.060   5.222   6.415  0.0804  0.2795 -0.0369
    62IDT   C4511318   0.134   5.357   6.512  0.3865 -0.1607  0.3520
    62IDT   C4611319   0.253   5.321   6.569  0.0735 -0.7454  0.6492
    82BTZ   C4711320   0.071   5.494   6.515 -0.3261  0.0642 -0.0760
    82BTZ   C4811321  -0.032   5.517   6.428 -0.3690  0.0552 -0.0285
    82BTZ   C4911322  -0.115   5.634   6.438 -0.2921  0.1135 -0.0687
    82BTZ   C5011323  -0.096   5.728   6.536 -0.1726  0.1807 -0.1565
    82BTZ   C5111324   0.095   5.589   6.619 -0.2016  0.1336 -0.1681
    82BTZ   C5211325   0.010   5.708   6.630 -0.1235  0.1930 -0.2090
    92RH    C5311326  -0.186   5.841   6.546  0.2430 -0.2137 -0.0861
    82BTZ    N411327   0.192   5.578   6.711 -0.1494  0.1493 -0.2215
    82BTZ    N511328   0.039   5.792   6.729 -0.0085  0.2561 -0.2952
    82BTZ    S611329   0.178   5.722   6.816  0.0050  0.2421 -0.3282
    92RH    C5411330  -0.294   5.877   6.477  0.2409 -0.1303 -0.0391
    92RH     S711331  -0.361   5.797   6.326  0.3164  0.1379 -0.2149
    92RH    C5511332  -0.381   5.992   6.515  0.1749 -0.2475  0.1701
    92RH     O211333  -0.363   6.067   6.612  0.1149 -0.4327  0.3237
    92RH     N611334  -0.488   6.008   6.424  0.1885 -0.1213  0.1755
    92RH    C5611335  -0.499   5.919   6.319  0.2571  0.0825 -0.0036
    92RH    C5711336  -0.593   6.109   6.451  0.2517 -0.3148  0.4388
    92RH    C5811337  -0.546   6.244   6.406  0.0342 -0.1251  0.4806
    92RH     S811338  -0.617   5.916   6.199  0.2869  0.2638 -0.0385
    72IDQ   C5911339   0.351   5.050   6.839  0.1068  0.0204 -0.2329
    72IDQ   C6011340   0.249   4.929   6.828 -0.7173 -0.9719  0.0461
    72IDQ   C6111341   0.319   4.794   6.848 -0.2083 -0.6456  0.4563
    72IDQ   C6211342   0.227   4.682   6.814  0.8819 -0.3120  0.0551
    72IDQ   C6311343   0.299   4.544   6.837  0.2306  0.6813  0.0049
    72IDQ   C6411344   0.209   4.436   6.781  0.9189  0.5825 -0.6690
    72IDQ   C6511345   0.270   4.293   6.780 -0.3703  0.1133  0.0196
    72IDQ   C6611346   0.573   5.175   6.371  0.1796 -0.0330 -0.3328
    72IDQ   C6711347   0.713   5.213   6.342  0.0914 -0.2124  0.4510
    72IDQ   C6811348   0.739   5.196   6.190  0.7570 -0.5336  0.5515
    72IDQ   C6911349   0.873   5.231   6.139 -0.0843  0.3575 -0.0687
    72IDQ   C7011350   0.893   5.217   5.989  0.4797  0.0360  0.6679
    72IDQ   C7111351   1.037   5.223   5.940 -0.1055 -0.3182 -0.7349
    72IDQ   C7211352   1.049   5.218   5.785  0.1405 -0.1451  0.4970
    11RH     C111353   1.173   5.987   6.626  0.5516 -0.3043  0.3538
    11RH     C211354   1.188   6.092   6.730  0.3333 -0.2486  0.3296
    11RH     N111355   1.068   5.898   6.657  0.3523 -0.1662  0.0801
    11RH     S111356   1.063   6.066   6.862 -0.1198 -0.0178 -0.0515
    11RH     C311357   0.997   5.919   6.773  0.0011 -0.0066 -0.1604
    11RH     C411358   1.051   5.779   6.565 -0.0472  0.3015 -0.2459
    11RH     S211359   0.868   5.828   6.832 -0.2923  0.1780 -0.5085
    11RH     O111360   1.243   5.977   6.524  0.8694 -0.4526  0.5825
    11RH     C511361   1.280   6.188   6.725  0.4583 -0.3545  0.5569
    21BTZ    C611362   1.321   6.295   6.809  0.0839  0.1899 -0.1576
    21BTZ    C711363   1.257   6.319   6.928  0.0718  0.1262 -0.1511
    21BTZ    C811364   1.433   6.377   6.773  0.1338  0.1620 -0.0675
    21BTZ    C911365   1.299   6.425   7.016  0.1079  0.0328 -0.0563
    21BTZ   C1011366   1.405   6.506   6.986  0.1560  0.0030  0.0318
    21BTZ   C1111367   1.476   6.485   6.863  0.1705  0.0671  0.0289
    21BTZ    N211368   1.503   6.363   6.660  0.1500  0.2177 -0.0642
    21BTZ    N311369   1.580   6.557   6.823  0.2162  0.0464  0.1095
    21BTZ    S311370   1.630   6.490   6.664  0.2142  0.1496  0.0649
    31IDT   C1211371   1.426   6.626   7.069  0.0399 -0.4444  0.2257
    31IDT   C1311372   1.541   6.699   7.087  0.0926 -0.4983  0.1079
    31IDT   C1411373   1.527   6.801   7.186  0.0766 -0.1364 -0.2635
    31IDT   C1511374   1.402   6.807   7.244  0.0119  0.1953 -0.4310
    31IDT    S411375   1.291   6.682   7.177 -0.0344  0.0736 -0.1285
    4IDB    C1611376   1.399   6.911   7.345 -0.0369  0.5395 -0.3776
    4IDB    C1711377   1.531   6.965   7.357  0.0723  0.1871  0.1163
    51IDQ   C1811378   1.620   6.912   7.245  0.1132  0.7078 -0.2338
    4IDB    C1911379   1.561   7.059   7.455 -0.0143  0.0191  0.3040
    51IDQ   C2011380   1.659   7.031   7.152  0.3591 -0.4201 -0.0856
    51IDQ   C2111381   1.758   6.838   7.277  0.2530 -0.6123 -0.0294
    51IDQ   C2211382   1.807   6.825   7.424  0.2922  0.0192  0.1318
    51IDQ   C2311383   1.591   7.054   7.015  0.1160  0.4737 -0.8486
    51IDQ   C2411384   1.934   6.747   7.460  0.1399  0.2175 -0.0613
    51IDQ   C2511385   2.067   6.762   7.397  0.3330  0.1919  0.4443
    51IDQ   C2611386   2.174   6.706   7.490  0.2480 -0.4427  0.8339
    51IDQ   C2711387   2.311   6.739   7.435 -0.6843 -0.0219 -0.2962
    51IDQ   C2811388   2.426   6.668   7.515 -0.1194 -0.7729  0.1836
    51IDQ   C2911389   2.557   6.695   7.441 -0.2628 -0.6444  0.1757
    51IDQ   C3011390   1.618   7.193   6.960  0.2327 -0.1900  0.0490
    51IDQ   C3111391   1.547   7.209   6.830  0.7131 -0.1057  0.1498
    51IDQ   C3211392   1.522   7.350   6.773 -0.7156  0.3169  0.2116
    51IDQ   C3311393   1.432   7.346   6.654  0.5565 -0.8613 -0.9091
    51IDQ   C3411394   1.383   7.493   6.629  0.4287 -0.1869  1.0179
    51IDQ   C3511395   1.304   7.507   6.499  0.0007 -0.1083 -0.0804
    4IDB    C3611396   1.297   6.950   7.433 -0.2345  0.7269 -0.6883
    4IDB    C3711397   1.330   7.046   7.533 -0.3206  0.5509 -0.4900
    11RH    C3811398   1.134   5.661   6.609  0.1963  0.1666  0.3804
    4IDB    C3911399   1.459   7.098   7.543 -0.2119  0.2065 -0.0066
    62IDT   C4011400   1.472   7.170   7.664 -0.2815 -0.2442  0.0592
    72IDQ   C4111401   1.244   7.108   7.649 -0.4859  0.0461  0.5757
    62IDT   C4211402   1.353   7.173   7.734 -0.2413 -0.1415  0.1237
    72IDQ   C4311403   1.172   6.995   7.727 -0.4704 -0.4935 -0.4740
    72IDQ   C4411404   1.136   7.213   7.603  0.3855  0.0356  0.4986
    62IDT    S511405   1.603   7.257   7.750 -0.2217 -0.1501 -0.1250
    62IDT   C4511406   1.485   7.294   7.883 -0.1415  0.0320 -0.1040
    62IDT   C4611407   1.360   7.243   7.858 -0.1621  0.0148  0.0316
    82BTZ   C4711408   1.544   7.377   7.992 -0.2520  0.1659 -0.1354
    82BTZ   C4811409   1.597   7.498   7.955 -0.3815  0.2160 -0.1587
    82BTZ   C4911410   1.653   7.588   8.052 -0.3926  0.2539 -0.1875
    82BTZ   C5011411   1.656   7.558   8.186 -0.2743  0.2416 -0.1929
    82BTZ   C5111412   1.545   7.340   8.131 -0.1250  0.1511 -0.1399
    82BTZ   C5211413   1.602   7.433   8.229 -0.1363  0.1896 -0.1692
    92RH    C5311414   1.701   7.649   8.287  0.2858 -0.1265  0.0462
    82BTZ    N411415   1.496   7.226   8.179  0.0070  0.1035 -0.1189
    82BTZ    N511416   1.599   7.392   8.356 -0.0133  0.1730 -0.1718
    82BTZ    S611417   1.522   7.230   8.355  0.1250  0.1060 -0.1361
    92RH    C5411418   1.748   7.774   8.287  0.1103 -0.0596  0.0385
    92RH     S711419   1.776   7.881   8.141 -0.0712 -0.0166  0.0344
    92RH    C5511420   1.786   7.847   8.411  0.0342 -0.0086  0.0318
    92RH     O211421   1.778   7.802   8.526  0.1220 -0.0213  0.0325
    92RH     N611422   1.832   7.977   8.382 -0.1544  0.0581  0.0243
    92RH    C5611423   1.837   8.017   8.250 -0.2388  0.0667  0.0242
    92RH    C5711424   1.887   8.057   8.497  0.2539  0.2772  0.0019
    92RH    C5811425   1.785   8.153   8.555 -0.2082 -0.0450 -0.3237
    92RH     S811426   1.888   8.166   8.189 -0.4604  0.1403  0.0161
    72IDQ   C5911427   1.089   7.235   7.458 -0.1366 -0.0299  0.1271
    72IDQ   C6011428   1.185   7.277   7.338 -0.8985  0.1298 -0.6511
    72IDQ   C6111429   1.122   7.313   7.212  0.6567  0.1088  0.3968
    72IDQ   C6211430   1.199   7.376   7.097 -0.4495 -0.1899  0.5209
    72IDQ   C6311431   1.253   7.520   7.112  0.5926  0.2589 -0.7490
    72IDQ   C6411432   1.278   7.588   6.979 -0.2506 -0.2119 -0.3728
    72IDQ   C6511433   1.394   7.693   6.987  0.4729  0.8440 -0.5628
    72IDQ   C6611434   1.067   6.910   7.674  0.0002 -0.2946  0.3582
    72IDQ   C6711435   1.033   6.791   7.770 -0.7134 -1.0822  0.1964
    72IDQ   C6811436   0.935   6.691   7.726  0.0807 -0.8591 -0.3816
    72IDQ   C6911437   0.915   6.575   7.824  0.6323  0.0355 -0.5140
    72IDQ   C7011438   0.797   6.482   7.797  0.2460 -0.1533 -0.3968
    72IDQ   C7111439   0.812   6.410   7.663  0.3339  0.6495 -0.2758
    72IDQ   C7211440   0.693   6.314   7.642  0.0661 -0.1879  0.3361
    11RH     C111441   4.953   4.754   5.452  0.2314 -0.2433  0.1677
    11RH     C211442   5.077   4.753   5.371  0.1193 -0.1233 -0.0055
    11RH     N111443   4.972   4.822   5.574  0.3471 -0.2585  0.1584
    11RH     S111444   5.210   4.842   5.460  0.1734 -0.0382 -0.1690
    11RH     C311445   5.096   4.875   5.601  0.3417 -0.1653 -0.0008
    11RH     C411446   4.851   4.844   5.664 -0.3664  0.7385 -0.1412
    11RH     S211447   5.144   4.960   5.738  0.4646 -0.1606 -0.0470
    11RH     O111448   4.845   4.702   5.419  0.2267 -0.3221  0.3055
    11RH     C511449   5.086   4.696   5.250 -0.0016 -0.0861 -0.0326
    21BTZ    C611450   5.185   4.710   5.143  0.1669 -0.2006 -0.0400
    21BTZ    C711451   5.290   4.798   5.149  0.2325 -0.2722 -0.1411
    21BTZ    C811452   5.169   4.629   5.026  0.0105 -0.2052 -0.0168
    21BTZ    C911453   5.385   4.809   5.041  0.1481 -0.3511 -0.2241
    21BTZ   C1011454   5.374   4.734   4.927 -0.0014 -0.3582 -0.2060
    21BTZ   C1111455   5.266   4.641   4.916 -0.0751 -0.2853 -0.1012
    21BTZ    N211456   5.071   4.540   5.009 -0.0658 -0.1397  0.0787
    21BTZ    N311457   5.245   4.561   4.811 -0.2203 -0.2846 -0.0736
    21BTZ    S311458   5.098   4.466   4.848 -0.2544 -0.1788  0.0644
    31IDT   C1211459   5.482   4.738   4.829 -0.0367 -0.0065  0.3218
    31IDT   C1311460   5.553   4.632   4.781 -0.0424 -0.0170  0.3370
    31IDT   C1411461   5.656   4.670   4.690 -0.0463 -0.0362  0.3251
    31IDT   C1511462   5.664   4.806   4.668 -0.0434 -0.0403  0.3005
    31IDT    S411463   5.541   4.897   4.762 -0.0356 -0.0201  0.2908
    4IDB    C1611464   5.766   4.833   4.573  0.2226  0.2380  0.0157
    4IDB    C1711465   5.832   4.714   4.532  0.0819  0.1694 -0.0136
    51IDQ   C1811466   5.765   4.595   4.604 -0.2175 -0.4006 -0.0387
    4IDB    C1911467   5.937   4.719   4.441  0.0416  0.0607 -0.0663
    51IDQ   C2011468   5.708   4.511   4.484  0.5423 -0.0917  0.5494
    51IDQ   C2111469   5.855   4.498   4.700  0.2024 -0.0675 -0.0447
    51IDQ   C2211470   5.984   4.551   4.761 -0.1350 -0.3412  0.0369
    51IDQ   C2311471   5.558   4.496   4.463 -0.5979 -0.2865  0.1440
    51IDQ   C2411472   6.060   4.463   4.854 -0.1841  0.4880 -0.1701
    51IDQ   C2511473   6.186   4.518   4.920 -0.2902  0.2100  0.0783
    51IDQ   C2611474   6.250   4.433   5.027  0.3649  0.6458 -0.0353
    51IDQ   C2711475   6.161   4.395   5.154  0.0032 -0.1889 -0.2154
    51IDQ   C2811476   6.232   4.330   5.265 -0.3453  0.7193  0.2022
    51IDQ   C2911477   6.141   4.270   5.378  0.2878 -0.0800  0.2520
    51IDQ   C3011478   5.528   4.411   4.336  0.2090  0.6255 -0.2622
    51IDQ   C3111479   5.376   4.365   4.339 -0.7199  0.0652 -0.1094
    51IDQ   C3211480   5.268   4.467   4.312 -0.8879 -0.8924 -0.7905
    51IDQ   C3311481   5.232   4.487   4.168  0.7438 -0.1758  0.1234
    51IDQ   C3411482   5.139   4.598   4.129 -0.2639 -0.2555  0.0013
    51IDQ   C3511483   5.090   4.607   3.985 -0.3997 -0.2485  0.2840
    4IDB    C3611484   5.804   4.959   4.524  0.3245  0.1979 -0.0079
    4IDB    C3711485   5.912   4.962   4.431  0.2813  0.0865 -0.0620
    11RH    C3811486   4.767   4.962   5.638  0.8562 -0.0110  0.2346
    4IDB    C3911487   5.976   4.845   4.391  0.1434  0.0205 -0.0901
    62IDT   C4011488   6.076   4.881   4.292  0.2307  0.0410  0.2572
    72IDQ   C4111489   5.983   5.083   4.362  0.9441 -0.5353 -0.9141
    62IDT   C4211490   6.078   5.017   4.271  0.5541  0.0669  0.4481
    72IDQ   C4311491   6.064   5.170   4.460  0.2766  0.0629 -0.4655
    72IDQ   C4411492   5.894   5.184   4.278 -0.1301 -0.5197  0.3376
    62IDT    S511493   6.198   4.796   4.191 -0.1056 -0.1321 -0.0110
    62IDT   C4511494   6.248   4.958   4.124  0.2246 -0.1616  0.1572
    62IDT   C4611495   6.175   5.061   4.176  0.5510 -0.0476  0.3920
    82BTZ   C4711496   6.356   4.961   4.026 -0.4777 -0.3304 -0.1211
    82BTZ   C4811497   6.458   4.870   4.028 -0.5306 -0.3884 -0.0716
    82BTZ   C4911498   6.559   4.866   3.925 -0.3607 -0.3068  0.0911
    82BTZ   C5011499   6.557   4.954   3.820 -0.1378 -0.1673  0.2041
    82BTZ   C5111500   6.350   5.056   3.918 -0.2466 -0.1849 -0.0071
    82BTZ   C5211501   6.453   5.052   3.813 -0.0739 -0.1019  0.1583
    92RH    C5311502   6.648   4.955   3.708 -0.1089  0.0070 -0.0873
    82BTZ    N411503   6.256   5.149   3.905 -0.1744 -0.1167 -0.0409
    82BTZ    N511504   6.441   5.143   3.716  0.1373  0.0329  0.2574
    82BTZ    S611505   6.295   5.239   3.755  0.1240  0.0603  0.1412
    92RH    C5411506   6.752   4.873   3.687 -0.0477  0.0689 -0.0269
    92RH     S711507   6.818   4.747   3.802 -0.0420  0.1052  0.0097
    92RH    C5511508   6.832   4.874   3.562  0.0272  0.1189  0.0209
    92RH     O211509   6.813   4.948   3.464  0.0421  0.1100  0.0111
    92RH     N611510   6.935   4.778   3.566  0.0815  0.1799  0.0806
    92RH    C5611511   6.948   4.700   3.680  0.0592  0.1847  0.0864
    92RH    C5711512   7.033   4.767   3.455 -0.4894  0.3563 -0.4565
    92RH    C5811513   7.172   4.832   3.471 -1.1585 -0.3643 -0.0993
    92RH     S811514   7.062   4.580   3.710  0.1123  0.2512  0.1518
    72IDQ   C5911515   5.750   5.162   4.241 -0.2965  0.3338  0.1936
    72IDQ   C6011516   5.677   5.280   4.177  0.3185  0.3209  0.0100
    72IDQ   C6111517   5.529   5.249   4.151  0.3657  0.8213  0.0469
    72IDQ   C6211518   5.459   5.374   4.091 -0.3821  0.4114  0.3303
    72IDQ   C6311519   5.493   5.436   3.958 -0.5751  0.9588  0.3328
    72IDQ   C6411520   5.493   5.343   3.840 -0.0473 -0.6327  0.6197
    72IDQ   C6511521   5.494   5.419   3.704 -0.4602  0.8901 -0.1280
    72IDQ   C6611522   5.974   5.258   4.562 -0.7921 -0.2040  0.0428
    72IDQ   C6711523   6.060   5.363   4.638  0.1304  0.0340  0.1678
    72IDQ   C6811524   6.146   5.454   4.551 -0.1181 -0.2020 -0.0318
    72IDQ   C6911525   6.230   5.547   4.636 -0.1478  0.2388  0.2243
    72IDQ   C7011526   6.327   5.624   4.548  0.1087  0.0954 -0.1497
    72IDQ   C7111527   6.375   5.750   4.623  0.1998  0.7524 -0.3730
    72IDQ   C7211528   6.470   5.835   4.538  0.6249  0.6532  0.0386
    11RH     C111529   2.452   1.514   3.047  0.2006 -0.1158  0.1569
    11RH     C211530   2.492   1.657   3.044  0.1125 -0.0923  0.1003
    11RH     N111531   2.412   1.474   3.177  0.1179 -0.0587  0.1494
    11RH     S111532   2.475   1.730   3.212 -0.0732  0.0033  0.0409
    11RH     C311533   2.416   1.568   3.278 -0.0256  0.0076  0.0938
    11RH     C411534   2.368   1.336   3.207 -0.6231 -0.0419 -0.5562
    11RH     S211535   2.375   1.547   3.440 -0.1470  0.0839  0.0730
    11RH     O111536   2.452   1.437   2.950  0.3307 -0.1774  0.2055
    11RH     C511537   2.533   1.719   2.933  0.1650 -0.1359  0.0952
    21BTZ    C611538   2.576   1.863   2.917 -0.0286 -0.1630 -0.1854
    21BTZ    C711539   2.589   1.952   3.020 -0.2195 -0.1863 -0.1391
    21BTZ    C811540   2.609   1.905   2.784  0.1320 -0.1048 -0.1272
    21BTZ    C911541   2.636   2.087   2.997 -0.2621 -0.1538 -0.0339
    21BTZ   C1011542   2.669   2.132   2.872 -0.1137 -0.0981  0.0247
    21BTZ   C1111543   2.656   2.042   2.761  0.0887 -0.0718 -0.0204
    21BTZ    N211544   2.600   1.827   2.676  0.3241 -0.0773 -0.1639
    21BTZ    N311545   2.685   2.074   2.635  0.2460 -0.0178  0.0289
    21BTZ    S311546   2.653   1.927   2.537  0.4605 -0.0067 -0.0611
    31IDT   C1211547   2.717   2.269   2.857  0.5968  0.0499  0.0668
    31IDT   C1311548   2.835   2.317   2.907  0.5253  0.3804 -0.0807
    31IDT   C1411549   2.866   2.449   2.860  0.0998  0.4664 -0.1207
    31IDT   C1511550   2.771   2.501   2.774 -0.1552  0.2027 -0.0042
    31IDT    S411551   2.635   2.387   2.746  0.1262 -0.1786  0.1667
    4IDB    C1611552   2.815   2.625   2.720 -0.1302  0.1076  0.1963
    4IDB    C1711553   2.946   2.656   2.768 -0.1817  0.2327  0.2558
    51IDQ   C1811554   2.980   2.549   2.876  0.1694  0.0505 -0.2234
    4IDB    C1911555   3.020   2.759   2.712 -0.1267  0.0956  0.0721
    51IDQ   C2011556   3.120   2.497   2.814  0.1925  0.3707 -0.6725
    51IDQ   C2111557   3.010   2.598   3.020 -0.3259 -0.1777  0.0965
    51IDQ   C2211558   3.002   2.747   3.058  0.1358  0.2693 -0.0926
    51IDQ   C2311559   3.135   2.377   2.729  0.6350  0.3203  0.4453
    51IDQ   C2411560   2.857   2.799   3.054 -0.1833  0.1777  0.2181
    51IDQ   C2511561   2.846   2.944   3.078  0.3818  0.0431 -0.4748
    51IDQ   C2611562   2.709   3.014   3.076 -0.1456  0.0177  0.0829
    51IDQ   C2711563   2.722   3.162   3.074  0.3762  0.1019 -0.6674
    51IDQ   C2811564   2.588   3.246   3.057 -0.4104 -0.3407  0.5186
    51IDQ   C2911565   2.632   3.383   2.996  0.4584 -0.4758 -0.3476
    51IDQ   C3011566   3.078   2.385   2.588 -0.4060 -0.2410 -0.2910
    51IDQ   C3111567   3.064   2.249   2.522 -0.6658  0.0262  0.2952
    51IDQ   C3211568   2.962   2.250   2.406  0.0861 -0.0679 -0.0318
    51IDQ   C3311569   2.925   2.122   2.334  0.0631  0.1286 -0.2618
    51IDQ   C3411570   3.040   2.058   2.260 -0.4184  0.1445 -0.3491
    51IDQ   C3511571   3.010   1.928   2.187 -0.2954 -0.0885 -0.3516
    4IDB    C3611572   2.758   2.698   2.615 -0.0228 -0.1571 -0.0489
    4IDB    C3711573   2.835   2.803   2.559  0.0322 -0.2941 -0.2342
    11RH    C3811574   2.485   1.239   3.223  0.0094 -0.6323 -0.3375
    4IDB    C3911575   2.963   2.832   2.607 -0.0193 -0.1691 -0.1729
    62IDT   C4011576   3.015   2.952   2.540  0.1795  0.0522  0.0726
    72IDQ   C4111577   2.794   2.912   2.452  0.1520 -0.0099 -0.0634
    62IDT   C4211578   2.923   2.993   2.446 -0.0237  0.0113  0.2517
    72IDQ   C4311579   2.675   2.992   2.524 -0.3707 -0.5764  0.7763
    72IDQ   C4411580   2.722   2.841   2.325 -0.1877 -0.0894 -0.3310
    62IDT    S511581   3.168   3.044   2.529  0.0209  0.3031 -0.0528
    62IDT   C4511582   3.097   3.139   2.392 -0.3288  0.3414  0.1535
    62IDT   C4611583   2.969   3.100   2.362 -0.3114  0.1746  0.2975
    82BTZ   C4711584   3.177   3.246   2.322  0.0923  0.1730  0.0601
    82BTZ   C4811585   3.313   3.231   2.325  0.0926  0.1074 -0.2388
    82BTZ   C4911586   3.402   3.330   2.268  0.0122 -0.0033 -0.5593
    82BTZ   C5011587   3.354   3.443   2.208 -0.0684 -0.0483 -0.5806
    82BTZ   C5111588   3.122   3.363   2.261  0.0095  0.1297  0.0511
    82BTZ   C5211589   3.212   3.464   2.203 -0.0723  0.0172 -0.2748
    92RH    C5311590   3.441   3.552   2.170 -0.0676  0.0088  0.0831
    82BTZ    N411591   2.991   3.389   2.252  0.0007  0.1856  0.3249
    82BTZ    N511592   3.154   3.570   2.147 -0.1468 -0.0175 -0.2628
    82BTZ    S611593   2.977   3.546   2.167 -0.1150  0.0947  0.1745
    92RH    C5411594   3.573   3.570   2.179 -0.0668 -0.0336  0.1646
    92RH     S711595   3.697   3.448   2.237 -0.1691  0.0140  0.4837
    92RH    C5511596   3.641   3.696   2.140  0.0203 -0.1292  0.0024
    92RH     O211597   3.585   3.798   2.096  0.1013 -0.1803 -0.2235
    92RH     N611598   3.780   3.688   2.159  0.0006 -0.1566  0.1371
    92RH    C5611599   3.833   3.570   2.208 -0.0917 -0.0945  0.3874
    92RH    C5711600   3.872   3.795   2.120  0.3839  0.1555  0.3753
    92RH    C5811601   3.909   3.814   1.968  0.1245  0.0034 -0.0347
    92RH     S811602   3.995   3.534   2.240 -0.1339 -0.1098  0.5886
    72IDQ   C5911603   2.796   2.736   2.240 -0.1549 -0.2536  0.4947
    72IDQ   C6011604   2.913   2.781   2.154 -0.7250 -0.1250 -0.7068
    72IDQ   C6111605   2.893   2.886   2.047  0.0626  0.1910 -0.0642
    72IDQ   C6211606   2.806   2.855   1.925 -0.1589 -0.2474 -0.2323
    72IDQ   C6311607   2.727   2.976   1.871 -0.1614 -0.0393  0.0120
    72IDQ   C6411608   2.801   3.105   1.838  0.6365  0.8407  0.1899
    72IDQ   C6511609   2.712   3.226   1.822 -0.3814 -0.2528  0.5976
    72IDQ   C6611610   2.654   3.144   2.482  0.4125 -0.4075 -0.6002
    72IDQ   C6711611   2.638   3.184   2.336  0.0615 -0.0225  0.5605
    72IDQ   C6811612   2.633   3.338   2.327 -0.2093  0.6612 -0.0383
    72IDQ   C6911613   2.638   3.390   2.185  0.1392  0.0324  0.3767
    72IDQ   C7011614   2.631   3.541   2.193  0.0092 -0.5426  0.1299
    72IDQ   C7111615   2.612   3.626   2.067 -0.3349  0.0893  0.1875
    72IDQ   C7211616   2.557   3.770   2.092 -0.1391  0.0154 -0.1079
    11RH     C111617   1.148   2.975   1.020 -0.3423  0.3476  0.3766
    11RH     C211618   1.153   2.871   1.126 -0.2778  0.1208  0.1538
    11RH     N111619   1.266   3.053   1.018 -0.2417  0.1950  0.3169
    11RH     S111620   1.312   2.883   1.217 -0.0891 -0.2781 -0.1197
    11RH     C311621   1.364   3.024   1.110 -0.1045 -0.1262  0.0735
    11RH     C411622   1.288   3.164   0.919  0.4374 -0.0333  0.1811
    11RH     S211623   1.513   3.101   1.130  0.0345 -0.3626 -0.0457
    11RH     O111624   1.054   2.993   0.941 -0.4682  0.6358  0.5905
    11RH     C511625   1.053   2.784   1.148 -0.3501  0.2043  0.1593
    21BTZ    C611626   1.038   2.668   1.240  0.0235 -0.4204  0.0997
    21BTZ    C711627   1.134   2.627   1.329  0.0588 -0.4953  0.0266
    21BTZ    C811628   0.919   2.589   1.226  0.0031 -0.3906  0.1036
    21BTZ    C911629   1.119   2.506   1.406  0.0756 -0.5444 -0.0459
    21BTZ   C1011630   1.007   2.427   1.396  0.0572 -0.5186 -0.0452
    21BTZ   C1111631   0.904   2.466   1.305  0.0202 -0.4405  0.0299
    21BTZ    N211632   0.819   2.618   1.143 -0.0314 -0.3187  0.1712
    21BTZ    N311633   0.791   2.398   1.286 -0.0006 -0.4088  0.0382
    21BTZ    S311634   0.697   2.488   1.163 -0.0437 -0.3117  0.1429
    31IDT   C1211635   0.998   2.300   1.472 -0.0804 -0.3165  0.0447
    31IDT   C1311636   0.906   2.273   1.570 -0.0036 -0.2659  0.1305
    31IDT   C1411637   0.938   2.154   1.644  0.0109 -0.2723  0.1140
    31IDT   C1511638   1.053   2.091   1.602 -0.0544 -0.3276  0.0158
    31IDT    S411639   1.132   2.177   1.465 -0.1402 -0.3764 -0.0642
    4IDB    C1611640   1.086   1.987   1.694  0.6422  0.0590  0.1575
    4IDB    C1711641   0.983   1.979   1.793  0.5032 -0.0224  0.0082
    51IDQ   C1811642   0.874   2.085   1.764 -0.1891 -0.8933 -0.5099
    4IDB    C1911643   0.987   1.883   1.893  0.3425 -0.1289 -0.0866
    51IDQ   C2011644   0.740   2.011   1.735  0.1868  0.1354  0.7935
    51IDQ   C2111645   0.838   2.196   1.873 -0.7564  0.2000 -0.2695
    51IDQ   C2211646   0.917   2.219   2.000  0.2180  0.4034 -0.1478
    51IDQ   C2311647   0.661   2.003   1.598 -0.6330  0.0274  0.4807
    51IDQ   C2411648   0.854   2.323   2.102  0.5624  0.3199 -0.0467
    51IDQ   C2511649   0.926   2.362   2.226 -0.5855 -0.2275 -0.5042
    51IDQ   C2611650   1.054   2.432   2.196  0.0286 -0.3652  0.1794
    51IDQ   C2711651   1.108   2.544   2.289  0.1276 -0.2668 -0.0390
    51IDQ   C2811652   1.228   2.620   2.227  0.9266  0.0782  0.1371
    51IDQ   C2911653   1.299   2.706   2.333 -0.3060  0.9078  0.5291
    51IDQ   C3011654   0.519   1.956   1.609  0.6077  0.4106  0.0433
    51IDQ   C3111655   0.439   1.969   1.480  0.2163 -0.5158 -0.2724
    51IDQ   C3211656   0.288   1.980   1.505  0.8986  0.1556  0.5771
    51IDQ   C3311657   0.195   1.988   1.381  0.1700 -0.2630 -0.0461
    51IDQ   C3411658   0.220   1.886   1.271 -1.2609 -0.7942 -0.5044
    51IDQ   C3511659   0.128   1.885   1.159 -0.1264 -0.2024  0.4501
    4IDB    C3611660   1.194   1.897   1.695  0.6210  0.0339  0.2131
    4IDB    C3711661   1.196   1.799   1.798  0.4560 -0.0753  0.1146
    11RH    C3811662   1.243   3.303   0.969  0.2136 -0.2821 -0.2333
    4IDB    C3911663   1.095   1.794   1.894  0.3214 -0.1539 -0.0309
    62IDT   C4011664   1.117   1.682   1.987 -0.1526 -0.0716  0.1017
    72IDQ   C4111665   1.305   1.696   1.835  0.7135 -0.3931  0.5875
    62IDT   C4211666   1.239   1.626   1.955 -0.3857 -0.5178 -0.0305
    72IDQ   C4311667   1.438   1.766   1.882  0.4458 -0.0138 -0.5154
    72IDQ   C4411668   1.325   1.596   1.711 -0.3212 -0.2935 -0.0043
    62IDT    S511669   1.042   1.601   2.129 -0.2919  0.2110  0.1909
    62IDT   C4511670   1.186   1.491   2.137 -0.6767 -0.3147  0.0371
    62IDT   C4611671   1.278   1.518   2.040 -0.6823 -0.6559 -0.0672
    82BTZ   C4711672   1.198   1.391   2.239  0.6226  0.3679  0.0378
    82BTZ   C4811673   1.107   1.397   2.341  0.6623  0.5492  0.0630
    82BTZ   C4911674   1.095   1.291   2.439  0.5074  0.5918  0.0911
    82BTZ   C5011675   1.174   1.180   2.434  0.3131  0.4530  0.0939
    82BTZ   C5111676   1.283   1.276   2.230  0.4215  0.2176  0.0396
    82BTZ   C5211677   1.271   1.168   2.329  0.2641  0.2609  0.0682
    92RH    C5311678   1.160   1.058   2.517  0.0550 -0.2604  0.0073
    82BTZ    N411679   1.376   1.259   2.135  0.3644  0.0355  0.0166
    82BTZ    N511680   1.354   1.065   2.313  0.0805  0.1136  0.0681
    82BTZ    S611681   1.453   1.101   2.168  0.1015 -0.0910  0.0308
    92RH    C5411682   1.071   1.024   2.611 -0.0050 -0.1617 -0.0138
    92RH     S711683   0.939   1.131   2.681  0.0305 -0.0480 -0.1193
    92RH    C5511684   1.065   0.890   2.673 -0.1132 -0.1287  0.0473
    92RH     O211685   1.140   0.794   2.647 -0.1602 -0.1872  0.1237
    92RH     N611686   0.961   0.881   2.768 -0.1581 -0.0202  0.0078
    92RH    C5611687   0.883   0.993   2.790 -0.0992  0.0377 -0.0775
    92RH    C5711688   0.933   0.749   2.834 -0.4687  0.2656  0.4522
    92RH    C5811689   1.031   0.690   2.937  0.0212 -0.2439  0.0819
    92RH     S811690   0.753   1.009   2.897 -0.1340  0.1672 -0.1391
    72IDQ   C5911691   1.430   1.485   1.734 -0.0260 -0.0605  0.1600
    72IDQ   C6011692   1.450   1.374   1.631 -0.1969 -0.4162  0.0731
    72IDQ   C6111693   1.332   1.283   1.608  0.0702 -0.0805 -0.5186
    72IDQ   C6211694   1.366   1.168   1.512  0.1597  0.4303  0.1773
    72IDQ   C6311695   1.242   1.087   1.473  0.3264  0.3603 -0.1487
    72IDQ   C6411696   1.259   1.018   1.335 -0.6584 -0.0079 -0.7822
    72IDQ   C6511697   1.130   0.963   1.288  0.1090  0.0847  0.0452
    72IDQ   C6611698   1.529   1.857   1.794 -0.2691  0.7143  0.3279
    72IDQ   C6711699   1.655   1.915   1.864  0.1921 -0.4938  0.3333
    72IDQ   C6811700   1.738   2.016   1.777 -0.1622  0.2549 -0.6838
    72IDQ   C6911701   1.791   1.958   1.657 -0.1745 -0.0331 -0.0799
    72IDQ   C7011702   1.871   2.052   1.572 -0.2720  0.5476  0.6409
    72IDQ   C7111703   1.894   1.982   1.440 -0.1410 -0.2377 -0.2011
    72IDQ   C7211704   2.010   2.052   1.369 -0.4506 -0.0838  0.0147
    11RH     C111705   6.426   3.271   4.014  0.1976  0.0849  0.1788
    11RH     C211706   6.464   3.246   3.872  0.1510 -0.0448  0.1884
    11RH     N111707   6.530   3.237   4.102  0.1522 -0.0316  0.1886
    11RH     S111708   6.635   3.180   3.865  0.0503 -0.3114  0.2096
    11RH     C311709   6.648   3.188   4.049  0.0747 -0.2387  0.2047
    11RH     C411710   6.512   3.251   4.244  0.1900 -0.7191 -0.3809
    11RH     S211711   6.787   3.141   4.132  0.0083 -0.4106  0.2189
    11RH     O111712   6.316   3.315   4.052  0.2680  0.2723  0.1640
    11RH     C511713   6.383   3.270   3.769  0.1802  0.0279  0.1820
    21BTZ    C611714   6.383   3.242   3.623  0.0499 -0.2036 -0.1728
    21BTZ    C711715   6.485   3.180   3.555  0.0254 -0.2644 -0.1549
    21BTZ    C811716   6.274   3.297   3.548  0.1130 -0.1073 -0.1943
    21BTZ    C911717   6.486   3.170   3.412  0.0610 -0.2339 -0.1571
    21BTZ   C1011718   6.384   3.221   3.335  0.1214 -0.1427 -0.1773
    21BTZ   C1111719   6.275   3.286   3.401  0.1494 -0.0763 -0.1966
    21BTZ    N211720   6.169   3.359   3.602  0.1422 -0.0414 -0.2130
    21BTZ    N311721   6.170   3.339   3.338  0.2078  0.0144 -0.2171
    21BTZ    S311722   6.064   3.407   3.465  0.2191  0.0651 -0.2347
    31IDT   C1211723   6.383   3.200   3.183  0.1079  0.0364 -0.0052
    31IDT   C1311724   6.275   3.196   3.100  0.0161  0.3971  0.0932
    31IDT   C1411725   6.303   3.135   2.974 -0.2731  0.3954  0.0265
    31IDT   C1511726   6.434   3.093   2.960 -0.4032  0.0341 -0.1227
    31IDT    S411727   6.531   3.127   3.107 -0.1677 -0.3352 -0.1910
    4IDB    C1611728   6.461   3.035   2.828  0.3897 -0.0246 -0.0464
    4IDB    C1711729   6.343   3.053   2.750  0.3351  0.1243  0.0682
    51IDQ   C1811730   6.224   3.100   2.844 -0.3847 -0.6142  0.4714
    4IDB    C1911731   6.340   3.016   2.615  0.1111 -0.0144  0.1099
    51IDQ   C2011732   6.156   3.226   2.775  0.9534 -0.5982 -1.3847
    51IDQ   C2111733   6.110   2.990   2.876 -0.7102  0.0312  0.6957
    51IDQ   C2211734   6.095   2.854   2.805 -0.4339 -0.0582  0.2704
    51IDQ   C2311735   6.165   3.372   2.817 -0.3600  0.4710 -0.6875
    51IDQ   C2411736   5.981   2.768   2.864 -0.2010  0.9106  0.0368
    51IDQ   C2511737   6.003   2.616   2.875 -0.1392  0.2486  0.3428
    51IDQ   C2611738   5.893   2.553   2.951 -0.1431 -0.6954  0.1841
    51IDQ   C2711739   5.897   2.415   3.011 -0.2158  0.7841  0.4041
    51IDQ   C2811740   5.764   2.376   3.078 -0.3327 -0.9183  0.4048
    51IDQ   C2911741   5.772   2.235   3.138 -0.4886  0.2099 -0.0805
    51IDQ   C3011742   6.061   3.453   2.749 -0.0435  0.1444  0.6104
    51IDQ   C3111743   6.054   3.591   2.797  0.3815 -0.7834  0.3705
    51IDQ   C3211744   5.914   3.657   2.771 -0.1865 -0.7512  0.0271
    51IDQ   C3311745   5.912   3.807   2.785  0.4816 -0.1308 -0.4589
    51IDQ   C3411746   5.767   3.867   2.768 -0.5554 -0.1030  0.2960
    51IDQ   C3511747   5.753   4.010   2.808  0.0482 -0.1533  0.3746
    4IDB    C3611748   6.578   2.980   2.773  0.2193 -0.3151 -0.1203
    4IDB    C3711749   6.573   2.943   2.635 -0.0087 -0.4533 -0.0761
    11RH    C3811750   6.452   3.135   4.322 -0.0477 -0.2596  0.2494
    4IDB    C3911751   6.457   2.961   2.560 -0.0594 -0.3048  0.0361
    62IDT   C4011752   6.480   2.915   2.428  0.1066 -0.3387 -0.1471
    72IDQ   C4111753   6.679   2.876   2.547  0.0227 -0.1694 -0.6922
    62IDT   C4211754   6.607   2.864   2.410 -0.0168 -0.5057 -0.5775
    72IDQ   C4311755   6.732   2.738   2.614 -0.0808 -0.3752 -0.1662
    72IDQ   C4411756   6.804   2.972   2.527 -0.0176  0.0891 -0.4815
    62IDT    S511757   6.379   2.896   2.281 -0.2718  0.2146  0.0363
    62IDT   C4511758   6.521   2.817   2.199 -0.5925  0.1896 -0.5049
    62IDT   C4611759   6.630   2.808   2.281 -0.4121 -0.2073 -0.7803
    82BTZ   C4711760   6.495   2.756   2.063 -0.4821 -0.3758 -0.0697
    82BTZ   C4811761   6.368   2.767   2.013 -0.4208 -0.5122 -0.2572
    82BTZ   C4911762   6.336   2.725   1.879 -0.1453 -0.4064 -0.3577
    82BTZ   C5011763   6.430   2.673   1.795  0.0685 -0.1643 -0.2705
    82BTZ   C5111764   6.597   2.701   1.979 -0.2654 -0.1214  0.0277
    82BTZ   C5211765   6.565   2.659   1.843  0.0147 -0.0138 -0.0744
    92RH    C5311766   6.400   2.645   1.659 -0.2376  0.2027  0.1083
    82BTZ    N411767   6.725   2.685   2.017 -0.2993  0.0302  0.2100
    82BTZ    N511768   6.666   2.609   1.771  0.2058  0.2242  0.0258
    82BTZ    S611769   6.810   2.614   1.876  0.0321  0.3229  0.2599
    92RH    C5411770   6.290   2.650   1.584 -0.2344  0.0843  0.0944
    92RH     S711771   6.117   2.674   1.643 -0.2998 -0.3800  0.0976
    92RH    C5511772   6.290   2.638   1.436 -0.1751  0.3205  0.0735
    92RH     O211773   6.391   2.621   1.366 -0.1225  0.6493  0.0665
    92RH     N611774   6.160   2.647   1.383 -0.1854  0.1246  0.0621
    92RH    C5611775   6.055   2.666   1.470 -0.2457 -0.2396  0.0713
    92RH    C5711776   6.140   2.641   1.236 -0.8465 -0.1411 -0.5565
    92RH    C5811777   6.144   2.774   1.158 -0.1842  0.3729 -0.3301
    92RH     S811778   5.891   2.681   1.432 -0.2704 -0.5323  0.0612
    72IDQ   C5911779   6.925   2.918   2.449  0.1274 -0.6614 -0.2625
    72IDQ   C6011780   7.030   3.024   2.422 -0.1156  0.5896 -0.0616
    72IDQ   C6111781   7.089   3.100   2.542 -0.3452  0.3591  0.0340
    72IDQ   C6211782   7.221   3.159   2.522  0.0289 -0.2089  0.6773
    72IDQ   C6311783   7.277   3.245   2.638  0.2229  0.4482  0.2077
    72IDQ   C6411784   7.405   3.329   2.613 -0.1687 -0.3004 -0.6165
    72IDQ   C6511785   7.394   3.430   2.502  0.6380  0.2992 -0.3019
    72IDQ   C6611786   6.660   2.605   2.593  0.0790  0.1569 -0.1153
    72IDQ   C6711787   6.524   2.585   2.654 -0.3075 -0.3851 -1.0878
    72IDQ   C6811788   6.447   2.460   2.615 -0.0286  0.2089 -0.3056
    72IDQ   C6911789   6.396   2.454   2.472  0.0126 -0.5285  0.2811
    72IDQ   C7011790   6.266   2.533   2.426 -0.4408 -0.0172  0.0279
    72IDQ   C7111791   6.140   2.518   2.507  0.8057 -0.4437  1.2109
    72IDQ   C7211792   6.078   2.379   2.501 -0.2840 -0.0322 -0.8286
    11RH     C111793   1.862   6.321   0.928 -0.0348 -0.1709 -0.1861
    11RH     C211794   1.809   6.186   0.893  0.0698 -0.1969 -0.2437
    11RH     N111795   1.793   6.376   1.038 -0.0123 -0.3139 -0.0997
    11RH     S111796   1.673   6.142   1.007  0.1910 -0.4079 -0.1806
    11RH     C311797   1.692   6.302   1.096  0.0976 -0.4514 -0.0811
    11RH     C411798   1.837   6.512   1.087 -0.1118  0.4554  0.0855
    11RH     S211799   1.595   6.345   1.227  0.1467 -0.6360  0.0158
    11RH     O111800   1.954   6.379   0.869 -0.1310 -0.0412 -0.2090
    11RH     C511801   1.857   6.112   0.792  0.0719 -0.0809 -0.3287
    21BTZ    C611802   1.820   5.983   0.734 -0.2324  0.0250  0.0782
    21BTZ    C711803   1.716   5.900   0.764 -0.3020  0.0226 -0.1717
    21BTZ    C811804   1.908   5.948   0.627 -0.0693  0.1087  0.1833
    21BTZ    C911805   1.692   5.778   0.690 -0.2157  0.1020 -0.3298
    21BTZ   C1011806   1.774   5.740   0.586 -0.0599  0.1833 -0.2378
    21BTZ   C1111807   1.884   5.824   0.552  0.0184  0.1892  0.0226
    21BTZ    N211808   2.013   6.020   0.589  0.0115  0.1193  0.4237
    21BTZ    N311809   1.971   5.798   0.453  0.1697  0.2646  0.1338
    21BTZ    S311810   2.088   5.932   0.452  0.2073  0.2353  0.4555
    31IDT   C1211811   1.732   5.622   0.512  0.1613  0.0795 -0.0442
    31IDT   C1311812   1.806   5.551   0.421  0.1449  0.0426 -0.0288
    31IDT   C1411813   1.737   5.436   0.371  0.0476  0.1465 -0.1378
    31IDT   C1511814   1.611   5.418   0.424 -0.0108  0.2633 -0.2368
    31IDT    S411815   1.569   5.547   0.542  0.0536  0.2505 -0.1994
    4IDB    C1611816   1.554   5.295   0.371  0.4380 -0.0360  0.0202
    4IDB    C1711817   1.649   5.231   0.286  0.1754  0.1249 -0.4036
    51IDQ   C1811818   1.775   5.316   0.280 -1.1545 -0.7978  0.0004
    4IDB    C1911819   1.620   5.111   0.223  0.0709  0.1176 -0.3409
    51IDQ   C2011820   1.908   5.230   0.309 -0.0362 -0.0222  0.6341
    51IDQ   C2111821   1.790   5.382   0.134 -0.2582 -0.2288  0.6815
    51IDQ   C2211822   1.705   5.359   0.004  0.2945 -0.2500 -0.0974
    51IDQ   C2311823   1.996   5.270   0.431  0.6983  0.2689  0.9186
    51IDQ   C2411824   1.552   5.369   0.014 -0.4306  0.1178  0.2326
    51IDQ   C2511825   1.491   5.351  -0.122 -0.1089 -0.7020  0.0765
    51IDQ   C2611826   1.339   5.347  -0.123  0.3598 -0.0734 -0.1467
    51IDQ   C2711827   1.268   5.329  -0.256  0.1796  0.5732  0.8234
    51IDQ   C2811828   1.280   5.456  -0.342  0.2983  0.3141  0.7247
    51IDQ   C2911829   1.187   5.467  -0.462  0.4933  0.4814 -0.6577
    51IDQ   C3011830   2.107   5.179   0.480  0.2533 -0.2666  0.3262
    51IDQ   C3111831   2.187   5.241   0.595 -0.0196 -0.0571  0.1328
    51IDQ   C3211832   2.122   5.289   0.727  0.1574  0.4360  0.2481
    51IDQ   C3311833   2.227   5.282   0.835  0.5025 -0.7448 -0.5018
    51IDQ   C3411834   2.195   5.340   0.978 -0.0666  0.5315  0.2827
    51IDQ   C3511835   2.106   5.252   1.066 -0.5769  0.1299 -0.0929
    4IDB    C3611836   1.428   5.238   0.393  0.5986 -0.2064  0.5123
    4IDB    C3711837   1.399   5.115   0.328  0.4885 -0.2112  0.5691
    11RH    C3811838   1.964   6.516   1.172 -0.1150 -0.9993 -0.3880
    4IDB    C3911839   1.494   5.054   0.246  0.2315 -0.0528  0.1512
    62IDT   C4011840   1.428   4.939   0.181 -0.2070 -0.1852  0.2881
    72IDQ   C4111841   1.266   5.034   0.326  0.1065 -0.4662  1.1988
    62IDT   C4211842   1.297   4.924   0.222 -0.2472 -0.2975  0.1198
    72IDQ   C4311843   1.148   5.122   0.273 -0.4232 -0.9359  0.5563
    72IDQ   C4411844   1.212   4.983   0.463  0.0858  0.5212  0.2666
    62IDT    S511845   1.475   4.816   0.059 -0.0107 -0.0076  0.1836
    62IDT   C4511846   1.307   4.748   0.069  0.0076 -0.0992 -0.0958
    62IDT   C4611847   1.228   4.816   0.159 -0.1259 -0.2493 -0.0975
    82BTZ   C4711848   1.264   4.640  -0.020  0.0740  0.2980  0.1382
    82BTZ   C4811849   1.344   4.604  -0.126  0.1429  0.4126  0.1516
    82BTZ   C4911850   1.306   4.499  -0.217  0.2977  0.3756  0.1303
    82BTZ   C5011851   1.189   4.429  -0.202  0.3833  0.2241  0.0960
    82BTZ   C5111852   1.140   4.569  -0.000  0.1589  0.1373  0.1023
    82BTZ   C5211853   1.102   4.462  -0.093  0.3162  0.0998  0.0806
    92RH    C5311854   1.140   4.339  -0.301  0.1011  0.3007  0.0757
    82BTZ    N411855   1.054   4.595   0.099  0.1043  0.0157  0.0862
    82BTZ    N511856   0.986   4.402  -0.069  0.3880 -0.0522  0.0473
    82BTZ    S611857   0.919   4.480   0.077  0.2548 -0.1560  0.0420
    92RH    C5411858   1.185   4.288  -0.416  0.1635  0.2724  0.1121
    92RH     S711859   1.331   4.344  -0.512  0.0252  0.4601  0.0113
    92RH    C5511860   1.120   4.174  -0.486  0.3611  0.0776  0.2441
    92RH     O211861   1.019   4.113  -0.446  0.4900 -0.0795  0.3352
    92RH     N611862   1.188   4.141  -0.605  0.3876  0.0908  0.2557
    92RH    C5611863   1.299   4.215  -0.640  0.2352  0.2724  0.1488
    92RH    C5711864   1.134   4.036  -0.693 -0.3375  0.0079  0.3399
    92RH    C5811865   1.190   3.892  -0.679  0.6229  0.4189 -0.8139
    92RH     S811866   1.397   4.196  -0.776  0.2290  0.3277  0.1369
    72IDQ   C5911867   1.254   5.043   0.597 -0.2803  1.0436  0.6335
    72IDQ   C6011868   1.198   4.987   0.728  0.0426  0.0060 -0.1709
    72IDQ   C6111869   1.182   5.107   0.823 -0.3049 -0.5847 -0.1812
    72IDQ   C6211870   1.122   5.066   0.959  0.6798 -0.1349  1.0990
    72IDQ   C6311871   1.196   4.979   1.055 -0.3751  0.3930  0.3315
    72IDQ   C6411872   1.120   4.932   1.171 -0.6944  0.3521 -0.1796
    72IDQ   C6511873   1.225   4.892   1.275  0.7469 -0.4044  0.5050
    72IDQ   C6611874   1.167   5.232   0.163 -0.7897 -0.2674  0.3026
    72IDQ   C6711875   1.044   5.301   0.112 -0.2572  0.8725  0.0633
    72IDQ   C6811876   0.932   5.339   0.206 -0.3468 -0.8285 -0.1681
    72IDQ   C6911877   0.825   5.419   0.138  0.1216 -0.1203 -0.1561
    72IDQ   C7011878   0.714   5.460   0.233 -0.5755 -0.0200 -0.4127
    72IDQ   C7111879   0.608   5.555   0.168 -0.4911  0.0573 -0.7578
    72IDQ   C7211880   0.550   5.514   0.033 -0.0870  0.0373 -0.2631
    11RH     C111881   6.174   5.434   5.073  0.3747 -0.0952 -0.1714
    11RH     C211882   6.268   5.472   5.181  0.2264 -0.0479 -0.0588
    11RH     N111883   6.067   5.356   5.122  0.2211  0.0608 -0.2549
    11RH     S111884   6.209   5.402   5.340 -0.1054  0.1987 -0.0698
    11RH     C311885   6.064   5.327   5.256 -0.0322  0.2272 -0.2227
    11RH     C411886   5.953   5.325   5.034  0.0241  0.0726  0.2168
    11RH     S211887   5.948   5.236   5.339 -0.2544  0.4324 -0.3051
    11RH     O111888   6.185   5.466   4.953  0.6047 -0.2508 -0.1923
    11RH     C511889   6.377   5.546   5.161  0.3268 -0.1706  0.0348
    21BTZ    C611890   6.488   5.596   5.244 -0.1449  0.1557 -0.2216
    21BTZ    C711891   6.499   5.570   5.378 -0.1022  0.1377 -0.2284
    21BTZ    C811892   6.591   5.674   5.181 -0.1137  0.0807 -0.2639
    21BTZ    C911893   6.610   5.618   5.456 -0.0275  0.0457 -0.2770
    21BTZ   C1011894   6.710   5.693   5.400  0.0044 -0.0283 -0.3186
    21BTZ   C1111895   6.704   5.723   5.260 -0.0379 -0.0128 -0.3134
    21BTZ    N211896   6.592   5.706   5.051 -0.1496  0.0894 -0.2620
    21BTZ    N311897   6.795   5.795   5.195 -0.0128 -0.0792 -0.3513
    21BTZ    S311898   6.740   5.803   5.025 -0.0866 -0.0236 -0.3245
    31IDT   C1211899   6.816   5.746   5.490 -0.2207 -0.2430  0.0170
    31IDT   C1311900   6.946   5.778   5.461 -0.3169  0.0761 -0.0709
    31IDT   C1411901   7.021   5.812   5.577 -0.3588  0.4027 -0.1388
    31IDT   C1511902   6.950   5.807   5.695 -0.2950  0.3352 -0.1029
    31IDT    S411903   6.780   5.757   5.668 -0.1758 -0.1520  0.0203
    4IDB    C1611904   7.036   5.853   5.801 -0.1189  0.2550 -0.4415
    4IDB    C1711905   7.166   5.887   5.754  0.0551  0.1407 -0.0483
    51IDQ   C1811906   7.171   5.843   5.608 -0.2589  0.1749  0.5524
    4IDB    C1911907   7.260   5.944   5.840 -0.1376  0.0191  0.2466
    51IDQ   C2011908   7.233   5.956   5.524  0.2251  0.2642  0.1718
    51IDQ   C2111909   7.252   5.719   5.567 -0.0192 -0.5857  0.1719
    51IDQ   C2211910   7.315   5.631   5.674 -0.9366 -0.4322 -0.9697
    51IDQ   C2311911   7.159   6.027   5.400  0.6416  0.5127  0.5322
    51IDQ   C2411912   7.396   5.525   5.606 -0.1338  0.5740  0.2791
    51IDQ   C2511913   7.317   5.417   5.530 -0.4527 -0.2442 -0.4073
    51IDQ   C2611914   7.400   5.314   5.456 -0.8417  0.0288  0.0130
    51IDQ   C2711915   7.480   5.364   5.335  0.0588  0.3589 -0.1938
    51IDQ   C2811916   7.556   5.252   5.260  0.3044 -0.2377  0.1289
    51IDQ   C2911917   7.469   5.157   5.173 -0.0374 -0.6281 -0.3472
    51IDQ   C3011918   7.220   6.137   5.317 -0.0407  0.0935  0.4911
    51IDQ   C3111919   7.377   6.144   5.320  1.0294  0.3811  0.7328
    51IDQ   C3211920   7.422   6.241   5.214  0.3066 -0.5317  0.5874
    51IDQ   C3311921   7.568   6.279   5.202  0.3834 -0.3092  0.0424
    51IDQ   C3411922   7.617   6.398   5.289  0.2693  0.0865  0.4300
    51IDQ   C3511923   7.767   6.409   5.306  0.1990 -0.1151  0.0164
    4IDB    C3611924   6.998   5.875   5.934 -0.4891  0.2486 -0.5424
    4IDB    C3711925   7.095   5.933   6.020 -0.6817  0.1235 -0.2372
    11RH    C3811926   5.958   5.191   4.961  0.2451  0.3622  0.0406
    4IDB    C3911927   7.223   5.966   5.973 -0.5078  0.0125  0.1455
    62IDT   C4011928   7.298   6.026   6.077 -0.2853 -0.0496  0.4905
    72IDQ   C4111929   7.089   5.960   6.170  0.1042  0.3916 -0.8578
    62IDT   C4211930   7.232   6.018   6.198 -0.1551  0.4748  0.6025
    72IDQ   C4311931   7.081   5.822   6.252  0.0882 -0.5202  0.8742
    72IDQ   C4411932   6.963   6.050   6.199  0.2208  0.0221  0.0261
    62IDT    S511933   7.446   6.127   6.088 -0.0498 -0.3309 -0.0155
    62IDT   C4511934   7.409   6.155   6.264  0.2258  0.3063 -0.0503
    62IDT   C4611935   7.295   6.090   6.304  0.1341  0.6768  0.2968
    82BTZ   C4711936   7.497   6.233   6.349 -0.0040  0.4806 -0.0938
    82BTZ   C4811937   7.600   6.299   6.287  0.1168  0.3731 -0.0092
    82BTZ   C4911938   7.689   6.387   6.359  0.2687  0.1316  0.1017
    82BTZ   C5011939   7.675   6.409   6.493  0.2994 -0.0021  0.1274
    82BTZ   C5111940   7.478   6.253   6.490  0.0224  0.3479 -0.0710
    82BTZ   C5211941   7.569   6.343   6.563  0.1766  0.1024  0.0415
    92RH    C5311942   7.754   6.506   6.566 -0.1518  0.1229 -0.5044
    82BTZ    N411943   7.382   6.195   6.562 -0.0860  0.4330 -0.1466
    82BTZ    N511944   7.545   6.357   6.694  0.1923 -0.0098  0.0564
    82BTZ    S611945   7.403   6.254   6.730  0.0065  0.1979 -0.0757
    92RH    C5411946   7.854   6.588   6.533 -0.0426  0.0513 -0.3545
    92RH     S711947   7.955   6.583   6.380 -0.1027  0.2465 -0.4003
    92RH    C5511948   7.900   6.699   6.620  0.1500 -0.2067 -0.1204
    92RH     O211949   7.852   6.729   6.730  0.2320 -0.3835 -0.0365
    92RH     N611950   8.007   6.770   6.560  0.2326 -0.2297  0.0005
    92RH    C5611951   8.052   6.729   6.437  0.1297 -0.0218 -0.1081
    92RH    C5711952   8.066   6.887   6.621  0.2654 -0.7623 -0.3720
    92RH    C5811953   8.187   6.866   6.712 -0.0961 -0.0296 -0.2368
    92RH     S811954   8.177   6.795   6.346  0.1949  0.0008 -0.0030
    72IDQ   C5911955   6.968   6.168   6.300 -0.2093 -0.1641  0.2363
    72IDQ   C6011956   6.828   6.223   6.328  0.0922 -0.5276  0.0633
    72IDQ   C6111957   6.719   6.135   6.384  0.2869  0.2030  0.4352
    72IDQ   C6211958   6.577   6.191   6.407 -0.1180 -0.0156 -0.1133
    72IDQ   C6311959   6.568   6.298   6.511  0.1176 -0.1430 -0.0409
    72IDQ   C6411960   6.634   6.263   6.645  0.6037  0.0973 -0.9334
    72IDQ   C6511961   6.615   6.370   6.755  0.5030 -0.1541 -0.2679
    72IDQ   C6611962   6.943   5.742   6.258 -0.7075  0.2805 -0.1173
    72IDQ   C6711963   6.970   5.597   6.309  0.6311  0.0000 -0.0223
    72IDQ   C6811964   7.044   5.496   6.221 -0.4196 -0.1391 -0.3911
    72IDQ   C6911965   6.970   5.464   6.088 -0.7602 -0.4244 -0.2406
    72IDQ   C7011966   7.038   5.375   5.990  0.0166 -0.9991  0.3807
    72IDQ   C7111967   6.957   5.369   5.862 -0.2356  0.0752  0.4223
    72IDQ   C7211968   7.043   5.325   5.747 -0.3851  0.1692 -0.0495
    11RH     C111969   1.467   3.572   5.892  0.1254 -0.2633  0.0607
    11RH     C211970   1.489   3.658   6.011  0.0741 -0.2394  0.0530
    11RH     N111971   1.396   3.455   5.925  0.1171 -0.2599  0.0547
    11RH     S111972   1.415   3.579   6.159  0.0183 -0.2141  0.0383
    11RH     C311973   1.358   3.436   6.056  0.0654 -0.2363  0.0432
    11RH     C411974   1.376   3.356   5.814 -0.3763  0.3348 -0.3836
    11RH     S211975   1.273   3.306   6.121  0.0446 -0.2273  0.0341
    11RH     O111976   1.506   3.598   5.777  0.1706 -0.2840  0.0712
    11RH     C511977   1.554   3.775   6.007  0.0709 -0.2375  0.0565
    21BTZ    C611978   1.594   3.872   6.105 -0.2197  0.2491  0.2194
    21BTZ    C711979   1.560   3.867   6.237 -0.1701  0.3152  0.2348
    21BTZ    C811980   1.652   3.993   6.053 -0.1019  0.1717  0.1702
    21BTZ    C911981   1.582   3.979   6.326 -0.0034  0.3086  0.2029
    21BTZ   C1011982   1.637   4.096   6.281  0.1134  0.2357  0.1556
    21BTZ   C1111983   1.674   4.107   6.143  0.0675  0.1649  0.1377
    21BTZ    N211984   1.689   4.011   5.926 -0.1353  0.1029  0.1509
    21BTZ    N311985   1.729   4.216   6.088  0.1702  0.0908  0.0924
    21BTZ    S311986   1.755   4.176   5.916  0.0522  0.0251  0.0892
    31IDT   C1211987   1.648   4.203   6.380  0.2647  0.3955 -0.2911
    31IDT   C1311988   1.743   4.302   6.386 -0.1877  0.8453 -0.3455
    31IDT   C1411989   1.736   4.378   6.506 -0.4277  0.7592 -0.3034
    31IDT   C1511990   1.635   4.339   6.592 -0.1605  0.2443 -0.2172
    31IDT    S411991   1.541   4.201   6.527  0.4212 -0.1752 -0.1820
    4IDB    C1611992   1.633   4.427   6.706  0.0134 -0.3988  0.1796
    4IDB    C1711993   1.730   4.530   6.686 -0.5598  0.0842 -0.1918
    51IDQ   C1811994   1.809   4.503   6.554 -0.0089 -0.1188 -0.1748
    4IDB    C1911995   1.750   4.628   6.783 -0.6775  0.1844 -0.2689
    51IDQ   C2011996   1.795   4.632   6.459  0.2041  0.4466 -0.0203
    51IDQ   C2111997   1.964   4.469   6.560 -0.6119  0.0315 -0.8385
    51IDQ   C2211998   2.036   4.459   6.696  1.0344 -0.4851 -0.0962
    51IDQ   C2311999   1.714   4.633   6.331 -0.3340  0.1526  0.4994
    51IDQ   C2412000   2.185   4.437   6.682  0.1784 -0.4431 -0.0280
    51IDQ   C2512001   2.276   4.441   6.808 -0.4581  0.1900  0.4004
    51IDQ   C2612002   2.428   4.413   6.797 -0.6802 -0.6454  0.2480
    51IDQ   C2712003   2.466   4.294   6.710  0.1551  0.3136  0.3430
    51IDQ   C2812004   2.602   4.229   6.734 -0.0108  0.0352  0.3419
    51IDQ   C2912005   2.614   4.090   6.673  0.0433 -0.1082 -0.5128
    51IDQ   C3012006   1.730   4.756   6.238  0.0297 -0.0536 -0.3861
    51IDQ   C3112007   1.667   4.748   6.101  0.6978 -0.4714 -0.2657
    51IDQ   C3212008   1.700   4.648   5.992  0.5100 -0.4133 -0.3448
    51IDQ   C3312009   1.583   4.673   5.897 -0.1523  0.7495  0.1301
    51IDQ   C3412010   1.575   4.552   5.806 -0.9210 -0.2160  0.3488
    51IDQ   C3512011   1.461   4.558   5.707  0.4579  0.0985 -0.2325
    4IDB    C3612012   1.555   4.421   6.822  0.4748 -0.7863  0.4777
    4IDB    C3712013   1.577   4.522   6.920  0.3464 -0.6769  0.3936
    11RH    C3812014   1.269   3.379   5.707  0.5156 -0.1423  0.5935
    4IDB    C3912015   1.672   4.622   6.899 -0.2160 -0.2032  0.0292
    62IDT   C4012016   1.661   4.718   7.011 -0.0760  0.0723  0.5077
    72IDQ   C4112017   1.520   4.533   7.058  0.7990  0.0053  0.4406
    62IDT   C4212018   1.566   4.670   7.099 -0.3391  0.2729  0.3359
    72IDQ   C4312019   1.597   4.428   7.144  0.0764 -0.2246 -0.2021
    72IDQ   C4412020   1.371   4.491   7.060  0.4056  0.3846  0.7889
    62IDT    S512021   1.730   4.875   7.066 -0.1029  0.1031  0.4538
    62IDT   C4512022   1.622   4.866   7.212 -0.4871  0.4002  0.1889
    62IDT   C4612023   1.544   4.754   7.212 -0.5719  0.4586  0.1554
    82BTZ   C4712024   1.620   4.967   7.317  0.0363 -0.2627  0.0715
    82BTZ   C4812025   1.673   5.089   7.288  0.0683 -0.2960 -0.0135
    82BTZ   C4912026   1.695   5.188   7.391  0.1278 -0.2437 -0.0758
    82BTZ   C5012027   1.663   5.164   7.522  0.1551 -0.1584 -0.0531
    82BTZ   C5112028   1.585   4.936   7.452  0.0631 -0.1736  0.0984
    82BTZ   C5212029   1.606   5.037   7.557  0.1235 -0.1204  0.0350
    92RH    C5312030   1.691   5.259   7.635  0.0377  0.0123  0.0020
    82BTZ    N412031   1.532   4.820   7.492  0.0364 -0.1339  0.1792
    82BTZ    N512032   1.571   5.002   7.681  0.1454 -0.0380  0.0649
    82BTZ    S612033   1.507   4.835   7.669  0.0886 -0.0245  0.1776
    92RH    C5412034   1.757   5.374   7.645  0.0502  0.0011  0.0529
    92RH     S712035   1.831   5.470   7.507  0.0816  0.0415  0.0977
    92RH    C5512036   1.780   5.445   7.773  0.0402 -0.0474  0.0814
    92RH     O212037   1.743   5.406   7.885  0.0194 -0.0829  0.0622
    92RH     N612038   1.853   5.565   7.754  0.0574 -0.0491  0.1345
    92RH    C5612039   1.890   5.599   7.625  0.0799 -0.0077  0.1520
    92RH    C5712040   1.900   5.638   7.872  0.4188  0.4688  0.5848
    92RH    C5812041   2.039   5.604   7.901 -0.1375 -0.1092 -0.4544
    92RH     S812042   1.976   5.735   7.575  0.1034 -0.0001  0.2130
    72IDQ   C5912043   1.266   4.564   7.144 -0.5083 -0.4133 -0.1798
    72IDQ   C6012044   1.126   4.504   7.166 -0.5561  0.7988  0.4813
    72IDQ   C6112045   1.050   4.560   7.287 -0.3686  0.4013  0.1132
    72IDQ   C6212046   0.918   4.482   7.323 -0.8897 -0.3455  0.9432
    72IDQ   C6312047   0.807   4.468   7.217  0.2447  0.0295  0.6412
    72IDQ   C6412048   0.680   4.413   7.280 -0.1637 -0.0513  0.4443
    72IDQ   C6512049   0.562   4.404   7.183 -0.2968  0.1854  0.8208
    72IDQ   C6612050   1.575   4.417   7.302 -0.5410  0.3294 -0.4943
    72IDQ   C6712051   1.657   4.306   7.371  0.8334  0.7541  0.0090
    72IDQ   C6812052   1.616   4.289   7.521  0.3471 -0.1934  0.0965
    72IDQ   C6912053   1.469   4.248   7.558 -0.4990  0.7783  0.4177
    72IDQ   C7012054   1.451   4.247   7.707 -0.0015 -0.8237  0.0730
    72IDQ   C7112055   1.320   4.188   7.751  0.5178 -0.4439 -0.3570
    72IDQ   C7212056   1.314   4.188   7.901  0.0297  0.9763 -0.7902
    11RH     C112057   6.066   4.949   3.735 -0.0926  0.1888  0.2810
    11RH     C212058   6.135   4.930   3.605 -0.1928 -0.0737  0.2661
    11RH     N112059   5.948   5.025   3.720 -0.1956  0.0098  0.1926
    11RH     S112060   6.040   5.012   3.472 -0.4158 -0.5390  0.1367
    11RH     C312061   5.913   5.068   3.594 -0.3660 -0.3643  0.1087
    11RH     C412062   5.871   5.090   3.837 -0.9630  0.8341 -0.1566
    11RH     S212063   5.778   5.158   3.549 -0.5150 -0.6412 -0.0052
    11RH     O112064   6.105   4.906   3.845  0.0621  0.5248  0.3603
    11RH     C512065   6.250   4.862   3.592 -0.1256  0.0252  0.3380
    21BTZ    C612066   6.341   4.833   3.480  0.1736  0.2874 -0.1827
    21BTZ    C712067   6.336   4.886   3.354  0.2778  0.2408 -0.2071
    21BTZ    C812068   6.444   4.737   3.510  0.0582  0.1881 -0.1050
    21BTZ    C912069   6.430   4.848   3.252  0.2738  0.0950 -0.1569
    21BTZ   C1012070   6.529   4.756   3.275  0.1658 -0.0039 -0.0822
    21BTZ   C1112071   6.539   4.698   3.406  0.0541  0.0399 -0.0539
    21BTZ    N212072   6.459   4.678   3.629 -0.0494  0.2209 -0.0745
    21BTZ    N312073   6.631   4.608   3.441 -0.0567 -0.0464  0.0176
    21BTZ    S312074   6.599   4.568   3.613 -0.1628  0.0603  0.0228
    31IDT   C1212075   6.615   4.725   3.153 -0.1210 -0.1939 -0.1513
    31IDT   C1312076   6.707   4.624   3.139 -0.0353 -0.1365 -0.0086
    31IDT   C1412077   6.761   4.617   3.007  0.2384 -0.0488  0.0978
    31IDT   C1512078   6.712   4.711   2.920  0.3629 -0.0385  0.0368
    31IDT    S412079   6.591   4.818   2.999  0.1410 -0.1405 -0.1617
    4IDB    C1612080   6.784   4.701   2.791 -0.0128 -0.0233  0.3542
    4IDB    C1712081   6.889   4.605   2.805 -0.1612 -0.2055  0.2316
    51IDQ   C1812082   6.878   4.546   2.945 -0.1563  0.1148  0.1119
    4IDB    C1912083   6.970   4.571   2.698 -0.0342  0.0170  0.2558
    51IDQ   C2012084   6.856   4.392   2.924  0.6823 -0.1338 -0.1241
    51IDQ   C2112085   6.999   4.568   3.038 -0.0013  0.0335 -0.0661
    51IDQ   C2212086   7.122   4.656   3.002  0.0797 -0.0429  0.0199
    51IDQ   C2312087   6.715   4.325   2.922  0.8281  0.1135  0.1135
    51IDQ   C2412088   7.223   4.656   3.120 -0.0342 -0.5729  0.7690
    51IDQ   C2512089   7.363   4.691   3.063  0.1134 -0.0012 -0.1789
    51IDQ   C2612090   7.463   4.728   3.170 -0.0417  0.8155  0.0909
    51IDQ   C2712091   7.582   4.811   3.126  0.5481 -0.0386 -0.2816
    51IDQ   C2812092   7.576   4.959   3.075 -0.7082  0.0399  0.2684
    51IDQ   C2912093   7.469   5.055   3.121 -0.1128  0.4108  0.2875
    51IDQ   C3012094   6.614   4.366   2.815 -0.1025 -0.6948  0.7317
    51IDQ   C3112095   6.477   4.302   2.820 -0.3444 -0.4609  0.8439
    51IDQ   C3212096   6.379   4.342   2.708  0.5499  0.2166  0.0153
    51IDQ   C3312097   6.238   4.290   2.735 -0.0482 -0.0707 -0.1105
    51IDQ   C3412098   6.141   4.365   2.648  1.2181  0.5087  0.2554
    51IDQ   C3512099   6.001   4.305   2.640 -0.3524  0.1358  0.3456
    4IDB    C3612100   6.759   4.764   2.668  0.2652  0.3853  0.5027
    4IDB    C3712101   6.843   4.728   2.559  0.3916  0.6081  0.5252
    11RH    C3812102   5.767   5.007   3.902  0.5343  0.1460  0.6142
    4IDB    C3912103   6.945   4.634   2.574  0.2438  0.4256  0.4042
    62IDT   C4012104   7.013   4.612   2.448  0.1967  0.3146 -0.3511
    72IDQ   C4112105   6.835   4.763   2.409 -0.2641 -0.4548 -0.5142
    62IDT   C4212106   6.948   4.683   2.349  0.7466  0.9127 -0.2918
    72IDQ   C4312107   6.852   4.917   2.383  0.2392  0.5377  0.2498
    72IDQ   C4412108   6.709   4.716   2.329 -0.7637 -0.0951 -0.3647
    62IDT    S512109   7.154   4.521   2.384 -0.1585 -0.2704 -0.3204
    62IDT   C4512110   7.116   4.588   2.219  0.4866  0.3550 -0.2247
    62IDT   C4612111   7.007   4.670   2.220  0.9113  0.9364 -0.2203
    82BTZ   C4712112   7.187   4.538   2.101  0.3300  0.0299  0.0065
    82BTZ   C4812113   7.229   4.408   2.092  0.3527  0.0415 -0.0662
    82BTZ   C4912114   7.296   4.357   1.975  0.1676  0.0627 -0.1827
    82BTZ   C5012115   7.322   4.437   1.867 -0.0399  0.0720 -0.2264
    82BTZ   C5112116   7.212   4.626   1.990  0.1161  0.0386 -0.0352
    82BTZ   C5212117   7.281   4.574   1.871 -0.0720  0.0602 -0.1537
    92RH    C5312118   7.381   4.390   1.744  0.0232  0.1262  0.0839
    82BTZ    N412119   7.177   4.755   1.986  0.0734  0.0286  0.0273
    82BTZ    N512120   7.300   4.662   1.772 -0.2660  0.0675 -0.1864
    82BTZ    S612121   7.230   4.817   1.827 -0.2153  0.0469 -0.0647
    92RH    C5412122   7.416   4.265   1.711 -0.0086  0.1427 -0.0134
    92RH     S712123   7.399   4.115   1.816 -0.2313  0.0334 -0.2039
    92RH    C5512124   7.475   4.228   1.580  0.1373  0.2567  0.0200
    92RH     O212125   7.499   4.307   1.487  0.3030  0.3482  0.1394
    92RH     N612126   7.501   4.090   1.573  0.0651  0.2490 -0.1026
    92RH    C5612127   7.471   4.011   1.682 -0.1210  0.1434 -0.2302
    92RH    C5712128   7.548   4.026   1.444 -0.0095 -0.3344 -0.2439
    92RH    C5812129   7.701   4.019   1.438 -0.0496 -0.0361  0.2264
    92RH     S812130   7.492   3.845   1.698 -0.2406  0.1115 -0.3907
    72IDQ   C5912131   6.566   4.757   2.358  0.5699 -1.0351 -0.5948
    72IDQ   C6012132   6.454   4.664   2.314  0.4188  0.9311  0.0419
    72IDQ   C6112133   6.453   4.660   2.160  0.1692  0.1830  0.4242
    72IDQ   C6212134   6.372   4.540   2.100 -0.5823 -0.1165 -0.3158
    72IDQ   C6312135   6.226   4.558   2.103 -0.0788 -0.0588 -0.1073
    72IDQ   C6412136   6.159   4.430   2.064 -0.3015  0.0459 -0.1460
    72IDQ   C6512137   6.027   4.442   1.988 -0.3491  0.1132 -0.4030
    72IDQ   C6612138   6.957   5.007   2.445  0.3089  0.3940 -0.2523
    72IDQ   C6712139   7.103   4.982   2.403 -0.4696 -0.6720 -0.3997
    72IDQ   C6812140   7.199   5.073   2.484  0.1043  0.8008  0.5158
    72IDQ   C6912141   7.341   5.042   2.439 -0.1455 -0.7678  0.4535
    72IDQ   C7012142   7.449   5.075   2.544  0.3504 -0.1711 -0.1569
    72IDQ   C7112143   7.437   5.034   2.694 -0.4843  1.2096 -0.1585
    72IDQ   C7212144   7.418   4.883   2.714 -0.2133 -0.0028 -0.1309
    11RH     C112145   2.505   3.393   3.817 -0.1478 -0.2317  0.5018
    11RH     C212146   2.367   3.361   3.773 -0.0662 -0.2397  0.2431
    11RH     N112147   2.584   3.439   3.709  0.0011 -0.0564  0.6841
    11RH     S112148   2.349   3.394   3.594  0.2011 -0.0161  0.2563
    11RH     C312149   2.525   3.449   3.584  0.1920  0.0771  0.6030
    11RH     C412150   2.723   3.492   3.724 -0.6548  0.3569 -0.6543
    11RH     S212151   2.596   3.501   3.440  0.3951  0.2956  0.7801
    11RH     O112152   2.549   3.381   3.932 -0.3238 -0.3605  0.5569
    11RH     C512153   2.273   3.315   3.856 -0.1760 -0.3901  0.0361
    21BTZ    C612154   2.133   3.272   3.832 -0.0532  0.0070  0.2023
    21BTZ    C712155   2.075   3.280   3.708 -0.0675  0.1530  0.2187
    21BTZ    C812156   2.059   3.212   3.939 -0.1013  0.0221  0.1774
    21BTZ    C912157   1.942   3.231   3.683 -0.1292  0.3199  0.2117
    21BTZ   C1012158   1.867   3.172   3.782 -0.1765  0.3407  0.1882
    21BTZ   C1112159   1.923   3.161   3.914 -0.1639  0.1917  0.1702
    21BTZ    N212160   2.105   3.198   4.064 -0.0931 -0.1105  0.1597
    21BTZ    N312161   1.861   3.106   4.018 -0.2062  0.1954  0.1469
    21BTZ    S312162   1.974   3.117   4.156 -0.1668 -0.0222  0.1327
    31IDT   C1212163   1.739   3.112   3.744 -0.0572 -0.8321  0.3563
    31IDT   C1312164   1.632   3.084   3.824  0.0078 -1.1882  0.3205
    31IDT   C1412165   1.519   3.037   3.751 -0.0388 -0.9004  0.2067
    31IDT   C1512166   1.539   3.030   3.615 -0.1395 -0.3246  0.1554
    31IDT    S412167   1.704   3.082   3.568 -0.1835 -0.0999  0.2478
    4IDB    C1612168   1.415   3.010   3.547 -0.1532 -0.1019 -0.5523
    4IDB    C1712169   1.311   2.988   3.642 -0.0776 -0.1817 -0.4870
    51IDQ   C1812170   1.373   3.002   3.782 -0.3853  0.2435 -0.2701
    4IDB    C1912171   1.179   2.974   3.600 -0.1141 -0.1218 -0.3916
    51IDQ   C2012172   1.297   3.122   3.850  0.0433  0.5610 -0.2313
    51IDQ   C2112173   1.366   2.883   3.879 -0.2528  0.2042 -0.2680
    51IDQ   C2212174   1.320   2.745   3.844  0.9449 -0.4172  0.6339
    51IDQ   C2312175   1.337   3.266   3.894 -0.4352  0.5229 -0.1628
    51IDQ   C2412176   1.372   2.650   3.947 -0.1423  0.1085 -0.0384
    51IDQ   C2512177   1.337   2.666   4.099 -0.0675  0.1618  0.3106
    51IDQ   C2612178   1.415   2.573   4.184 -0.1865  0.7137 -0.2112
    51IDQ   C2712179   1.377   2.574   4.334  0.0753 -0.0156 -0.7470
    51IDQ   C2812180   1.470   2.514   4.439 -0.5438 -0.2271  0.0985
    51IDQ   C2912181   1.475   2.363   4.428  0.4641  0.0598  0.3116
    51IDQ   C3012182   1.321   3.375   3.794  0.6483 -0.4837  0.2178
    51IDQ   C3112183   1.192   3.381   3.719 -0.8435  0.7039 -0.0461
    51IDQ   C3212184   1.184   3.488   3.613  0.4037 -0.3215 -0.3599
    51IDQ   C3312185   1.087   3.459   3.500 -0.5271 -0.2760 -0.3770
    51IDQ   C3412186   1.082   3.566   3.388 -0.1876  0.3597 -0.2557
    51IDQ   C3512187   1.005   3.521   3.269  1.0685 -0.1434 -0.0525
    4IDB    C3612188   1.388   3.018   3.409 -0.2663  0.0391 -0.5223
    4IDB    C3712189   1.253   3.003   3.369 -0.3021  0.0986 -0.4246
    11RH    C3812190   2.751   3.646   3.743  0.2255  0.5948 -0.0352
    4IDB    C3912191   1.152   2.982   3.463 -0.2273  0.0193 -0.3616
    62IDT   C4012192   1.025   2.965   3.388 -0.1760  0.2352 -0.1699
    72IDQ   C4112193   1.192   3.016   3.226  0.6064  0.7105 -0.3359
    62IDT   C4212194   1.044   2.984   3.253 -0.2703  0.2235 -0.1854
    72IDQ   C4312195   1.262   2.916   3.123  0.4695 -0.2509  0.5549
    72IDQ   C4412196   1.192   3.168   3.178 -0.3194 -0.0416  0.2809
    62IDT    S512197   0.854   2.925   3.426 -0.1391  0.1883 -0.0526
    62IDT   C4512198   0.816   2.936   3.249 -0.2590  0.1537 -0.0296
    62IDT   C4612199   0.926   2.968   3.174 -0.3174  0.1775 -0.1061
    82BTZ   C4712200   0.676   2.908   3.209 -0.2115 -0.4306 -0.0409
    82BTZ   C4812201   0.580   2.892   3.305 -0.1848 -0.5319 -0.0306
    82BTZ   C4912202   0.443   2.862   3.271 -0.2025 -0.4570 -0.0267
    82BTZ   C5012203   0.403   2.848   3.141 -0.2469 -0.2807 -0.0329
    82BTZ   C5112204   0.639   2.894   3.071 -0.2582 -0.2453 -0.0477
    82BTZ   C5212205   0.500   2.863   3.037 -0.2762 -0.1692 -0.0437
    92RH    C5312206   0.265   2.818   3.103 -0.3217  0.1575 -0.4257
    82BTZ    N412207   0.723   2.907   2.969 -0.2875 -0.1332 -0.0578
    82BTZ    N512208   0.473   2.852   2.907 -0.3200  0.0042 -0.0506
    82BTZ    S612209   0.627   2.880   2.821 -0.3405  0.0790 -0.0626
    92RH    C5412210   0.146   2.798   3.161 -0.2158  0.0753 -0.2322
    92RH     S712211   0.100   2.834   3.335  0.0406  0.0461 -0.1580
    92RH    C5512212   0.029   2.742   3.089 -0.2935 -0.0072 -0.0421
    92RH     O212213   0.027   2.707   2.970 -0.4623 -0.0102 -0.0392
    92RH     N612214  -0.084   2.732   3.173 -0.1502 -0.0844  0.1407
    92RH    C5612215  -0.071   2.773   3.304  0.0328 -0.0737  0.1203
    92RH    C5712216  -0.210   2.679   3.106 -0.6029  0.7036 -0.3667
    92RH    C5812217  -0.215   2.518   3.088  0.4633 -1.4751 -0.6751
    92RH     S812218  -0.189   2.772   3.425  0.2279 -0.1541  0.3119
    72IDQ   C5912219   1.335   3.229   3.152  0.2736 -0.4432  0.5017
    72IDQ   C6012220   1.321   3.379   3.138 -0.5148 -0.3642 -0.0271
    72IDQ   C6112221   1.453   3.464   3.136  0.6717  0.7089  0.0184
    72IDQ   C6212222   1.443   3.608   3.182 -0.1609 -0.5844  0.2923
    72IDQ   C6312223   1.323   3.696   3.157  0.1029  0.3064 -0.2492
    72IDQ   C6412224   1.366   3.834   3.205 -0.3485  0.9901  0.0563
    72IDQ   C6512225   1.246   3.920   3.217  0.2468 -0.5303 -0.3147
    72IDQ   C6612226   1.286   2.767   3.157 -0.1639 -0.2139  0.5219
    72IDQ   C6712227   1.158   2.685   3.151 -0.4943 -0.4147 -0.1884
    72IDQ   C6812228   1.185   2.534   3.183  0.4473  0.3253 -0.3270
    72IDQ   C6912229   1.063   2.447   3.178  0.6499  0.3099  0.3030
    72IDQ   C7012230   0.940   2.488   3.266  0.1652  0.5832 -0.1660
    72IDQ   C7112231   0.982   2.502   3.415  0.1311  0.7644 -0.1868
    72IDQ   C7212232   0.883   2.556   3.518  0.0097  0.1467  0.0824
    11RH     C112233   1.837   6.533   4.710  0.1199  0.1160  0.0257
    11RH     C212234   1.809   6.640   4.612 -0.1607  0.0020 -0.0192
    11RH     N112235   1.742   6.533   4.815  0.2166  0.0178  0.1138
    11RH     S112236   1.659   6.734   4.663 -0.2791 -0.2272  0.0571
    11RH     C312237   1.641   6.627   4.812  0.0477 -0.1613  0.1448
    11RH     C412238   1.736   6.434   4.931  0.2321  0.3233 -0.2283
    11RH     S212239   1.517   6.649   4.924  0.1132 -0.3074  0.2462
    11RH     O112240   1.931   6.453   4.704  0.2573  0.2778 -0.0080
    11RH     C512241   1.883   6.662   4.503 -0.2995  0.0625 -0.1031
    21BTZ    C612242   1.895   6.766   4.397  0.2625  0.2899  0.0005
    21BTZ    C712243   1.815   6.877   4.396  0.2382  0.2717 -0.1010
    21BTZ    C812244   1.978   6.740   4.283  0.1625  0.1264 -0.0359
    21BTZ    C912245   1.811   6.967   4.284  0.1154  0.0930 -0.2424
    21BTZ   C1012246   1.889   6.947   4.173  0.0170 -0.0671 -0.2820
    21BTZ   C1112247   1.975   6.832   4.169  0.0376 -0.0552 -0.1796
    21BTZ    N212248   2.061   6.636   4.272  0.1744  0.1264  0.0535
    21BTZ    N312249   2.055   6.802   4.066 -0.0508 -0.2011 -0.2058
    21BTZ    S312250   2.140   6.651   4.112  0.0235 -0.1107 -0.0442
    31IDT   C1212251   1.870   7.035   4.055 -0.6592  0.0495  0.2375
    31IDT   C1312252   1.964   7.058   3.958 -0.2576 -0.2325  0.5475
    31IDT   C1412253   1.915   7.142   3.853  0.2716 -0.2723  0.2624
    31IDT   C1512254   1.784   7.184   3.870  0.2772 -0.0215 -0.2656
    31IDT    S412255   1.712   7.119   4.022 -0.3937  0.2873 -0.4444
    4IDB    C1612256   1.745   7.263   3.760  0.3838  0.1283 -0.2463
    4IDB    C1712257   1.846   7.263   3.659  0.1032 -0.2261 -0.5341
    51IDQ   C1812258   1.972   7.195   3.718  1.1999  0.1462  0.9942
    4IDB    C1912259   1.825   7.325   3.537 -0.0894 -0.3047 -0.5419
    51IDQ   C2012260   2.009   7.082   3.614 -0.6562  0.1231 -0.2235
    51IDQ   C2112261   2.098   7.284   3.747 -0.1438  0.6206  0.0909
    51IDQ   C2212262   2.111   7.437   3.729 -0.4767 -0.0764  0.4428
    51IDQ   C2312263   2.005   6.931   3.661  0.5024 -0.6849  0.5772
    51IDQ   C2412264   2.139   7.473   3.580 -0.2444 -0.5256 -0.0514
    51IDQ   C2512265   2.169   7.617   3.560  0.2352 -0.6041 -0.1033
    51IDQ   C2612266   2.206   7.648   3.417 -1.0093 -0.8460  0.2529
    51IDQ   C2712267   2.094   7.625   3.311 -0.8765  0.1865 -0.0705
    51IDQ   C2812268   2.156   7.640   3.177  0.1057  0.3429  0.5974
    51IDQ   C2912269   2.059   7.623   3.057 -0.1719 -0.1313  0.4625
    51IDQ   C3012270   2.026   6.826   3.555 -0.9055  0.6243  0.0777
    51IDQ   C3112271   2.067   6.683   3.599  1.1233 -0.3787 -0.3631
    51IDQ   C3212272   2.103   6.586   3.485 -0.3513  0.6194 -0.3082
    51IDQ   C3312273   2.220   6.627   3.389 -0.0447  0.0916  0.0316
    51IDQ   C3412274   2.256   6.536   3.274  0.1646  0.1533 -0.1673
    51IDQ   C3512275   2.352   6.602   3.172 -0.3350 -0.0201  0.2917
    4IDB    C3612276   1.621   7.326   3.738  0.4738  0.4077  0.0370
    4IDB    C3712277   1.602   7.389   3.612  0.2742  0.3224  0.0244
    11RH    C3812278   1.829   6.454   5.052 -0.0192  0.2839  0.1254
    4IDB    C3912279   1.702   7.388   3.515  0.0007 -0.0252 -0.2586
    62IDT   C4012280   1.658   7.465   3.398 -0.1089 -0.2108 -0.1567
    72IDQ   C4112281   1.474   7.464   3.556 -0.6221 -0.4697 -0.1745
    62IDT   C4212282   1.527   7.504   3.417 -0.0606 -0.0212 -0.2142
    72IDQ   C4312283   1.429   7.598   3.633 -0.6283  0.0233 -0.5926
    72IDQ   C4412284   1.346   7.371   3.537 -0.5515  0.4355  0.7345
    62IDT    S512285   1.723   7.521   3.240  0.0654 -0.2422 -0.0966
    62IDT   C4512286   1.562   7.599   3.206  0.2009  0.0153 -0.1551
    62IDT   C4612287   1.473   7.580   3.309  0.1146  0.1069 -0.2134
    82BTZ   C4712288   1.543   7.674   3.077 -0.0940  0.0784  0.0627
    82BTZ   C4812289   1.655   7.703   3.003 -0.1600  0.1002 -0.0294
    82BTZ   C4912290   1.647   7.771   2.876 -0.2846  0.0170 -0.0660
    82BTZ   C5012291   1.527   7.810   2.823 -0.3431 -0.0880 -0.0104
    82BTZ   C5112292   1.415   7.712   3.025 -0.1512 -0.0302  0.1237
    82BTZ   C5212293   1.407   7.781   2.896 -0.2779 -0.1148  0.0865
    92RH    C5312294   1.515   7.873   2.691  0.1256  0.0949 -0.0373
    82BTZ    N412295   1.299   7.689   3.087 -0.0965 -0.0614  0.2147
    82BTZ    N512296   1.284   7.814   2.854 -0.3250 -0.2140  0.1475
    82BTZ    S612297   1.172   7.756   2.981 -0.2069 -0.2032  0.2574
    92RH    C5412298   1.600   7.911   2.595  0.1201 -0.0377 -0.0945
    92RH     S712299   1.780   7.875   2.587  0.1317  0.0034 -0.0235
    92RH    C5512300   1.559   7.990   2.476  0.1032 -0.2450 -0.2285
    92RH     O212301   1.444   8.031   2.452  0.0924 -0.3193 -0.3025
    92RH     N612302   1.669   8.016   2.391  0.1008 -0.3518 -0.2638
    92RH    C5612303   1.792   7.966   2.427  0.1136 -0.2554 -0.1743
    92RH    C5712304   1.646   8.097   2.265  0.4329 -0.6799 -0.0949
    92RH    C5812305   1.663   8.252   2.268  0.0950 -0.1790  0.1043
    92RH     S812306   1.938   7.983   2.344  0.1140 -0.3481 -0.1920
    72IDQ   C5912307   1.364   7.240   3.448 -1.0613  0.1779  0.1387
    72IDQ   C6012308   1.245   7.157   3.415  0.1762  1.1373 -0.1689
    72IDQ   C6112309   1.149   7.228   3.317  0.1082 -0.7992  0.2881
    72IDQ   C6212310   1.024   7.157   3.281  0.8110  0.6327  0.1361
    72IDQ   C6312311   1.022   7.011   3.232  0.1093 -0.1995 -0.1289
    72IDQ   C6412312   0.876   6.958   3.223 -0.4841  0.7191 -0.1916
    72IDQ   C6512313   0.881   6.823   3.158 -0.1010  1.2116 -0.2526
    72IDQ   C6612314   1.517   7.722   3.638 -0.1548 -0.3903 -0.3836
    72IDQ   C6712315   1.664   7.710   3.686  0.5358  0.4404 -0.0564
    72IDQ   C6812316   1.736   7.837   3.668 -0.2800 -0.1340 -0.1677
    72IDQ   C6912317   1.885   7.823   3.649 -0.0324  0.1069 -0.0496
    72IDQ   C7012318   1.955   7.956   3.665  0.3153  0.0881  0.2006
    72IDQ   C7112319   2.109   7.952   3.679  0.5920  0.3785  0.4547
    72IDQ   C7212320   2.169   7.893   3.802  0.1458  0.2492  0.3426
    11RH     C112321   0.394   3.160   5.643  0.1111 -0.2288 -0.0073
    11RH     C212322   0.398   3.305   5.610  0.0793 -0.1887  0.1606
    11RH     N112323   0.510   3.120   5.713  0.0779 -0.2644  0.0275
    11RH     S112324   0.554   3.378   5.672  0.0078 -0.2005  0.3530
    11RH     C312325   0.607   3.215   5.740  0.0234 -0.2577  0.2025
    11RH     C412326   0.516   2.980   5.760  0.2605  0.1436 -0.1686
    11RH     S212327   0.753   3.194   5.821 -0.0245 -0.2944  0.2794
    11RH     O112328   0.302   3.082   5.614  0.1605 -0.2316 -0.1606
    11RH     C512329   0.301   3.368   5.543  0.1010 -0.1505  0.1649
    21BTZ    C612330   0.274   3.502   5.501 -0.0142 -0.1660  0.2623
    21BTZ    C712331   0.365   3.602   5.521  0.0426 -0.2033  0.1925
    21BTZ    C812332   0.153   3.533   5.431  0.0145 -0.1513  0.2189
    21BTZ    C912333   0.342   3.736   5.475  0.1298 -0.2277  0.0775
    21BTZ   C1012334   0.228   3.771   5.408  0.1601 -0.2148  0.0325
    21BTZ   C1112335   0.129   3.670   5.384  0.1031 -0.1761  0.1022
    21BTZ    N212336   0.056   3.444   5.405 -0.0347 -0.1156  0.2785
    21BTZ    N312337   0.014   3.691   5.319  0.1251 -0.1604  0.0677
    21BTZ    S312338  -0.071   3.534   5.317  0.0316 -0.1121  0.1859
    31IDT   C1212339   0.228   3.904   5.337  0.4514 -0.1337 -0.5444
    31IDT   C1312340   0.120   3.981   5.304  0.2612 -0.4990 -0.7983
    31IDT   C1412341   0.157   4.110   5.254 -0.0564 -0.4306 -0.8639
    31IDT   C1512342   0.293   4.131   5.249 -0.1102 -0.0139 -0.6611
    31IDT    S412343   0.386   3.989   5.307  0.2403  0.3276 -0.3684
    4IDB    C1612344   0.318   4.261   5.195 -0.1860 -0.3733  0.0283
    4IDB    C1712345   0.195   4.326   5.165 -0.1379 -0.3333 -0.0838
    51IDQ   C1812346   0.078   4.233   5.205 -1.2563  0.1114 -0.1918
    4IDB    C1912347   0.193   4.455   5.112 -0.0522 -0.2824  0.0378
    51IDQ   C2012348  -0.009   4.313   5.318 -0.6905 -0.7772  0.3514
    51IDQ   C2112349  -0.020   4.181   5.088  0.5381  0.0737 -0.1592
    51IDQ   C2212350  -0.002   4.230   4.946 -0.0252  0.2199  1.0307
    51IDQ   C2312351  -0.032   4.260   5.461 -0.6526 -0.0008  0.1165
    51IDQ   C2412352  -0.103   4.189   4.839  0.2136  0.0413  0.4212
    51IDQ   C2512353  -0.079   4.241   4.695 -0.5861 -0.7009 -0.7479
    51IDQ   C2612354  -0.172   4.176   4.597 -0.1328 -0.0013 -0.3347
    51IDQ   C2712355  -0.152   4.217   4.450  0.4397  0.5269  0.3921
    51IDQ   C2812356  -0.264   4.161   4.364 -0.1334 -0.5171 -0.0086
    51IDQ   C2912357  -0.276   4.208   4.220 -0.1521  0.2115  0.4825
    51IDQ   C3012358  -0.107   4.355   5.534  0.3155 -0.2788  0.2579
    51IDQ   C3112359  -0.135   4.297   5.671 -0.3559  0.3436  0.0603
    51IDQ   C3212360  -0.195   4.400   5.770 -0.3974 -0.2345 -0.2559
    51IDQ   C3312361  -0.152   4.549   5.768  0.3841  0.5216  0.1583
    51IDQ   C3412362  -0.204   4.639   5.874  0.7087 -0.2454 -0.6741
    51IDQ   C3512363  -0.190   4.788   5.834 -0.2021  0.8642  0.1302
    4IDB    C3612364   0.441   4.324   5.173 -0.1485 -0.3625  0.2639
    4IDB    C3712365   0.438   4.456   5.119 -0.0609 -0.3103  0.3855
    11RH    C3812366   0.597   2.884   5.671 -0.0762 -0.0744 -0.2682
    4IDB    C3912367   0.316   4.519   5.090 -0.0146 -0.2716  0.2737
    62IDT   C4012368   0.344   4.647   5.027 -0.2471  0.0059  0.0364
    72IDQ   C4112369   0.556   4.552   5.085  0.9810  0.0670 -0.8398
    62IDT   C4212370   0.480   4.668   5.022 -0.1945 -0.2919  0.1633
    72IDQ   C4312371   0.661   4.479   4.996 -0.1548  0.0087 -0.0653
    72IDQ   C4412372   0.642   4.591   5.211 -0.1441 -0.2943  0.5670
    62IDT    S512373   0.252   4.782   4.952  0.1158  0.2209 -0.0256
    62IDT   C4512374   0.410   4.864   4.916  0.3299 -0.1195  0.1308
    62IDT   C4612375   0.518   4.791   4.959  0.1318 -0.3632  0.2168
    82BTZ   C4712376   0.408   4.975   4.819  0.0228  0.1205  0.2391
    82BTZ   C4812377   0.314   4.969   4.719  0.0314  0.0678  0.2345
    82BTZ   C4912378   0.313   5.063   4.610  0.0650 -0.0142  0.1633
    82BTZ   C5012379   0.406   5.163   4.600  0.0900 -0.0435  0.0971
    82BTZ   C5112380   0.507   5.079   4.813  0.0480  0.0927  0.1713
    82BTZ   C5212381   0.506   5.174   4.702  0.0822  0.0093  0.0989
    92RH    C5312382   0.407   5.260   4.488 -0.2596  0.2601  0.1284
    82BTZ    N412383   0.603   5.095   4.904  0.0427  0.1384  0.1686
    82BTZ    N512384   0.601   5.268   4.704  0.1044 -0.0122  0.0381
    82BTZ    S612385   0.699   5.237   4.850  0.0820  0.0753  0.0715
    92RH    C5412386   0.338   5.266   4.374 -0.0679  0.1117  0.0023
    92RH     S712387   0.213   5.145   4.315  0.2912 -0.1524 -0.2218
    92RH    C5512388   0.352   5.376   4.275 -0.1202  0.1401  0.0263
    92RH     O212389   0.428   5.473   4.286 -0.3429  0.3014  0.1632
    92RH     N612390   0.266   5.356   4.164  0.1181 -0.0416 -0.1282
    92RH    C5612391   0.185   5.245   4.162  0.3550 -0.2122 -0.2729
    92RH    C5712392   0.292   5.442   4.049  0.1915 -0.1953  0.8599
    92RH    C5812393   0.218   5.578   4.040 -0.5727  0.1870 -0.0367
    92RH     S812394   0.076   5.199   4.043  0.6644 -0.4457 -0.4715
    72IDQ   C5912395   0.581   4.668   5.331 -0.2321  0.4373  0.3993
    72IDQ   C6012396   0.670   4.746   5.424 -0.0902 -0.4286 -0.2640
    72IDQ   C6112397   0.591   4.813   5.541 -0.2106  0.0007  0.5429
    72IDQ   C6212398   0.667   4.897   5.649  0.7183  0.0211 -0.2157
    72IDQ   C6312399   0.582   4.920   5.777 -0.2364  0.1535  0.4947
    72IDQ   C6412400   0.598   4.833   5.896 -0.6407  0.7440 -0.8655
    72IDQ   C6512401   0.737   4.863   5.960  0.0582 -0.0372 -0.2478
    72IDQ   C6612402   0.622   4.441   4.852 -0.4963 -0.0548 -0.3784
    72IDQ   C6712403   0.738   4.366   4.786  0.8320  0.4088  0.2955
    72IDQ   C6812404   0.830   4.430   4.684  0.4734 -0.3585 -0.4601
    72IDQ   C6912405   0.936   4.336   4.633 -0.4917 -0.4975  0.5789
    72IDQ   C7012406   1.055   4.285   4.724 -0.2295  0.1416  0.1328
    72IDQ   C7112407   1.139   4.159   4.699 -0.3798  0.4373  0.0700
    72IDQ   C7212408   1.187   4.140   4.560 -0.6695  0.0624  0.0274
    11RH     C112409   6.462   2.863   6.537 -0.1407  0.1484 -0.0563
    11RH     C212410   6.377   2.984   6.542 -0.0113  0.2362  0.0255
    11RH     N112411   6.599   2.896   6.534 -0.1083  0.0074 -0.1720
    11RH     S112412   6.482   3.134   6.543  0.1443  0.1274 -0.0551
    11RH     C312413   6.634   3.029   6.536  0.0311 -0.0286 -0.1931
    11RH     C412414   6.712   2.787   6.528  0.4223  0.2698 -0.2306
    11RH     S212415   6.789   3.095   6.533  0.0973 -0.1881 -0.3222
    11RH     O112416   6.421   2.746   6.535 -0.2631  0.1908 -0.0290
    11RH     C512417   6.243   2.980   6.546 -0.0126  0.3736  0.1404
    21BTZ    C612418   6.137   3.081   6.562 -0.2126 -0.0932  0.0982
    21BTZ    C712419   6.158   3.216   6.571 -0.2841 -0.0904  0.2283
    21BTZ    C812420   6.004   3.030   6.576 -0.1752 -0.1837  0.1322
    21BTZ    C912421   6.049   3.308   6.593 -0.3220 -0.1757  0.3968
    21BTZ   C1012422   5.920   3.264   6.607 -0.2884 -0.2637  0.4353
    21BTZ   C1112423   5.893   3.123   6.599 -0.2136 -0.2704  0.3035
    21BTZ    N212424   5.971   2.901   6.570 -0.1057 -0.1956  0.0165
    21BTZ    N312425   5.772   3.069   6.611 -0.1750 -0.3520  0.3254
    21BTZ    S312426   5.794   2.892   6.593 -0.0861 -0.3207  0.1235
    31IDT   C1212427   5.811   3.359   6.620  0.0683 -0.2690  0.1323
    31IDT   C1312428   5.817   3.475   6.692  0.0689 -0.5375  0.5692
    31IDT   C1412429   5.696   3.551   6.683  0.2085 -0.3193  0.5438
    31IDT   C1512430   5.599   3.494   6.604  0.3150  0.1159  0.0881
    31IDT    S412431   5.652   3.338   6.534  0.2461  0.2847 -0.3476
    4IDB    C1612432   5.481   3.580   6.589 -0.0404 -0.2899  0.2434
    4IDB    C1712433   5.504   3.695   6.670 -0.2172 -0.4890  0.5786
    51IDQ   C1812434   5.643   3.688   6.733 -0.6792 -0.1651  0.0831
    4IDB    C1912435   5.408   3.796   6.679 -0.1144 -0.3741  0.3863
    51IDQ   C2012436   5.727   3.818   6.689 -0.0231 -0.2553 -0.3881
    51IDQ   C2112437   5.636   3.695   6.892 -0.0138 -0.0687  0.1696
    51IDQ   C2212438   5.508   3.669   6.972 -0.2081 -0.0262 -0.1542
    51IDQ   C2312439   5.864   3.800   6.624 -0.4405 -0.4397  0.9092
    51IDQ   C2412440   5.502   3.663   7.126 -0.0562  0.3403 -0.0463
    51IDQ   C2512441   5.385   3.585   7.180 -0.5835  1.0543 -0.1228
    51IDQ   C2612442   5.406   3.426   7.169 -0.0010  0.0364  0.3490
    51IDQ   C2712443   5.266   3.374   7.176 -0.5560  0.5775  0.2103
    51IDQ   C2812444   5.244   3.217   7.193 -0.3890 -0.6941 -0.8741
    51IDQ   C2912445   5.097   3.173   7.197 -0.0256 -0.9073  0.1388
    51IDQ   C3012446   5.983   3.802   6.721  0.1107 -0.4575 -0.3593
    51IDQ   C3112447   6.128   3.783   6.671 -0.4540 -0.0880  0.3992
    51IDQ   C3212448   6.147   3.657   6.590 -0.1604 -0.0139 -0.4986
    51IDQ   C3312449   6.299   3.638   6.569  0.8232 -0.0507 -0.2322
    51IDQ   C3412450   6.324   3.536   6.457  0.1817 -0.0372  0.1872
    51IDQ   C3512451   6.472   3.492   6.461  0.5336  0.2033 -0.0011
    4IDB    C3612452   5.363   3.565   6.515  0.2419  0.0273 -0.2902
    4IDB    C3712453   5.266   3.669   6.525  0.3431  0.1405 -0.4799
    11RH    C3812454   6.743   2.732   6.392 -0.7916 -0.2584  0.2503
    4IDB    C3912455   5.290   3.781   6.605  0.1678 -0.0569 -0.1473
    62IDT   C4012456   5.175   3.866   6.599  0.1451  0.3540  0.1458
    72IDQ   C4112457   5.123   3.678   6.461 -0.1697  0.6933 -0.4721
    62IDT   C4212458   5.080   3.813   6.513  0.2065  0.0383  0.2692
    72IDQ   C4312459   5.022   3.560   6.500  0.1060  0.3691 -0.1030
    72IDQ   C4412460   5.128   3.675   6.311  0.0847  0.1769  0.5192
    62IDT    S512461   5.123   4.024   6.667 -0.1082  0.3836 -0.1104
    62IDT   C4512462   4.969   4.010   6.571 -0.1184 -0.0538 -0.0334
    62IDT   C4612463   4.964   3.894   6.497  0.0575 -0.1927  0.1681
    82BTZ   C4712464   4.870   4.121   6.569 -0.0028 -0.1664  0.2034
    82BTZ   C4812465   4.923   4.245   6.589 -0.0726 -0.0975 -0.0366
    82BTZ   C4912466   4.840   4.363   6.598 -0.1330 -0.1143 -0.3430
    82BTZ   C5012467   4.704   4.355   6.588 -0.1236 -0.1998 -0.4087
    82BTZ   C5112468   4.728   4.108   6.558  0.0100 -0.2570  0.1462
    82BTZ   C5212469   4.643   4.227   6.567 -0.0515 -0.2741 -0.1651
    92RH    C5312470   4.622   4.476   6.588  0.3499 -0.2757  0.2799
    82BTZ    N412471   4.664   3.992   6.538  0.0753 -0.3295  0.3611
    82BTZ    N512472   4.512   4.207   6.556 -0.0355 -0.3603 -0.2004
    82BTZ    S612473   4.490   4.031   6.532  0.0611 -0.4247  0.1706
    92RH    C5412474   4.648   4.607   6.575  0.2126 -0.2619  0.1460
    92RH     S712475   4.810   4.684   6.540  0.1483 -0.1204  0.1588
    92RH    C5512476   4.544   4.712   6.587  0.0875 -0.3631 -0.0396
    92RH     O212477   4.423   4.693   6.610  0.0945 -0.4704 -0.0921
    92RH     N612478   4.599   4.841   6.568 -0.0443 -0.3228 -0.1532
    92RH    C5612479   4.733   4.852   6.543 -0.0402 -0.2017 -0.0814
    92RH    C5712480   4.506   4.960   6.584  0.3413  0.5357  0.5420
    92RH    C5812481   4.451   5.014   6.449 -0.4209  0.0335 -0.2652
    92RH     S812482   4.823   4.993   6.518 -0.1810 -0.1311 -0.1870
    72IDQ   C5912483   5.206   3.782   6.228  0.4357  0.1161 -0.2910
    72IDQ   C6012484   5.213   3.753   6.081  0.2150 -0.0273 -0.7732
    72IDQ   C6112485   5.080   3.771   6.005 -1.2846  0.2641  0.3290
    72IDQ   C6212486   5.034   3.916   5.967 -0.4319  0.0882  0.7402
    72IDQ   C6312487   5.143   4.015   5.914 -0.1593  0.7124 -0.8178
    72IDQ   C6412488   5.157   3.982   5.766 -0.3405 -0.3410  0.9295
    72IDQ   C6512489   5.227   4.105   5.701 -0.3020  0.4950  0.4716
    72IDQ   C6612490   4.983   3.544   6.650  0.2341  0.6760  0.1580
    72IDQ   C6712491   4.902   3.414   6.676 -0.6539 -0.0632  0.5546
    72IDQ   C6812492   4.972   3.278   6.652  0.4064  0.3667 -0.0941
    72IDQ   C6912493   5.098   3.262   6.731 -0.7248  0.5602  0.4996
    72IDQ   C7012494   5.145   3.119   6.747 -0.4439 -0.3495  0.2437
    72IDQ   C7112495   5.268   3.112   6.833  0.6123 -0.1546  0.1560
    72IDQ   C7212496   5.397   3.182   6.788  0.4044  0.5853 -0.3194
    11RH     C112497   4.746   2.009   2.812  0.2947 -0.1311 -0.0313
    11RH     C212498   4.759   2.113   2.916  0.0093 -0.1798  0.0526
    11RH     N112499   4.692   1.889   2.864  0.3136 -0.2136 -0.1976
    11RH     S112500   4.698   2.048   3.077 -0.2157 -0.3309 -0.0927
    11RH     C312501   4.659   1.886   2.998  0.0783 -0.3224 -0.2571
    11RH     C412502   4.669   1.774   2.776  0.0210  0.2205 -0.2462
    11RH     S212503   4.594   1.757   3.085  0.0452 -0.4355 -0.4491
    11RH     O112504   4.779   2.021   2.693  0.4956 -0.0310  0.0331
    11RH     C512505   4.807   2.236   2.893 -0.0644 -0.1196  0.2106
    21BTZ    C612506   4.843   2.348   2.973 -0.3586  0.1328 -0.1040
    21BTZ    C712507   4.842   2.351   3.109 -0.4796  0.0045 -0.1026
    21BTZ    C812508   4.893   2.463   2.902 -0.1088  0.1215  0.0504
    21BTZ    C912509   4.888   2.465   3.184 -0.3623 -0.1407  0.0495
    21BTZ   C1012510   4.936   2.577   3.121 -0.1241 -0.1571  0.1999
    21BTZ   C1112511   4.940   2.579   2.978  0.0104 -0.0260  0.2050
    21BTZ    N212512   4.899   2.472   2.769  0.0281  0.2383  0.0650
    21BTZ    N312513   4.985   2.682   2.905  0.2432 -0.0277  0.3437
    21BTZ    S312514   4.968   2.634   2.734  0.3214  0.1632  0.2815
    31IDT   C1212515   4.969   2.692   3.207 -0.2110 -0.1531  0.1066
    31IDT   C1312516   5.044   2.801   3.173 -0.1848 -0.1568  0.1521
    31IDT   C1412517   5.043   2.903   3.272 -0.2431 -0.1551  0.1494
    31IDT   C1512518   4.966   2.873   3.383 -0.3142 -0.1502  0.1021
    31IDT    S412519   4.890   2.711   3.370 -0.3123 -0.1472  0.0568
    4IDB    C1612520   4.965   2.983   3.475  0.2058 -0.2882  0.3381
    4IDB    C1712521   5.060   3.079   3.429  0.0677 -0.2329  0.1671
    51IDQ   C1812522   5.106   3.037   3.285 -0.5535  0.7019 -0.6100
    4IDB    C1912523   5.086   3.194   3.502 -0.0423 -0.1021  0.0004
    51IDQ   C2012524   5.080   3.148   3.176 -0.7591 -0.2210 -0.7475
    51IDQ   C2112525   5.260   2.998   3.277 -0.6880 -0.5552  0.0902
    51IDQ   C2212526   5.362   3.023   3.393 -0.5361 -0.1566  0.1708
    51IDQ   C2312527   5.002   3.127   3.047 -0.2329  0.7869  0.6257
    51IDQ   C2412528   5.513   3.007   3.350  0.2925 -1.0789  0.2974
    51IDQ   C2512529   5.550   2.865   3.324 -0.3169  0.2056 -0.0986
    51IDQ   C2612530   5.692   2.848   3.258 -0.6489 -0.3968  0.3775
    51IDQ   C2712531   5.806   2.922   3.328 -0.0476  0.2282  0.0967
    51IDQ   C2812532   5.948   2.900   3.268  0.6984 -0.4381  0.0336
    51IDQ   C2912533   6.063   2.929   3.367  0.3431  0.0634  0.4458
    51IDQ   C3012534   5.027   3.243   2.947  0.2558 -0.5617  0.1575
    51IDQ   C3112535   5.168   3.255   2.886 -0.8297 -0.2014 -0.1112
    51IDQ   C3212536   5.192   3.361   2.784  0.2906 -0.1831  0.5612
    51IDQ   C3312537   5.321   3.326   2.711  0.6973  0.1833  0.2980
    51IDQ   C3412538   5.355   3.418   2.595 -0.0627 -0.7595  0.4173
    51IDQ   C3512539   5.475   3.377   2.515 -0.4972  0.6737 -0.0767
    4IDB    C3612540   4.895   3.002   3.595  0.2350 -0.2124  0.3431
    4IDB    C3712541   4.923   3.121   3.668  0.1212 -0.0789  0.1714
    11RH    C3812542   4.793   1.688   2.756 -0.5652 -0.0885 -0.2569
    4IDB    C3912543   5.016   3.213   3.622 -0.0131 -0.0262  0.0054
    62IDT   C4012544   5.015   3.332   3.706  0.0687 -0.0235 -0.0847
    72IDQ   C4112545   4.860   3.176   3.798  0.1748 -0.8972  1.3321
    62IDT   C4212546   4.916   3.318   3.801  0.2722 -0.2315  0.0981
    72IDQ   C4312547   4.902   3.095   3.923  0.8249  0.3015 -0.3201
    72IDQ   C4412548   4.705   3.187   3.777  0.0041  0.0340  0.2205
    62IDT    S512549   5.086   3.498   3.707 -0.2317  0.1058 -0.1730
    62IDT   C4512550   4.972   3.540   3.842 -0.0577 -0.1402  0.0531
    62IDT   C4612551   4.891   3.435   3.878  0.2011 -0.2978  0.1764
    82BTZ   C4712552   4.974   3.675   3.896 -0.3001  0.1348 -0.0050
    82BTZ   C4812553   4.911   3.691   4.017 -0.4886  0.1458 -0.1042
    82BTZ   C4912554   4.901   3.820   4.079 -0.5196  0.1392 -0.0960
    82BTZ   C5012555   4.953   3.933   4.022 -0.3623  0.1218  0.0113
    82BTZ   C5112556   5.031   3.790   3.832 -0.1305  0.1165  0.1094
    82BTZ   C5212557   5.020   3.921   3.896 -0.1621  0.1098  0.1178
    92RH    C5312558   4.932   4.066   4.079  0.1217  0.0808 -0.0267
    82BTZ    N412559   5.094   3.786   3.714  0.0600  0.1045  0.2123
    82BTZ    N512560   5.075   4.024   3.830  0.0032  0.0926  0.2273
    82BTZ    S612561   5.144   3.955   3.680  0.2104  0.0840  0.3266
    92RH    C5412562   4.871   4.116   4.187  0.0274  0.1013 -0.0894
    92RH     S712563   4.774   4.023   4.312 -0.0362  0.1172 -0.1266
    92RH    C5512564   4.873   4.260   4.222 -0.0424  0.1147 -0.1401
    92RH     O212565   4.930   4.350   4.158 -0.0219  0.1086 -0.1305
    92RH     N612566   4.800   4.285   4.341 -0.1370  0.1355 -0.2020
    92RH    C5612567   4.741   4.179   4.405 -0.1518  0.1404 -0.2073
    92RH    C5712568   4.803   4.428   4.387  0.7146  0.7441  1.0241
    92RH    C5812569   4.926   4.481   4.455 -0.2495 -0.3649  0.9709
    92RH     S812570   4.650   4.182   4.547 -0.2568  0.1642 -0.2748
    72IDQ   C5912571   4.613   3.070   3.727 -0.5833 -0.6153 -0.2376
    72IDQ   C6012572   4.488   3.114   3.653  0.5920 -0.3785 -0.7715
    72IDQ   C6112573   4.497   3.159   3.506  0.4630 -0.4949 -0.3495
    72IDQ   C6212574   4.566   3.290   3.484 -0.3846 -0.2813 -0.1876
    72IDQ   C6312575   4.628   3.298   3.344  0.0008 -0.0763  0.2838
    72IDQ   C6412576   4.761   3.382   3.341  0.1779  0.5108  0.1961
    72IDQ   C6512577   4.795   3.394   3.197  0.2931 -0.0169 -0.3373
    72IDQ   C6612578   4.892   2.944   3.935  0.2335  0.0879  0.6686
    72IDQ   C6712579   4.938   2.888   4.069 -0.3806 -0.0776 -0.2008
    72IDQ   C6812580   5.005   2.751   4.066 -0.3352  0.0953  0.5699
    72IDQ   C6912581   5.127   2.720   4.149  0.0119  0.1550 -0.2009
    72IDQ   C7012582   5.193   2.823   4.242  0.8419 -0.7839  0.5173
    72IDQ   C7112583   5.336   2.787   4.266  0.8699 -0.7317 -0.1338
    72IDQ   C7212584   5.418   2.889   4.346  0.1984  0.3586  0.0112
    11RH     C112585   4.085   1.327   5.571  0.1880  0.1422  0.3384
    11RH     C212586   4.222   1.357   5.524  0.1487  0.2046  0.2636
    11RH     N112587   4.041   1.423   5.665  0.2227  0.0825  0.4158
    11RH     S112588   4.284   1.509   5.605  0.1597  0.1806  0.2997
    11RH     C312589   4.126   1.526   5.699  0.2159  0.0893  0.4120
    11RH     C412590   3.905   1.414   5.732 -0.2143  0.1415  0.7980
    11RH     S212591   4.098   1.652   5.807  0.2515  0.0268  0.4940
    11RH     O112592   4.015   1.231   5.535  0.1911  0.1410  0.3356
    11RH     C512593   4.287   1.282   5.434  0.1113  0.2678  0.1827
    21BTZ    C612594   4.406   1.286   5.354  0.1273 -0.0658  0.2171
    21BTZ    C712595   4.499   1.386   5.361  0.1878 -0.1192  0.1712
    21BTZ    C812596   4.429   1.175   5.265 -0.0099 -0.0480  0.1589
    21BTZ    C912597   4.619   1.383   5.281  0.1173 -0.1575  0.0662
    21BTZ   C1012598   4.646   1.280   5.194 -0.0138 -0.1424  0.0073
    21BTZ   C1112599   4.551   1.173   5.184 -0.0817 -0.0870  0.0522
    21BTZ    N212600   4.346   1.072   5.250 -0.0798  0.0029  0.1951
    21BTZ    N312601   4.566   1.067   5.103 -0.2090 -0.0674  0.0025
    21BTZ    S312602   4.421   0.965   5.129 -0.2436  0.0032  0.0923
    31IDT   C1212603   4.760   1.289   5.103 -0.1560  0.2440 -0.2319
    31IDT   C1312604   4.836   1.185   5.055 -0.5486  0.1546 -0.6633
    31IDT   C1412605   4.950   1.229   4.982 -0.5790  0.0216 -0.7923
    31IDT   C1512606   4.963   1.366   4.974 -0.2108  0.0088 -0.4608
    31IDT    S412607   4.830   1.451   5.059  0.2068  0.1656  0.0450
    4IDB    C1612608   5.074   1.400   4.890 -0.0353 -0.1648 -0.1688
    4IDB    C1712609   5.130   1.278   4.842  0.5182 -0.1070  0.3055
    51IDQ   C1812610   5.071   1.160   4.917 -0.3162 -0.0479  0.0532
    4IDB    C1912611   5.231   1.278   4.746  0.5404 -0.0216  0.3292
    51IDQ   C2012612   5.041   1.041   4.812  0.1105  0.2898 -0.0290
    51IDQ   C2112613   5.169   1.104   5.028 -0.0346  0.6907 -0.0197
    51IDQ   C2212614   5.306   1.162   5.068 -0.2228 -0.7113 -0.1327
    51IDQ   C2312615   4.903   0.983   4.787  0.0494  0.1907  0.6815
    51IDQ   C2412616   5.382   1.081   5.181  0.1628 -0.0983  0.3253
    51IDQ   C2512617   5.338   1.076   5.328  0.0386 -0.4861 -0.2538
    51IDQ   C2612618   5.338   1.209   5.399  0.0207 -1.2059 -0.6704
    51IDQ   C2712619   5.298   1.191   5.544 -0.6258  0.0079 -0.1437
    51IDQ   C2812620   5.281   1.322   5.632 -0.2634 -0.0212  0.5755
    51IDQ   C2912621   5.222   1.296   5.773 -0.2059 -0.5500 -0.1086
    51IDQ   C3012622   4.821   1.088   4.708  0.3388 -0.2016 -0.2680
    51IDQ   C3112623   4.681   1.030   4.668 -0.2772  0.1396 -0.2369
    51IDQ   C3212624   4.567   1.108   4.611 -0.4129 -0.6797 -0.0412
    51IDQ   C3312625   4.455   1.022   4.570 -0.8232 -0.4526  0.5137
    51IDQ   C3412626   4.316   1.085   4.526 -0.2475  0.5583  0.3010
    51IDQ   C3512627   4.325   1.179   4.413 -0.1928 -0.0836 -0.1104
    4IDB    C3612628   5.119   1.524   4.842 -0.5730 -0.1372 -0.6249
    4IDB    C3712629   5.222   1.523   4.745 -0.5418 -0.0497 -0.5933
    11RH    C3812630   3.894   1.316   5.853  0.0910  0.0802 -0.3181
    4IDB    C3912631   5.276   1.403   4.698  0.0027  0.0060 -0.1268
    62IDT   C4012632   5.371   1.427   4.592 -0.3109  0.1791 -0.1550
    72IDQ   C4112633   5.316   1.633   4.696  0.5773 -0.5395 -0.2532
    62IDT   C4212634   5.382   1.564   4.578 -0.5708  0.1870 -0.3124
    72IDQ   C4312635   5.423   1.708   4.789 -0.3308  0.1195 -0.5941
    72IDQ   C4412636   5.236   1.744   4.615  0.5277  0.2203  0.2586
    62IDT    S512637   5.465   1.338   4.468  0.0100  0.2115  0.0634
    62IDT   C4512638   5.518   1.498   4.400 -0.2360  0.2352 -0.0767
    62IDT   C4612639   5.466   1.604   4.470 -0.5287  0.2187 -0.2683
    82BTZ   C4712640   5.595   1.500   4.278 -0.0304 -0.1519  0.1723
    82BTZ   C4812641   5.607   1.380   4.213 -0.2314 -0.1042  0.0429
    82BTZ   C4912642   5.693   1.364   4.098 -0.4476 -0.0639 -0.1234
    82BTZ   C5012643   5.765   1.469   4.047 -0.4624 -0.0713 -0.1602
    82BTZ   C5112644   5.669   1.612   4.229 -0.0370 -0.1616  0.1400
    82BTZ   C5212645   5.755   1.597   4.112 -0.2568 -0.1206 -0.0291
    92RH    C5312646   5.854   1.462   3.926  0.0532 -0.0069  0.1220
    82BTZ    N412647   5.665   1.734   4.283  0.1471 -0.2065  0.2553
    82BTZ    N512648   5.821   1.706   4.072 -0.2493 -0.1325 -0.0495
    82BTZ    S612649   5.774   1.836   4.185  0.0452 -0.1980  0.1508
    92RH    C5412650   5.888   1.363   3.842  0.1682  0.0160  0.1403
    92RH     S712651   5.834   1.187   3.853  0.1944  0.0024  0.0473
    92RH    C5512652   5.976   1.381   3.725  0.2960  0.0573  0.2424
    92RH     O212653   6.029   1.488   3.690  0.3117  0.0753  0.3216
    92RH     N612654   5.994   1.260   3.654  0.4012  0.0744  0.2397
    92RH    C5612655   5.931   1.147   3.701  0.3730  0.0518  0.1479
    92RH    C5712656   6.063   1.259   3.522 -0.1414 -0.1148  0.2284
    92RH    C5812657   5.987   1.323   3.399  0.5556  0.1974  0.3717
    92RH     S812658   5.936   0.991   3.636  0.4793  0.0651  0.1241
    72IDQ   C5912659   5.128   1.820   4.688 -0.2813  0.1210 -0.6324
    72IDQ   C6012660   5.077   1.921   4.588  0.5426 -0.4906  0.2059
    72IDQ   C6112661   4.957   2.000   4.651  0.0864  0.4652 -0.2932
    72IDQ   C6212662   4.924   2.129   4.583 -0.4414  0.2239 -0.2849
    72IDQ   C6312663   4.845   2.212   4.678 -0.5331 -0.1485  0.0953
    72IDQ   C6412664   4.794   2.339   4.617  0.0121 -0.5397 -0.5535
    72IDQ   C6512665   4.714   2.417   4.720 -0.2902  0.4391  0.0768
    72IDQ   C6612666   5.438   1.665   4.944 -0.2853 -0.1572 -0.3758
    72IDQ   C6712667   5.452   1.522   4.991 -0.2871  0.1199 -0.3918
    72IDQ   C6812668   5.467   1.496   5.139 -0.3175  0.0691  0.0870
    72IDQ   C6912669   5.376   1.547   5.246  0.4339  0.2473 -0.3919
    72IDQ   C7012670   5.222   1.531   5.232 -0.3420 -0.2402 -0.4296
    72IDQ   C7112671   5.139   1.597   5.350 -0.4265  0.7356  0.2528
    72IDQ   C7212672   4.987   1.588   5.347  0.6491  0.2305 -0.0334
    11RH     C112673   1.160   3.553   2.690  0.1608 -0.1217  0.2860
    11RH     C212674   1.227   3.446   2.613  0.0921 -0.0762  0.1637
    11RH     N112675   1.081   3.500   2.794  0.0326 -0.1938  0.1512
    11RH     S112676   1.180   3.282   2.681 -0.1363 -0.1313 -0.1205
    11RH     C312677   1.075   3.364   2.809 -0.1302 -0.2118 -0.0641
    11RH     C412678   1.000   3.589   2.874  0.0671  0.2353 -0.1131
    11RH     S212679   0.988   3.276   2.923 -0.3046 -0.2933 -0.2576
    11RH     O112680   1.172   3.675   2.669  0.3110 -0.1005  0.4818
    11RH     C512681   1.308   3.469   2.509  0.1870 -0.0057  0.2534
    21BTZ    C612682   1.384   3.383   2.419  0.0876  0.1637 -0.0472
    21BTZ    C712683   1.397   3.247   2.433  0.2904  0.1940  0.0677
    21BTZ    C812684   1.427   3.444   2.296  0.0361  0.1290 -0.0823
    21BTZ    C912685   1.452   3.165   2.328  0.4518  0.1920  0.1534
    21BTZ   C1012686   1.494   3.218   2.209  0.4102  0.1595  0.1240
    21BTZ   C1112687   1.483   3.360   2.189  0.2002  0.1270  0.0049
    21BTZ    N212688   1.420   3.575   2.270 -0.1556  0.0976 -0.1915
    21BTZ    N312689   1.521   3.423   2.078  0.1403  0.0939 -0.0344
    21BTZ    S312690   1.486   3.597   2.105 -0.1340  0.0633 -0.1875
    31IDT   C1212691   1.536   3.121   2.103  0.0987 -0.0741  0.3092
    31IDT   C1312692   1.551   3.149   1.969 -0.2479  0.3290  0.3517
    31IDT   C1412693   1.561   3.032   1.888 -0.4867  0.5718 -0.0355
    31IDT   C1512694   1.554   2.914   1.959 -0.3242  0.3562 -0.3751
    31IDT    S412695   1.533   2.942   2.135  0.1483 -0.1763 -0.2293
    4IDB    C1612696   1.557   2.800   1.866  0.0901 -0.0151 -0.2022
    4IDB    C1712697   1.557   2.845   1.731 -0.3299  0.0905 -0.1709
    51IDQ   C1812698   1.579   3.001   1.735 -0.1760  0.1775 -0.3251
    4IDB    C1912699   1.548   2.755   1.626 -0.1339  0.1256 -0.2202
    51IDQ   C2012700   1.723   3.005   1.671 -0.4010  0.8121  0.1928
    51IDQ   C2112701   1.477   3.085   1.653  0.0387 -0.4671 -0.1080
    51IDQ   C2212702   1.340   3.023   1.606 -0.0931 -0.8751  0.2461
    51IDQ   C2312703   1.850   3.009   1.760 -0.2420 -0.2920 -0.1519
    51IDQ   C2412704   1.251   3.128   1.530 -0.6721  0.0142 -0.2319
    51IDQ   C2512705   1.112   3.072   1.513  0.1928 -0.2494 -0.5919
    51IDQ   C2612706   1.041   3.118   1.388  0.4066 -0.0852  0.1921
    51IDQ   C2712707   0.905   3.040   1.358 -0.4456  0.0525  0.2093
    51IDQ   C2812708   0.832   3.089   1.238 -0.1778 -0.4777 -0.0933
    51IDQ   C2912709   0.691   3.034   1.229  0.5625 -0.3001  0.6396
    51IDQ   C3012710   1.976   2.993   1.673 -0.0098  0.5239 -0.2151
    51IDQ   C3112711   2.099   2.946   1.753  0.0910  0.5836  0.4080
    51IDQ   C3212712   2.176   3.051   1.826  0.2771  0.0078  0.3812
    51IDQ   C3312713   2.309   3.008   1.888 -0.2416 -0.5570 -0.4003
    51IDQ   C3412714   2.384   3.131   1.950  0.7027  0.2724 -0.4559
    51IDQ   C3512715   2.344   3.148   2.100  0.7008  0.2616  0.7098
    4IDB    C3612716   1.547   2.664   1.897  0.7124 -0.0867 -0.2836
    4IDB    C3712717   1.537   2.573   1.788  0.9044 -0.0494 -0.3330
    11RH    C3812718   0.858   3.600   2.826 -0.0486  0.0920 -0.1096
    4IDB    C3912719   1.537   2.619   1.656  0.4885  0.0541 -0.3015
    62IDT   C4012720   1.522   2.507   1.567 -0.2723  0.2953 -0.1914
    72IDQ   C4112721   1.523   2.417   1.792  0.5182 -0.1983 -0.7353
    62IDT   C4212722   1.510   2.390   1.638 -0.7819  0.3987 -0.0987
    72IDQ   C4312723   1.391   2.376   1.876 -0.4263  0.0535 -0.9944
    72IDQ   C4412724   1.643   2.346   1.869  0.2452 -0.2908  0.6362
    62IDT    S512725   1.504   2.481   1.390  0.1108  0.1668 -0.2138
    62IDT   C4512726   1.480   2.304   1.424 -0.4664  0.2645 -0.0906
    62IDT   C4612727   1.486   2.275   1.557 -0.8923  0.3815 -0.0417
    82BTZ   C4712728   1.416   2.210   1.325  0.3253 -0.0572 -0.1435
    82BTZ   C4812729   1.367   2.268   1.211  0.1482 -0.1455 -0.1124
    82BTZ   C4912730   1.323   2.189   1.099 -0.2337 -0.2407  0.1011
    82BTZ   C5012731   1.328   2.052   1.100 -0.4378 -0.2474  0.2832
    82BTZ   C5112732   1.424   2.067   1.332  0.1233 -0.0603  0.0420
    82BTZ   C5212733   1.379   1.987   1.217 -0.2649 -0.1570  0.2590
    92RH    C5312734   1.291   1.968   0.990 -0.1010 -0.0475 -0.0574
    82BTZ    N412735   1.470   1.999   1.437  0.2653  0.0206  0.0324
    82BTZ    N512736   1.389   1.855   1.231 -0.4348 -0.1539  0.4238
    82BTZ    S612737   1.458   1.826   1.394 -0.0988 -0.0245  0.3061
    92RH    C5412738   1.232   1.987   0.872  0.0436 -0.0272 -0.1266
    92RH     S712739   1.154   2.141   0.812  0.1100 -0.0193 -0.1933
    92RH    C5512740   1.222   1.882   0.768  0.1763 -0.0075 -0.1606
    92RH     O212741   1.265   1.766   0.778  0.1697 -0.0073 -0.1299
    92RH     N612742   1.155   1.929   0.653  0.3151  0.0117 -0.2341
    92RH    C5612743   1.110   2.059   0.652  0.3099  0.0098 -0.2630
    92RH    C5712744   1.141   1.837   0.534  0.4968 -0.1943  0.0144
    92RH    C5812745   1.008   1.762   0.504 -0.1106 -0.2394  0.0255
    92RH     S812746   1.028   2.140   0.529  0.4576  0.0297 -0.3483
    72IDQ   C5912747   1.793   2.393   1.850  0.0648  0.2100 -0.6633
    72IDQ   C6012748   1.843   2.402   1.708 -0.1992  0.6925  0.3515
    72IDQ   C6112749   1.943   2.507   1.685 -0.9176 -0.0841  0.1229
    72IDQ   C6212750   1.970   2.551   1.539  0.5464  0.4484 -0.7745
    72IDQ   C6312751   2.029   2.446   1.439 -0.1686 -0.2162  0.0134
    72IDQ   C6412752   2.087   2.518   1.321  0.3750 -0.1046  0.1841
    72IDQ   C6512753   2.172   2.425   1.236  0.0869 -0.3758 -0.3299
    72IDQ   C6612754   1.250   2.350   1.822 -0.4722 -0.2107 -0.0531
    72IDQ   C6712755   1.171   2.462   1.764 -0.2016 -0.3685  0.2757
    72IDQ   C6812756   1.156   2.586   1.847  0.1152 -0.0045 -0.1766
    72IDQ   C6912757   1.027   2.664   1.827 -0.4962  0.1880  0.1435
    72IDQ   C7012758   1.032   2.798   1.894 -0.0793  0.2958  0.5262
    72IDQ   C7112759   0.983   2.783   2.034 -0.8711  0.1318  0.2960
    72IDQ   C7212760   0.990   2.904   2.112 -0.4281 -0.1348 -0.1226
    11RH     C112761   5.073   3.529   4.313 -0.0269 -0.1485  0.3866
    11RH     C212762   4.992   3.608   4.408 -0.1005 -0.1061  0.2891
    11RH     N112763   5.008   3.409   4.276 -0.1693  0.0143  0.0979
    11RH     S112764   4.835   3.520   4.444 -0.3517  0.1452 -0.1753
    11RH     C312765   4.884   3.382   4.331 -0.3477  0.1820 -0.2185
    11RH     C412766   5.062   3.322   4.168  0.0267  0.1934 -0.2987
    11RH     S212767   4.786   3.248   4.304 -0.5406  0.3946 -0.5997
    11RH     O112768   5.184   3.561   4.269  0.1378 -0.3057  0.6820
    11RH     C512769   5.031   3.726   4.458  0.0054 -0.2356  0.5143
    21BTZ    C612770   4.977   3.816   4.562 -0.2585 -0.0509  0.2687
    21BTZ    C712771   4.872   3.774   4.640 -0.3871  0.1258  0.1931
    21BTZ    C812772   5.022   3.951   4.575 -0.2325 -0.0423  0.0900
    21BTZ    C912773   4.808   3.863   4.735 -0.4959  0.3188 -0.0600
    21BTZ   C1012774   4.848   3.993   4.750 -0.4761  0.3347 -0.2371
    21BTZ   C1112775   4.957   4.041   4.671 -0.3432  0.1539 -0.1671
    21BTZ    N212776   5.123   4.004   4.505 -0.1116 -0.2038  0.1413
    21BTZ    N312777   5.005   4.166   4.677 -0.3113  0.1500 -0.3228
    21BTZ    S312778   5.139   4.174   4.559 -0.1345 -0.1101 -0.1432
    31IDT   C1212779   4.788   4.073   4.859  0.2874  0.1194  0.3283
    31IDT   C1312780   4.823   4.191   4.919 -0.0294  0.2067  0.3433
    31IDT   C1412781   4.742   4.221   5.034 -0.4151  0.2092  0.0770
    31IDT   C1512782   4.646   4.125   5.061 -0.3951  0.1243 -0.1422
    31IDT    S412783   4.650   3.990   4.943  0.1186  0.0335 -0.0274
    4IDB    C1612784   4.575   4.158   5.184  0.0192 -0.1742  0.2379
    4IDB    C1712785   4.617   4.289   5.225  0.0436 -0.1268  0.0609
    51IDQ   C1812786   4.741   4.328   5.142  0.1583  0.0987 -0.3687
    4IDB    C1912787   4.550   4.357   5.326  0.3425 -0.1710  0.2921
    51IDQ   C2012788   4.715   4.480   5.095 -0.4285  0.0802 -0.2182
    51IDQ   C2112789   4.878   4.334   5.227  0.0962  0.3417 -0.5807
    51IDQ   C2212790   4.893   4.284   5.373 -0.0068 -0.1801 -0.2611
    51IDQ   C2312791   4.701   4.515   4.948 -0.3524 -0.2703  0.0810
    51IDQ   C2412792   4.906   4.133   5.388  0.1987 -0.2402  0.0151
    51IDQ   C2512793   4.830   4.079   5.510  0.2594  0.7474  0.4261
    51IDQ   C2612794   4.841   3.927   5.501  0.6450 -0.2909  0.3101
    51IDQ   C2712795   4.777   3.874   5.632 -0.2911 -0.3318 -0.3049
    51IDQ   C2812796   4.760   3.721   5.610  0.2286 -0.6879  0.5040
    51IDQ   C2912797   4.658   3.660   5.693  0.0855  0.2717 -0.2074
    51IDQ   C3012798   4.642   4.658   4.921 -0.1180  0.2402 -0.0921
    51IDQ   C3112799   4.621   4.694   4.773  0.1336 -0.2565 -0.4601
    51IDQ   C3212800   4.741   4.741   4.698 -0.0037  0.1572  0.3006
    51IDQ   C3312801   4.843   4.835   4.768  0.4668  0.0952  0.1901
    51IDQ   C3412802   4.958   4.895   4.683 -0.2845  0.6775  0.1998
    51IDQ   C3512803   5.076   4.958   4.757  0.8618 -0.0826 -0.4313
    4IDB    C3612804   4.465   4.095   5.245  0.2955 -0.2670  0.6497
    4IDB    C3712805   4.398   4.167   5.348  0.5989 -0.3111  0.8812
    11RH    C3812806   5.167   3.216   4.206  0.1830  0.0740 -0.2387
    4IDB    C3912807   4.440   4.294   5.386  0.6188 -0.2639  0.7040
    62IDT   C4012808   4.350   4.347   5.485  0.4706 -0.0734  0.1123
    72IDQ   C4112809   4.265   4.134   5.423 -0.1405 -0.3457 -0.2297
    62IDT   C4212810   4.250   4.256   5.515  0.5261 -0.1730 -0.0060
    72IDQ   C4312811   4.269   3.998   5.493  0.4308 -0.2568 -0.1150
    72IDQ   C4412812   4.139   4.156   5.340  0.0338  0.2657  0.7511
    62IDT    S512813   4.332   4.499   5.580  0.0660  0.0041 -0.0831
    62IDT   C4512814   4.184   4.428   5.658 -0.0105 -0.1077 -0.3261
    62IDT   C4612815   4.157   4.301   5.613  0.2542 -0.1925 -0.2542
    82BTZ   C4712816   4.099   4.508   5.749 -0.2406  0.2386  0.0723
    82BTZ   C4812817   4.139   4.636   5.775 -0.2000  0.2036  0.1824
    82BTZ   C4912818   4.062   4.724   5.860 -0.1240  0.1247  0.3334
    82BTZ   C5012819   3.946   4.683   5.918 -0.0886  0.0813  0.3740
    82BTZ   C5112820   3.977   4.461   5.808 -0.2059  0.1953  0.1091
    82BTZ   C5212821   3.899   4.550   5.894 -0.1286  0.1150  0.2625
    92RH    C5312822   3.871   4.771   6.005  0.1296 -0.0614  0.1282
    82BTZ    N412823   3.927   4.338   5.790 -0.2396  0.2230  0.0116
    82BTZ    N512824   3.787   4.499   5.945 -0.1001  0.0784  0.2884
    82BTZ    S612825   3.776   4.331   5.884 -0.1725  0.1463  0.1139
    92RH    C5412826   3.885   4.898   6.046 -0.0244  0.0042 -0.0168
    92RH     S712827   4.024   5.012   6.006 -0.0872  0.0783 -0.0244
    92RH    C5512828   3.787   4.967   6.133 -0.1725  0.0273 -0.1998
    92RH     O212829   3.683   4.917   6.178 -0.1718 -0.0103 -0.2397
    92RH     N612830   3.828   5.100   6.161 -0.3189  0.0991 -0.3271
    92RH    C5612831   3.946   5.145   6.107 -0.3060  0.1363 -0.2687
    92RH    C5712832   3.734   5.190   6.235 -0.0141 -0.5610 -0.0421
    92RH    C5812833   3.757   5.199   6.389 -0.1823  0.7010 -0.3483
    92RH     S812834   4.016   5.297   6.124 -0.4599  0.2215 -0.3921
    72IDQ   C5912835   4.108   4.082   5.210  0.0997 -0.4771  0.0889
    72IDQ   C6012836   4.062   3.936   5.225 -0.3541 -0.2358  0.0350
    72IDQ   C6112837   3.923   3.922   5.293  0.4004 -0.3975  0.1331
    72IDQ   C6212838   3.880   3.779   5.288 -0.6052  0.0709 -0.2496
    72IDQ   C6312839   3.738   3.772   5.351 -0.4215  0.4584  0.0197
    72IDQ   C6412840   3.683   3.634   5.345  0.8984 -0.5643 -0.2101
    72IDQ   C6512841   3.530   3.634   5.348  0.7734  0.1477 -0.4120
    72IDQ   C6612842   4.338   3.986   5.633  0.0511 -0.4892 -0.5434
    72IDQ   C6712843   4.337   3.844   5.694  0.0155 -0.2484  0.1627
    72IDQ   C6812844   4.203   3.771   5.711 -0.3978 -0.2287  0.9695
    72IDQ   C6912845   4.099   3.826   5.804  0.5266 -0.4637 -0.4895
    72IDQ   C7012846   4.009   3.944   5.759  0.5541 -0.0725 -0.3031
    72IDQ   C7112847   3.903   3.931   5.653 -0.0075  0.4614 -0.4321
    72IDQ   C7212848   3.817   4.058   5.651 -0.5358  0.1619 -0.2900
    11RH     C112849   5.741   4.785   2.880 -0.3171  0.1121  0.3561
    11RH     C212850   5.804   4.890   2.797 -0.2438 -0.0453  0.2124
    11RH     N112851   5.827   4.742   2.983 -0.3161  0.1350  0.3647
    11RH     S112852   5.973   4.926   2.859 -0.1779 -0.1527  0.0976
    11RH     C312853   5.952   4.800   2.993 -0.2506  0.0154  0.2453
    11RH     C412854   5.793   4.633   3.080  0.1941 -0.5548  0.0233
    11RH     S212855   6.073   4.768   3.106 -0.2345  0.0130  0.2273
    11RH     O112856   5.627   4.739   2.863 -0.3736  0.2131  0.4581
    11RH     C512857   5.744   4.948   2.692 -0.2298 -0.0968  0.1759
    21BTZ    C612858   5.783   5.057   2.597 -0.1339  0.2990  0.1081
    21BTZ    C712859   5.901   5.125   2.604 -0.1422  0.3152  0.0954
    21BTZ    C812860   5.692   5.088   2.491 -0.0736  0.1643  0.0172
    21BTZ    C912861   5.937   5.226   2.507 -0.0923  0.2003 -0.0065
    21BTZ   C1012862   5.853   5.258   2.403 -0.0340  0.0696 -0.0955
    21BTZ   C1112863   5.727   5.190   2.392 -0.0229  0.0474 -0.0864
    21BTZ    N212864   5.573   5.028   2.474 -0.0597  0.1357  0.0196
    21BTZ    N312865   5.638   5.213   2.296  0.0319 -0.0750 -0.1673
    21BTZ    S312866   5.501   5.103   2.328  0.0204 -0.0454 -0.1133
    31IDT   C1212867   5.901   5.357   2.309  0.2777  0.1034 -0.2286
    31IDT   C1312868   5.829   5.454   2.245  0.4138  0.0902 -0.4018
    31IDT   C1412869   5.912   5.552   2.181  0.5496  0.0069 -0.3530
    31IDT   C1512870   6.047   5.529   2.196  0.5183 -0.0438 -0.1429
    31IDT    S412871   6.081   5.382   2.293  0.3123  0.0103  0.0109
    4IDB    C1612872   6.115   5.634   2.124  0.1363  0.1689  0.0448
    4IDB    C1712873   6.020   5.720   2.062  0.0486  0.1158  0.1048
    51IDQ   C1812874   5.881   5.673   2.098  0.2575  0.4420 -0.1667
    4IDB    C1912875   6.061   5.825   1.980 -0.0714 -0.0559 -0.1775
    51IDQ   C2012876   5.809   5.781   2.185  0.3603  0.0396  0.0722
    51IDQ   C2112877   5.790   5.622   1.968 -0.4189  0.7389 -0.1842
    51IDQ   C2212878   5.849   5.591   1.831 -0.2179  0.1674  0.5019
    51IDQ   C2312879   5.789   5.778   2.333 -0.9064  0.1560 -0.0125
    51IDQ   C2412880   5.967   5.498   1.805  0.8681  0.1792  0.1232
    51IDQ   C2512881   5.959   5.354   1.859  0.2195 -0.3541 -0.4639
    51IDQ   C2612882   6.080   5.272   1.828 -0.2252 -0.2782  0.3949
    51IDQ   C2712883   6.103   5.132   1.887  0.2284 -0.4285  0.7408
    51IDQ   C2812884   6.242   5.088   1.854 -0.0160  0.1709 -0.2953
    51IDQ   C2912885   6.278   4.968   1.946 -0.1933 -0.0139 -0.1277
    51IDQ   C3012886   5.810   5.918   2.389  0.2573  0.2292  0.6813
    51IDQ   C3112887   5.794   5.931   2.536  0.2742 -0.4760  0.1969
    51IDQ   C3212888   5.757   6.071   2.572  0.4581  0.6075 -0.3601
    51IDQ   C3312889   5.710   6.076   2.715  0.5225 -0.7439  0.2249
    51IDQ   C3412890   5.828   6.093   2.808 -0.1143 -0.1669 -0.2436
    51IDQ   C3512891   5.795   6.139   2.948  0.2789 -1.0601  0.2755
    4IDB    C3612892   6.253   5.651   2.105  0.1043  0.0497 -0.3005
    4IDB    C3712893   6.293   5.759   2.020 -0.0187 -0.1253 -0.5857
    11RH    C3812894   5.823   4.496   3.029 -0.3881  0.0981  0.1003
    4IDB    C3912895   6.199   5.842   1.960 -0.1035 -0.1752 -0.5226
    62IDT   C4012896   6.257   5.951   1.884  0.0407 -0.2771 -0.2920
    72IDQ   C4112897   6.432   5.816   1.974  0.4328  0.6282 -0.1480
    62IDT   C4212898   6.394   5.942   1.891  0.0333 -0.2983 -0.1804
    72IDQ   C4312899   6.508   5.706   1.897  0.4479 -0.1897  0.0170
    72IDQ   C4412900   6.527   5.839   2.101  0.6671  0.4989 -0.3589
    62IDT    S512901   6.204   6.094   1.788  0.1375  0.0820  0.1814
    62IDT   C4512902   6.379   6.136   1.762  0.1642  0.1897  0.5218
    62IDT   C4612903   6.464   6.046   1.822  0.1031 -0.0343  0.2798
    82BTZ   C4712904   6.419   6.239   1.660  0.0445 -0.0120  0.0653
    82BTZ   C4812905   6.316   6.290   1.586  0.0291  0.0600  0.1365
    82BTZ   C4912906   6.338   6.391   1.484  0.0116  0.1404  0.2120
    82BTZ   C5012907   6.463   6.439   1.457  0.0091  0.1484  0.2162
    82BTZ   C5112908   6.552   6.287   1.635  0.0429 -0.0068  0.0665
    82BTZ   C5212909   6.574   6.389   1.532  0.0249  0.0750  0.1432
    92RH    C5312910   6.480   6.536   1.351  0.3343 -0.2206 -0.2763
    82BTZ    N412911   6.661   6.244   1.700  0.0567 -0.0725  0.0010
    82BTZ    N512912   6.701   6.428   1.514  0.0243  0.0747  0.1395
    82BTZ    S612913   6.799   6.335   1.631  0.0473 -0.0317  0.0356
    92RH    C5412914   6.398   6.609   1.273  0.2191 -0.1611 -0.1002
    92RH     S712915   6.215   6.595   1.263  0.1889 -0.0570  0.2636
    92RH    C5512916   6.446   6.715   1.182  0.0944 -0.1707 -0.1767
    92RH     O212917   6.564   6.748   1.165  0.0821 -0.2338 -0.4081
    92RH     N612918   6.339   6.775   1.112 -0.0115 -0.0981  0.0491
    92RH    C5612919   6.211   6.731   1.138  0.0131 -0.0315  0.2971
    92RH    C5712920   6.370   6.891   1.021 -0.0436  0.1016 -0.3529
    92RH    C5812921   6.356   7.029   1.074  0.2031  0.0678 -1.0828
    92RH     S812922   6.067   6.785   1.069 -0.0951  0.0614  0.5955
    72IDQ   C5912923   6.504   5.962   2.191  0.3816 -0.6331 -0.1710
    72IDQ   C6012924   6.613   5.968   2.300  0.0613 -0.1501  0.2738
    72IDQ   C6112925   6.588   6.073   2.413  0.2849  0.0542  0.5816
    72IDQ   C6212926   6.718   6.089   2.493  0.7057  0.5534  0.3727
    72IDQ   C6312927   6.697   6.191   2.604  1.0417  0.1439 -0.3725
    72IDQ   C6412928   6.811   6.177   2.705 -0.3763 -0.1634  0.1967
    72IDQ   C6512929   6.779   6.273   2.822 -0.4446 -1.4392 -0.3466
    72IDQ   C6612930   6.487   5.686   1.747  0.4255  0.5655  0.1919
    72IDQ   C6712931   6.344   5.646   1.718 -0.0361  0.5403 -0.0276
    72IDQ   C6812932   6.312   5.683   1.576  0.2114  0.0276  0.2981
    72IDQ   C6912933   6.183   5.642   1.495 -0.3961 -0.6385  0.4250
    72IDQ   C7012934   6.169   5.492   1.454 -0.1989 -0.1643  0.5948
    72IDQ   C7112935   6.051   5.468   1.353 -0.0961 -0.1432 -0.0645
    72IDQ   C7212936   6.012   5.325   1.311 -0.3417 -0.2310 -0.2372
    11RH     C112937   1.640   2.048   5.506  0.0662  0.0839  0.1032
    11RH     C212938   1.734   1.996   5.404 -0.1287  0.1090 -0.0910
    11RH     N112939   1.577   1.943   5.577  0.1630  0.0658  0.1633
    11RH     S112940   1.734   1.813   5.408 -0.1721  0.1072 -0.1822
    11RH     C312941   1.610   1.813   5.544  0.0694  0.0735  0.0408
    11RH     C412942   1.478   1.972   5.688 -0.4344 -0.1864  0.7362
    11RH     S212943   1.549   1.671   5.612  0.1521  0.0559  0.0775
    11RH     O112944   1.617   2.168   5.529  0.1389  0.0787  0.2040
    11RH     C512945   1.807   2.075   5.324 -0.2504  0.1292 -0.1815
    21BTZ    C612946   1.876   2.044   5.200  0.1938 -0.0865  0.3056
    21BTZ    C712947   1.872   1.925   5.133  0.2224 -0.1216  0.3656
    21BTZ    C812948   1.963   2.148   5.152  0.1559 -0.0834  0.2433
    21BTZ    C912949   1.952   1.902   5.015  0.2154 -0.1553  0.3675
    21BTZ   C1012950   2.037   1.998   4.966  0.1797 -0.1538  0.3093
    21BTZ   C1112951   2.045   2.124   5.033  0.1487 -0.1176  0.2451
    21BTZ    N212952   1.976   2.268   5.210  0.1256 -0.0507  0.1818
    21BTZ    N312953   2.123   2.225   4.994  0.1127 -0.1125  0.1850
    21BTZ    S312954   2.095   2.357   5.111  0.0859 -0.0626  0.1222
    31IDT   C1212955   2.108   1.968   4.842 -0.2131 -0.1810 -0.1795
    31IDT   C1312956   2.208   2.043   4.786 -0.4121  0.1078 -0.1554
    31IDT   C1412957   2.261   1.984   4.667 -0.1310  0.1972 -0.0747
    31IDT   C1512958   2.202   1.865   4.632  0.2831 -0.0224 -0.0374
    31IDT    S412959   2.073   1.817   4.748  0.3500 -0.3625 -0.1014
    4IDB    C1612960   2.265   1.804   4.513  0.4750 -0.8638  0.3850
    4IDB    C1712961   2.367   1.895   4.470 -0.1076 -0.3953 -0.0441
    51IDQ   C1812962   2.363   2.024   4.558  0.8005 -0.0900 -1.0040
    4IDB    C1912963   2.448   1.865   4.361 -0.3558 -0.0711 -0.3212
    51IDQ   C2012964   2.510   2.049   4.608 -0.2816 -0.5361  0.2611
    51IDQ   C2112965   2.308   2.152   4.493  0.2078 -0.0467 -0.1497
    51IDQ   C2212966   2.226   2.144   4.368 -0.5982  0.1365  0.9111
    51IDQ   C2312967   2.565   2.005   4.745 -0.4977  0.2656 -0.3248
    51IDQ   C2412968   2.215   2.277   4.288  0.2477 -0.0613  0.4938
    51IDQ   C2512969   2.130   2.260   4.165  0.2264  0.5681  0.4783
    51IDQ   C2612970   1.982   2.271   4.174 -0.3191  0.0044 -0.0364
    51IDQ   C2712971   1.901   2.272   4.046 -0.5702 -0.5364 -0.2980
    51IDQ   C2812972   1.758   2.327   4.054 -0.2782 -0.4240  0.0323
    51IDQ   C2912973   1.686   2.313   3.917  0.3205  0.0741 -0.3606
    51IDQ   C3012974   2.521   2.086   4.871 -0.4232 -0.1300  0.0217
    51IDQ   C3112975   2.532   2.239   4.843 -0.2222 -0.0593  0.2437
    51IDQ   C3212976   2.453   2.305   4.954  0.2610  0.0457  0.3558
    51IDQ   C3312977   2.475   2.452   4.960  0.0558  0.9997 -0.5359
    51IDQ   C3412978   2.406   2.510   5.075 -0.2233 -0.5342 -0.0314
    51IDQ   C3512979   2.423   2.663   5.079  0.4725  0.6445 -0.8476
    4IDB    C3612980   2.244   1.683   4.446  0.8144 -1.0115  0.5406
    4IDB    C3712981   2.328   1.654   4.335  0.5534 -0.6754  0.2528
    11RH    C3812982   1.549   1.974   5.824 -0.6613  0.2677 -0.1210
    4IDB    C3912983   2.427   1.744   4.294 -0.0164 -0.2189 -0.1656
    62IDT   C4012984   2.488   1.697   4.171 -0.8043 -0.1954 -0.4633
    72IDQ   C4112985   2.312   1.543   4.231 -0.1466  0.2360 -0.1847
    62IDT   C4212986   2.426   1.580   4.132 -0.9972  0.1054 -1.0953
    72IDQ   C4312987   2.174   1.529   4.161  0.0798 -0.0628 -0.1566
    72IDQ   C4412988   2.342   1.398   4.292  0.0915 -0.2614  0.1559
    62IDT    S512989   2.625   1.740   4.062 -0.0266 -0.3997  0.4135
    62IDT   C4512990   2.590   1.589   3.966 -0.0022 -0.0507 -0.1484
    62IDT   C4612991   2.484   1.519   4.016 -0.5440  0.1877 -0.9183
    82BTZ   C4712992   2.643   1.573   3.831  0.2994 -0.0115 -0.0151
    82BTZ   C4812993   2.723   1.674   3.783  0.2556  0.0327  0.0051
    82BTZ   C4912994   2.779   1.669   3.650  0.1642  0.1376 -0.0380
    82BTZ   C5012995   2.757   1.564   3.566  0.1168  0.1982 -0.1013
    82BTZ   C5112996   2.617   1.461   3.746  0.2527  0.0488 -0.0809
    82BTZ   C5212997   2.674   1.456   3.612  0.1597  0.1554 -0.1247
    92RH    C5312998   2.792   1.574   3.427  0.0704  0.1004  0.0070
    82BTZ    N412999   2.541   1.356   3.782  0.2881  0.0143 -0.1062
    82BTZ    N513000   2.645   1.348   3.539  0.1205  0.2067 -0.1851
    82BTZ    S613001   2.540   1.245   3.642  0.2026  0.1190 -0.1887
    92RH    C5413002   2.841   1.665   3.342  0.1007  0.0652 -0.0131
    92RH     S713003   2.889   1.838   3.381  0.3801 -0.0148 -0.0006
    92RH    C5513004   2.865   1.638   3.198 -0.0951  0.0868 -0.0499
    92RH     O213005   2.842   1.531   3.140 -0.3060  0.1388 -0.0661
    92RH     N613006   2.917   1.751   3.132 -0.0129  0.0402 -0.0649
    92RH    C5613007   2.939   1.866   3.206  0.2248 -0.0160 -0.0446
    92RH    C5713008   2.935   1.758   2.982  0.6252  0.0560 -0.0993
    92RH    C5813009   3.075   1.725   2.919  0.4005  0.1007 -0.1363
    92RH     S813010   3.000   2.013   3.152  0.3670 -0.0787 -0.0560
    72IDQ   C5913011   2.242   1.348   4.397 -0.0925  0.1746  0.0379
    72IDQ   C6013012   2.249   1.200   4.430 -0.2227  0.1712  0.3336
    72IDQ   C6113013   2.135   1.135   4.502  0.5392  0.3877 -0.3740
    72IDQ   C6213014   2.102   1.178   4.643 -0.1721 -0.6212 -0.2932
    72IDQ   C6313015   2.047   1.317   4.689  0.2530  0.3933  0.4689
    72IDQ   C6413016   1.997   1.320   4.833  0.4119 -0.0082  0.6859
    72IDQ   C6513017   1.992   1.459   4.899  0.8111  0.1686  0.3634
    72IDQ   C6613018   2.123   1.633   4.062  0.7167  0.1153 -0.6646
    72IDQ   C6713019   1.985   1.610   3.997  0.1525  0.2984 -0.0497
    72IDQ   C6813020   1.926   1.726   3.927  0.1306  0.3089  1.0187
    72IDQ   C6913021   1.824   1.675   3.825  0.3095 -0.0680 -0.0440
    72IDQ   C7013022   1.687   1.680   3.882  0.2120 -0.0036  0.3676
    72IDQ   C7113023   1.603   1.560   3.855  0.0229 -0.1801  0.1264
    72IDQ   C7213024   1.468   1.553   3.913  0.1081  0.1997 -0.1843
    11RH     C113025   6.198   5.490   0.090  0.1364 -0.0734  0.3419
    11RH     C213026   6.262   5.604   0.160  0.0297 -0.0519  0.4045
    11RH     N113027   6.285   5.378   0.084  0.2983  0.0613  0.1444
    11RH     S113028   6.432   5.557   0.213  0.1492  0.1442  0.1997
    11RH     C313029   6.410   5.389   0.140  0.3345  0.1882  0.0413
    11RH     C413030   6.244   5.255   0.005 -0.3418  0.1056 -0.4702
    11RH     S213031   6.531   5.272   0.147  0.5162  0.3617 -0.1939
    11RH     O113032   6.084   5.490   0.042  0.0925 -0.1934  0.4464
    11RH     C513033   6.202   5.722   0.180 -0.1292 -0.1619  0.5847
    21BTZ    C613034   6.244   5.846   0.239  0.2191  0.0220  0.3744
    21BTZ    C713035   6.370   5.864   0.291  0.2408  0.2527  0.2445
    21BTZ    C813036   6.153   5.957   0.238  0.0927 -0.0812  0.2564
    21BTZ    C913037   6.412   5.991   0.344  0.1403  0.3930 -0.0062
    21BTZ   C1013038   6.329   6.100   0.345  0.0180  0.3023 -0.1266
    21BTZ   C1113039   6.197   6.086   0.292 -0.0094  0.0615  0.0016
    21BTZ    N213040   6.029   5.952   0.191  0.0598 -0.3037  0.3637
    21BTZ    N313041   6.107   6.185   0.288 -0.1246 -0.0466 -0.0958
    21BTZ    S313042   5.960   6.116   0.214 -0.1067 -0.3416  0.1390
    31IDT   C1213043   6.384   6.223   0.398 -0.1904  0.0605 -0.0103
    31IDT   C1313044   6.316   6.324   0.461 -0.0108  0.4541 -0.4387
    31IDT   C1413045   6.402   6.414   0.531  0.1353  0.4867 -0.6600
    31IDT   C1513046   6.536   6.382   0.522  0.0683  0.1190 -0.4024
    31IDT    S413047   6.563   6.234   0.423 -0.1873 -0.3007  0.1455
    4IDB    C1613048   6.616   6.474   0.591  0.0227  0.5026 -0.1199
    4IDB    C1713049   6.531   6.559   0.668 -0.0042  0.3018  0.0728
    51IDQ   C1813050   6.383   6.532   0.630 -0.4844  0.5155  0.6672
    4IDB    C1913051   6.584   6.654   0.754 -0.0342  0.1171  0.2985
    51IDQ   C2013052   6.296   6.505   0.762 -0.7104  0.6030 -0.4872
    51IDQ   C2113053   6.313   6.648   0.547  0.4044 -0.4527 -0.4814
    51IDQ   C2213054   6.396   6.768   0.497  1.0113 -0.1766  0.8287
    51IDQ   C2313055   6.224   6.378   0.792  0.7708  0.6687 -0.4154
    51IDQ   C2413056   6.472   6.747   0.368 -0.2458  0.3962 -0.9261
    51IDQ   C2513057   6.408   6.666   0.256 -0.1457 -0.5529 -0.4387
    51IDQ   C2613058   6.302   6.737   0.176  0.4973 -0.2273 -0.1834
    51IDQ   C2713059   6.223   6.646   0.090  0.2782  0.4574  0.3821
    51IDQ   C2813060   6.145   6.533   0.164 -0.0350  0.1075 -0.2221
    51IDQ   C2913061   6.015   6.563   0.243 -0.1573  0.0049  1.0545
    51IDQ   C3013062   6.197   6.376   0.943 -0.0719  0.4415 -0.3165
    51IDQ   C3113063   6.096   6.283   1.014  0.3155  0.0400  0.1968
    51IDQ   C3213064   6.106   6.268   1.165 -0.2264  0.1366 -0.2534
    51IDQ   C3313065   6.006   6.160   1.221 -0.7122 -0.0512  0.4880
    51IDQ   C3413066   5.998   6.171   1.382  0.6665 -0.4706  0.7926
    51IDQ   C3513067   6.060   6.052   1.456  0.6135  0.4229  0.6847
    4IDB    C3613068   6.756   6.485   0.599  0.0196  0.5198 -0.0876
    4IDB    C3713069   6.809   6.583   0.687 -0.0113  0.3293  0.1444
    11RH    C3813070   6.282   5.252  -0.147  0.7111 -0.7681 -0.0602
    4IDB    C3913071   6.724   6.665   0.762 -0.0374  0.1344  0.3309
    62IDT   C4013072   6.807   6.745   0.844  0.2289 -0.1295 -0.0232
    72IDQ   C4113073   6.958   6.621   0.709  0.2003 -0.0439 -1.0996
    62IDT   C4213074   6.942   6.725   0.819  0.3183  0.1380  0.2462
    72IDQ   C4313075   7.036   6.682   0.584  0.1028  0.2270  0.1941
    72IDQ   C4413076   7.035   6.508   0.787 -0.2991  0.1209 -0.0501
    62IDT    S513077   6.779   6.874   0.965 -0.2693 -0.2567  0.0004
    62IDT   C4513078   6.959   6.897   0.977 -0.3335  0.0747  0.3922
    62IDT   C4613079   7.028   6.811   0.895  0.0006  0.2539  0.4814
    82BTZ   C4713080   7.010   7.009   1.050 -0.1998 -0.0997  0.1689
    82BTZ   C4813081   6.948   7.130   1.036 -0.1092 -0.0792 -0.0541
    82BTZ   C4913082   6.996   7.248   1.104 -0.0229  0.0118 -0.2680
    82BTZ   C5013083   7.105   7.244   1.187 -0.0272  0.0822 -0.2588
    82BTZ   C5113084   7.124   6.999   1.136 -0.2081 -0.0284  0.1879
    82BTZ   C5213085   7.173   7.119   1.205 -0.1204  0.0641 -0.0295
    92RH    C5313086   7.159   7.358   1.260 -0.3473 -0.1060  0.3129
    82BTZ    N413087   7.193   6.887   1.158 -0.2923 -0.0399  0.3948
    82BTZ    N513088   7.280   7.102   1.283 -0.1340  0.1270  0.0025
    82BTZ    S613089   7.324   6.930   1.271 -0.2622  0.0693  0.3187
    92RH    C5413090   7.127   7.488   1.261 -0.1996 -0.0683  0.1942
    92RH     S713091   6.987   7.568   1.175 -0.0163  0.0371 -0.0064
    92RH    C5513092   7.205   7.589   1.337 -0.1613 -0.1078  0.2083
    92RH     O213093   7.305   7.567   1.406 -0.2592 -0.1790  0.3290
    92RH     N613094   7.149   7.718   1.321  0.0037 -0.0539  0.0651
    92RH    C5613095   7.037   7.732   1.242  0.1021  0.0239 -0.0619
    92RH    C5713096   7.217   7.834   1.379 -0.4540  0.2155 -0.1072
    92RH    C5813097   7.316   7.911   1.289  0.5878  0.1244  0.1796
    92RH     S813098   6.953   7.874   1.207  0.3014  0.0993 -0.2443
    72IDQ   C5913099   7.050   6.353   0.761  0.3740 -1.2288  0.0530
    72IDQ   C6013100   7.114   6.303   0.634  0.3594  0.0129  0.0021
    72IDQ   C6113101   7.248   6.370   0.596 -0.2234  0.6014 -1.0882
    72IDQ   C6213102   7.302   6.329   0.458  0.3288  0.2092 -0.5474
    72IDQ   C6313103   7.446   6.375   0.430  0.4034 -0.1990 -1.0520
    72IDQ   C6413104   7.469   6.522   0.437 -0.5758  0.1799 -0.8169
    72IDQ   C6513105   7.612   6.553   0.408  0.7141  0.0129  0.0149
    72IDQ   C6613106   6.985   6.794   0.487  0.2794  0.5119 -0.8095
    72IDQ   C6713107   6.857   6.767   0.404 -0.2792  0.6353 -0.9627
    72IDQ   C6813108   6.856   6.654   0.301 -0.0505  0.9770  0.4291
    72IDQ   C6913109   6.969   6.642   0.204  0.1865 -0.4978  0.7356
    72IDQ   C7013110   6.967   6.519   0.114  0.4550 -0.6980  0.2556
    72IDQ   C7113111   7.082   6.529   0.016  0.4058  0.0520  0.3437
    72IDQ   C7213112   7.061   6.453  -0.119 -0.2946  0.4085 -0.4674
    11RH     C113113   2.955   0.644   5.092  0.0971 -0.1961 -0.0607
    11RH     C213114   2.837   0.672   5.177  0.1654  0.0637 -0.0470
    11RH     N113115   2.924   0.556   4.987 -0.0417 -0.3444  0.1047
    11RH     S113116   2.692   0.579   5.113  0.0428  0.0961  0.1824
    11RH     C313117   2.795   0.508   4.977 -0.0928 -0.2352  0.2490
    11RH     C413118   3.014   0.529   4.877 -0.0476  0.5128 -0.7119
    11RH     S213119   2.732   0.402   4.862 -0.2532 -0.3695  0.4591
    11RH     O113120   3.069   0.692   5.108  0.1522 -0.2782 -0.1979
    11RH     C513121   2.840   0.752   5.284  0.2970  0.2421 -0.1843
    21BTZ    C613122   2.739   0.794   5.380 -0.0196 -0.0979  0.2112
    21BTZ    C713123   2.613   0.741   5.371 -0.0473 -0.0002  0.0095
    21BTZ    C813124   2.760   0.909   5.463 -0.0650 -0.1087  0.2373
    21BTZ    C913125   2.502   0.798   5.443 -0.1204  0.0913 -0.1754
    21BTZ   C1013126   2.517   0.907   5.524 -0.1659  0.0850 -0.1583
    21BTZ   C1113127   2.647   0.967   5.536 -0.1394 -0.0156  0.0495
    21BTZ    N213128   2.878   0.969   5.480 -0.0443 -0.1996  0.4253
    21BTZ    N313129   2.674   1.074   5.612 -0.1785 -0.0318  0.0865
    21BTZ    S313130   2.849   1.105   5.592 -0.1206 -0.1695  0.3691
    31IDT   C1213131   2.393   0.970   5.581  0.2702  0.0431  0.1330
    31IDT   C1313132   2.381   1.049   5.693  0.1520 -0.6229  0.6006
    31IDT   C1413133   2.246   1.089   5.719  0.0579 -1.1657  0.9769
    31IDT   C1513134   2.155   1.041   5.628  0.1038 -0.9178  0.7995
    31IDT    S413135   2.232   0.941   5.500  0.2712  0.0310  0.1357
    4IDB    C1613136   2.020   1.089   5.663  0.2065  0.6095 -0.0817
    4IDB    C1713137   2.025   1.170   5.780  0.1634  0.6700 -0.1218
    51IDQ   C1813138   2.173   1.169   5.834  0.2521 -0.2633  0.7860
    4IDB    C1913139   1.911   1.232   5.830  0.1003  0.5083 -0.0645
    51IDQ   C2013140   2.209   1.324   5.853 -0.3418  0.0861  0.2378
    51IDQ   C2113141   2.195   1.108   5.978  0.1801  0.0200 -0.2755
    51IDQ   C2213142   2.080   1.035   6.043  0.0708  0.5964  0.1312
    51IDQ   C2313143   2.297   1.404   5.759  0.3741  0.3491 -0.0395
    51IDQ   C2413144   2.138   0.992   6.174 -0.0812 -0.1782 -0.4911
    51IDQ   C2513145   2.048   0.903   6.262 -0.0612  0.2665 -0.0071
    51IDQ   C2613146   2.098   0.875   6.398 -0.0171 -0.1466 -0.1332
    51IDQ   C2713147   2.224   0.791   6.412  0.2498 -0.3446 -0.7980
    51IDQ   C2813148   2.249   0.773   6.563 -0.0033 -0.2388 -0.0574
    51IDQ   C2913149   2.393   0.739   6.581  0.3036 -0.3893  0.6259
    51IDQ   C3013150   2.367   1.533   5.820  0.0682 -0.5754  0.2293
    51IDQ   C3113151   2.424   1.507   5.966  0.1158 -0.4886 -0.3814
    51IDQ   C3213152   2.548   1.585   6.002 -0.5027  0.4065  0.3421
    51IDQ   C3313153   2.596   1.554   6.141 -0.7908 -0.0905 -0.2498
    51IDQ   C3413154   2.747   1.565   6.165  0.1213  0.1082  0.1702
    51IDQ   C3513155   2.772   1.531   6.311 -0.0957 -0.0579  0.9186
    4IDB    C3613156   1.900   1.069   5.594  0.1865  0.3854  0.0165
    4IDB    C3713157   1.784   1.132   5.646  0.1217  0.2225  0.0741
    11RH    C3813158   3.110   0.421   4.912 -0.2564  0.3974  0.3219
    4IDB    C3913159   1.791   1.212   5.760  0.0802  0.2843  0.0339
    62IDT   C4013160   1.653   1.256   5.788 -0.2101 -0.1948  0.3765
    72IDQ   C4113161   1.646   1.143   5.575  0.0667 -0.7336 -0.2636
    62IDT   C4213162   1.571   1.230   5.680 -0.1682 -0.1808  0.3412
    72IDQ   C4313163   1.580   1.013   5.529  0.6373  0.2954 -0.3281
    72IDQ   C4413164   1.656   1.238   5.448  0.1996 -0.3176 -0.2124
    62IDT    S513165   1.568   1.348   5.916 -0.1793  0.0320  0.2347
    62IDT   C4513166   1.419   1.347   5.812 -0.1081  0.1392  0.1301
    62IDT   C4613167   1.439   1.281   5.693 -0.1106  0.0080  0.2019
    82BTZ   C4713168   1.303   1.432   5.842 -0.1576 -0.2440  0.1195
    82BTZ   C4813169   1.314   1.529   5.938 -0.1089 -0.2673  0.1373
    82BTZ   C4913170   1.201   1.610   5.979 -0.0624 -0.1999  0.1334
    82BTZ   C5013171   1.078   1.593   5.922 -0.0647 -0.1093  0.1116
    82BTZ   C5113172   1.176   1.411   5.780 -0.1621 -0.1500  0.0962
    82BTZ   C5213173   1.061   1.493   5.821 -0.1148 -0.0815  0.0923
    92RH    C5313174   0.960   1.666   5.968 -0.2341 -0.1417  0.0895
    82BTZ    N413175   1.152   1.320   5.685 -0.2073 -0.1190  0.0775
    82BTZ    N513176   0.945   1.468   5.759 -0.1220  0.0046  0.0703
    82BTZ    S613177   0.979   1.335   5.643 -0.1910  0.0018  0.0534
    92RH    C5413178   0.942   1.754   6.066 -0.1228 -0.0902  0.0637
    92RH     S713179   1.057   1.789   6.205  0.0177 -0.0430 -0.0639
    92RH    C5513180   0.822   1.841   6.078 -0.0960 -0.0627  0.1376
    92RH     O213181   0.725   1.841   6.000 -0.1716 -0.0836  0.2302
    92RH     N613182   0.829   1.925   6.191  0.0287 -0.0086  0.0896
    92RH    C5613183   0.941   1.916   6.272  0.1050  0.0107 -0.0135
    92RH    C5713184   0.717   2.020   6.220 -0.4977  0.1035 -0.2924
    92RH    C5813185   0.600   1.954   6.294 -0.3200 -0.1384 -0.4123
    92RH     S813186   0.974   2.004   6.412  0.2562  0.0731 -0.0883
    72IDQ   C5913187   1.746   1.360   5.442  0.2604 -0.1097 -0.0975
    72IDQ   C6013188   1.755   1.432   5.308  0.2796 -0.3572  0.1087
    72IDQ   C6113189   1.630   1.496   5.248  0.1364  0.0940 -0.4443
    72IDQ   C6213190   1.673   1.530   5.107 -0.3806 -0.1314  0.0552
    72IDQ   C6313191   1.584   1.605   5.014  0.5865  0.0732  0.1043
    72IDQ   C6413192   1.647   1.674   4.896 -0.2687  0.0478  0.4737
    72IDQ   C6513193   1.533   1.733   4.814 -0.2093  0.5141 -0.6473
    72IDQ   C6613194   1.535   0.915   5.638  0.3552 -0.0550  0.5988
    72IDQ   C6713195   1.488   0.780   5.573 -0.7368  0.5088 -0.4042
    72IDQ   C6813196   1.421   0.683   5.670  0.0342  0.1781 -0.1748
    72IDQ   C6913197   1.390   0.550   5.610  1.2884 -0.2382 -0.0533
    72IDQ   C7013198   1.335   0.452   5.712 -0.2956 -0.0508  0.7005
    72IDQ   C7113199   1.303   0.308   5.659  0.5162 -0.2736  0.2038
    72IDQ   C7213200   1.253   0.216   5.770 -0.2768  0.2521 -0.4414
   6.64050   6.64050   6.64050
