IDTBR melt
13200
    11RH     C1    1   4.338   6.897   6.433 -0.5901 -0.4196  0.0942
    11RH     C2    2   4.343   6.910   6.580 -0.2630 -0.2732  0.0730
    11RH     N1    3   4.297   7.018   6.372 -0.0828 -0.2763  0.0321
    11RH     S1    4   4.293   7.079   6.630  0.6906  0.0428 -0.0277
    11RH     C3    5   4.269   7.126   6.453  0.6106 -0.0331 -0.0365
    11RH     C4    6   4.307   7.040   6.218 -1.2027 -0.4444 -0.5457
    11RH     S2    7   4.218   7.280   6.406  1.3118  0.1757 -0.1190
    11RH     O1    8   4.367   6.795   6.368 -1.2267 -0.6399  0.1585
    11RH     C5    9   4.379   6.810   6.662 -0.6271 -0.3656  0.1213
    21BTZ    C6   10   4.385   6.788   6.804 -0.0141  0.1010  0.1572
    21BTZ    C7   11   4.362   6.878   6.904  0.2491 -0.0987  0.3998
    21BTZ    C8   12   4.407   6.650   6.839  0.1948  0.0510 -0.1657
    21BTZ    C9   13   4.359   6.839   7.043  0.7272 -0.3555  0.3381
    21BTZ   C10   14   4.379   6.709   7.081  0.9413 -0.4125  0.0337
    21BTZ   C11   15   4.404   6.610   6.980  0.6804 -0.2100 -0.2284
    21BTZ    N2   16   4.430   6.553   6.750 -0.0260  0.2296 -0.4218
    21BTZ    N3   17   4.425   6.481   7.004  0.8507 -0.2413 -0.5350
    21BTZ    S3   18   4.450   6.403   6.845  0.3871  0.0680 -0.7612
    31IDT   C12   19   4.398   6.683   7.232  0.2406  0.7641 -0.3925
    31IDT   C13   20   4.381   6.562   7.295 -0.2844  0.5882 -0.8609
    31IDT   C14   21   4.396   6.571   7.437 -0.5298  0.0217 -0.7955
    31IDT   C15   22   4.425   6.698   7.482 -0.1946 -0.2374 -0.2781
    31IDT    S4   23   4.435   6.817   7.348  0.4645  0.2206  0.1706
    4IDB    C16   24   4.438   6.698   7.616 -0.3736 -1.1614 -0.5962
    4IDB    C17   25   4.383   6.576   7.667 -0.2604 -0.9820 -0.0367
    51IDQ   C18   26   4.362   6.475   7.553 -0.3257  1.0150  0.7578
    4IDB    C19   27   4.363   6.558   7.803  0.0455 -0.4939  0.0748
    51IDQ   C20   28   4.477   6.358   7.569  0.7127 -0.2878  0.0680
    51IDQ   C21   29   4.220   6.411   7.533 -1.5975 -1.0367 -0.1498
    51IDQ   C22   30   4.094   6.475   7.589  0.6966  1.1746  0.4646
    51IDQ   C23   31   4.609   6.356   7.492 -1.0816 -0.9039 -0.1692
    51IDQ   C24   32   3.956   6.395   7.619  0.0425 -0.5073  0.2787
    51IDQ   C25   33   3.875   6.361   7.493 -1.2396  0.2909 -0.8216
    51IDQ   C26   34   3.873   6.486   7.404 -0.3641 -0.5665  0.7670
    51IDQ   C27   35   3.844   6.492   7.255 -0.0091 -0.6186  0.2933
    51IDQ   C28   36   3.917   6.382   7.160 -0.1405  0.2128  0.1616
    51IDQ   C29   37   3.941   6.238   7.194  0.6438 -0.3983  0.5360
    51IDQ   C30   38   4.708   6.234   7.480 -1.0971 -0.8513 -0.2494
    51IDQ   C31   39   4.634   6.094   7.467 -0.5401 -0.3727  0.0226
    51IDQ   C32   40   4.584   6.062   7.321  1.1860 -0.5283  0.8364
    51IDQ   C33   41   4.497   6.173   7.244  0.5217  0.5624  0.2403
    51IDQ   C34   42   4.469   6.123   7.101  0.4204  1.2255 -0.1760
    51IDQ   C35   43   4.570   6.064   6.992 -0.4335  0.3975 -0.0102
    4IDB    C36   44   4.473   6.803   7.702 -0.1807 -0.8516 -1.0501
    4IDB    C37   45   4.452   6.783   7.841  0.1311 -0.3538 -0.9281
    11RH    C38   46   4.408   7.123   6.147  0.7132  0.7009 -0.1301
    4IDB    C39   47   4.398   6.663   7.889  0.2386 -0.1845 -0.3791
    62IDT   C40   48   4.382   6.670   8.037 -0.1890  0.1167  0.7894
    72IDQ   C41   49   4.471   6.872   7.966 -0.0802  1.0371 -0.0250
    62IDT   C42   50   4.419   6.792   8.087  0.1769 -0.2558  1.4321
    72IDQ   C43   51   4.386   7.000   7.957  0.2810 -0.3624 -0.1569
    72IDQ   C44   52   4.630   6.911   7.975  0.4260 -1.0633 -0.2279
    62IDT    S5   53   4.311   6.563   8.163 -0.5969 -0.3037  0.2155
    62IDT   C45   54   4.338   6.697   8.284 -0.2338 -0.9947  0.9084
    62IDT   C46   55   4.395   6.808   8.227  0.1521 -0.8850  1.5002
    82BTZ   C47   56   4.295   6.675   8.426 -0.2841 -0.3056 -0.6464
    82BTZ   C48   57   4.298   6.549   8.480 -0.4208 -0.3068 -0.6399
    82BTZ   C49   58   4.261   6.524   8.617 -0.3037 -0.2365 -0.5948
    82BTZ   C50   59   4.220   6.625   8.700 -0.0506 -0.1651 -0.5563
    82BTZ   C51   60   4.253   6.784   8.509 -0.0184 -0.2322 -0.6070
    82BTZ   C52   61   4.215   6.759   8.649  0.1004 -0.1609 -0.5612
    92RH    C53   62   4.192   6.606   8.840  0.1981 -0.2852 -0.2933
    82BTZ    N4   63   4.245   6.911   8.469  0.1345 -0.2239 -0.6090
    82BTZ    N5   64   4.177   6.865   8.720  0.3486 -0.0949 -0.5263
    82BTZ    S6   65   4.188   7.006   8.610  0.4429 -0.1221 -0.5511
    92RH    C54   66   4.190   6.492   8.910  0.0274 -0.1819 -0.1314
    92RH     S7   67   4.194   6.321   8.843 -0.0924 -0.2831  0.1178
    92RH    C55   68   4.182   6.487   9.058 -0.0935  0.0384 -0.1302
    92RH     O2   69   4.178   6.586   9.133 -0.0529  0.1512 -0.2756
    92RH     N6   70   4.181   6.354   9.106 -0.2657  0.1079  0.0602
    92RH    C56   71   4.186   6.252   9.014 -0.2968 -0.0300  0.2116
    92RH    C57   72   4.180   6.317   9.247 -0.5126 -0.8078 -1.0858
    92RH    C58   73   4.322   6.269   9.312  0.2613 -0.6625  1.4310
    92RH     S8   74   4.186   6.086   9.044 -0.4883  0.0134  0.4501
    72IDQ   C59   75   4.737   6.802   7.969 -0.0005  0.7897  0.1338
    72IDQ   C60   76   4.853   6.823   7.872  0.0883 -0.5544 -0.2576
    72IDQ   C61   77   4.901   6.686   7.826  1.8073  1.9065  0.6776
    72IDQ   C62   78   4.895   6.689   7.669  1.2196 -1.4324  0.7822
    72IDQ   C63   79   4.867   6.552   7.623  0.2220 -0.4445  0.1843
    72IDQ   C64   80   4.996   6.468   7.645 -0.5121 -0.8311 -0.1233
    72IDQ   C65   81   5.123   6.533   7.589 -0.5323  0.4682  0.9337
    72IDQ   C66   82   4.326   7.071   7.832 -0.1649 -0.5500 -0.1598
    72IDQ   C67   83   4.429   7.130   7.743  1.1912 -0.5049  0.4544
    72IDQ   C68   84   4.497   7.269   7.764 -0.6989 -0.5593 -0.8094
    72IDQ   C69   85   4.582   7.316   7.646  1.1821  0.7198  0.0263
    72IDQ   C70   86   4.683   7.224   7.560  0.9279 -0.2249  0.3020
    72IDQ   C71   87   4.792   7.292   7.482  1.0386  1.1441 -0.7686
    72IDQ   C72   88   4.904   7.349   7.563  0.4891  0.0668  1.0504
    11RH     C1   89   4.910   4.588   5.099  0.3967  0.1194 -0.2668
    11RH     C2   90   4.979   4.605   5.229  0.1824  0.0038 -0.1392
    11RH     N1   91   4.797   4.672   5.088  0.2957 -0.0211 -0.2975
    11RH     S1   92   4.889   4.729   5.330 -0.1379 -0.2824 -0.0682
    11RH     C3   93   4.766   4.753   5.195  0.0267 -0.2351 -0.2105
    11RH     C4   94   4.704   4.633   4.978  0.8384  0.5399  0.7713
    11RH     S2   95   4.637   4.862   5.208 -0.1431 -0.4346 -0.2239
    11RH     O1   96   4.946   4.511   5.008  0.6363  0.3150 -0.3393
    11RH     C5   97   5.089   4.537   5.264  0.2249  0.0996 -0.0872
    21BTZ    C6   98   5.162   4.515   5.393  0.3386  0.0355 -0.4632
    21BTZ    C7   99   5.140   4.567   5.518  0.4458  0.0870 -0.4654
    21BTZ    C8  100   5.277   4.431   5.373  0.2561 -0.0691 -0.4995
    21BTZ    C9  101   5.229   4.539   5.629  0.4773  0.0386 -0.5026
    21BTZ   C10  102   5.339   4.460   5.614  0.4016 -0.0611 -0.5382
    21BTZ   C11  103   5.367   4.403   5.485  0.2880 -0.1183 -0.5376
    21BTZ    N2  104   5.309   4.375   5.256  0.1490 -0.1276 -0.5012
    21BTZ    N3  105   5.472   4.325   5.458  0.2069 -0.2160 -0.5698
    21BTZ    S3  106   5.459   4.282   5.285  0.0833 -0.2496 -0.5526
    31IDT   C12  107   5.418   4.407   5.729 -0.2902 -0.7843 -0.0108
    31IDT   C13  108   5.450   4.278   5.762  0.2506 -0.6695 -0.0618
    31IDT   C14  109   5.490   4.263   5.898  1.0262 -0.4380 -0.2623
    31IDT   C15  110   5.490   4.381   5.970  1.0815 -0.3751 -0.3657
    31IDT    S4  111   5.439   4.521   5.870  0.1472 -0.6061 -0.2155
    4IDB    C16  112   5.545   4.362   6.108 -0.1351  0.2591  0.5694
    4IDB    C17  113   5.588   4.227   6.121 -0.1922  0.1872  0.0281
    51IDQ   C18  114   5.563   4.160   5.975 -0.8468  2.2504  1.1055
    4IDB    C19  115   5.648   4.181   6.238  0.6635 -0.0663 -0.4997
    51IDQ   C20  116   5.711   4.140   5.927 -0.8029 -0.3261  0.4146
    51IDQ   C21  117   5.504   4.009   5.979  0.1836  1.8923 -1.4350
    51IDQ   C22  118   5.408   3.967   5.875 -0.0776 -0.8420  0.0459
    51IDQ   C23  119   5.787   4.183   5.810  1.0195  0.0934  0.2951
    51IDQ   C24  120   5.343   3.829   5.887 -0.4451  0.3239 -1.1248
    51IDQ   C25  121   5.247   3.795   5.773 -0.1748 -0.3702 -1.0922
    51IDQ   C26  122   5.205   3.643   5.781  0.0625 -0.2396  0.2718
    51IDQ   C27  123   5.301   3.524   5.757  1.0344 -0.9117  1.4054
    51IDQ   C28  124   5.237   3.391   5.735 -0.3673 -0.6483  0.9190
    51IDQ   C29  125   5.346   3.280   5.705  1.2153 -1.3686 -0.1696
    51IDQ   C30  126   5.925   4.144   5.819 -0.1435 -0.8798  0.7908
    51IDQ   C31  127   5.986   4.231   5.709  1.0449  0.1563  1.9636
    51IDQ   C32  128   6.129   4.270   5.692  0.3861 -0.0396  0.7966
    51IDQ   C33  129   6.225   4.279   5.817 -0.7288 -0.6822  0.3894
    51IDQ   C34  130   6.366   4.330   5.788 -0.5768 -0.8244 -0.9519
    51IDQ   C35  131   6.489   4.248   5.844 -0.3693  1.3458 -1.1211
    4IDB    C36  132   5.563   4.454   6.213  0.7844  0.0768  0.5848
    4IDB    C37  133   5.624   4.406   6.332  1.6513 -0.1814  0.0412
    11RH    C38  134   4.691   4.710   4.846 -0.4230  0.5321 -0.1187
    4IDB    C39  135   5.665   4.273   6.343  1.5833 -0.2492 -0.4838
    62IDT   C40  136   5.731   4.239   6.468  0.1899  0.0022  0.8726
    72IDQ   C41  137   5.675   4.476   6.458 -0.2520  1.0738  0.7371
    62IDT   C42  138   5.728   4.350   6.550  0.4144 -0.0868  1.0021
    72IDQ   C43  139   5.594   4.585   6.530  0.5119 -0.9561  0.3389
    72IDQ   C44  140   5.825   4.526   6.433  0.5256 -0.5907 -1.0662
    62IDT    S5  141   5.803   4.097   6.551  0.2320 -0.1426  0.5871
    62IDT   C45  142   5.827   4.200   6.699  0.5674 -0.3244  0.6610
    62IDT   C46  143   5.783   4.328   6.680  0.6278 -0.2718  0.8821
    82BTZ   C47  144   5.885   4.129   6.811 -0.0925 -0.0693 -0.0167
    82BTZ   C48  145   5.970   4.024   6.787  0.1714  0.1073  0.1326
    82BTZ   C49  146   6.023   3.943   6.894  0.4897  0.4786  0.2594
    82BTZ   C50  147   5.991   3.967   7.025  0.5431  0.6726  0.2366
    82BTZ   C51  148   5.849   4.159   6.946 -0.0486  0.1221 -0.0458
    82BTZ   C52  149   5.903   4.076   7.055  0.2747  0.4995  0.0827
    92RH    C53  150   6.019   3.865   7.134 -0.6931 -0.3288 -0.2986
    82BTZ    N4  151   5.768   4.258   6.983 -0.2866 -0.0205 -0.1860
    82BTZ    N5  152   5.864   4.110   7.179  0.2966  0.6602  0.0463
    82BTZ    S6  153   5.756   4.251   7.161 -0.1036  0.3290 -0.1586
    92RH    C54  154   6.085   3.749   7.124 -0.3748 -0.1516 -0.2607
    92RH     S7  155   6.137   3.665   6.969 -0.2434 -0.1165 -0.2360
    92RH    C55  156   6.128   3.669   7.241 -0.0696  0.0501 -0.2319
    92RH     O2  157   6.108   3.699   7.360 -0.0725  0.0786 -0.2393
    92RH     N6  158   6.195   3.552   7.202  0.2331  0.2109 -0.1941
    92RH    C56  159   6.212   3.528   7.067  0.2079  0.1628 -0.1890
    92RH    C57  160   6.233   3.441   7.299 -0.5781  0.6260 -0.0785
    92RH    C58  161   6.349   3.455   7.401  1.0656  0.0469  0.7193
    92RH     S8  162   6.289   3.397   6.994  0.5274  0.3246 -0.1473
    72IDQ   C59  163   5.868   4.566   6.283  0.5190 -1.2393 -0.1157
    72IDQ   C60  164   5.949   4.677   6.231 -0.0438  0.2683 -0.4722
    72IDQ   C61  165   6.008   4.655   6.090 -1.0389  0.6356 -0.1594
    72IDQ   C62  166   5.930   4.633   5.964  0.6398  1.5229 -0.7076
    72IDQ   C63  167   6.012   4.676   5.832  0.1714  0.1685  0.5490
    72IDQ   C64  168   5.915   4.693   5.707 -0.8582  1.1443  0.6231
    72IDQ   C65  169   5.854   4.574   5.636  0.4269 -0.0084 -0.3169
    72IDQ   C66  170   5.539   4.716   6.451  0.9577  0.8967 -0.6011
    72IDQ   C67  171   5.604   4.775   6.326 -0.1952  0.6054 -1.5539
    72IDQ   C68  172   5.497   4.843   6.241  0.7834  0.2708  1.8325
    72IDQ   C69  173   5.395   4.961   6.285  0.6398  0.1882  0.1874
    72IDQ   C70  174   5.456   5.096   6.291  0.0453  0.7941 -0.0818
    72IDQ   C71  175   5.393   5.212   6.197 -0.5615  0.0413 -1.0962
    72IDQ   C72  176   5.329   5.302   6.295  1.6646  0.7503 -0.3079
    11RH     C1  177   3.167   0.968   3.329  0.4138  0.3513  0.3842
    11RH     C2  178   3.125   1.051   3.213  0.1773  0.2040  0.3624
    11RH     N1  179   3.292   0.907   3.306  0.1974  0.0235  0.0479
    11RH     S1  180   3.254   1.044   3.083 -0.3142 -0.3560 -0.0988
    11RH     C3  181   3.356   0.932   3.187 -0.1835 -0.3685 -0.2407
    11RH     C4  182   3.359   0.827   3.402  0.4440 -0.5949  1.6144
    11RH     S2  183   3.506   0.873   3.136 -0.5018 -0.8091 -0.6670
    11RH     O1  184   3.101   0.952   3.433  0.7586  0.7145  0.6592
    11RH     C5  185   3.010   1.119   3.209  0.3129  0.4525  0.6433
    21BTZ    C6  186   2.945   1.212   3.115 -0.6324 -1.0018 -0.5808
    21BTZ    C7  187   3.000   1.256   2.997 -0.1880 -0.6759 -0.2568
    21BTZ    C8  188   2.823   1.272   3.159 -0.2836 -0.4269 -0.3860
    21BTZ    C9  189   2.938   1.359   2.918  0.6162  0.2252  0.2716
    21BTZ   C10  190   2.822   1.419   2.956  0.9746  0.7989  0.4749
    21BTZ   C11  191   2.760   1.378   3.079  0.5338  0.4889  0.1510
    21BTZ    N2  192   2.759   1.239   3.272 -0.6561 -0.6673 -0.6641
    21BTZ    N3  193   2.646   1.429   3.127  0.8184  0.9845  0.3046
    21BTZ    S3  194   2.614   1.343   3.280  0.0366  0.2867 -0.2423
    31IDT   C12  195   2.746   1.446   2.832  0.1234  0.9228  0.1101
    31IDT   C13  196   2.774   1.407   2.703  0.9931  1.0623  0.2525
    31IDT   C14  197   2.688   1.467   2.607  1.0226  0.4308 -0.1733
    31IDT   C15  198   2.594   1.552   2.660  0.1778 -0.1926 -0.6422
    31IDT    S4  199   2.607   1.563   2.839 -0.7290 -0.0268 -0.5802
    4IDB    C16  200   2.506   1.608   2.560 -1.1279  0.4528  0.0256
    4IDB    C17  201   2.562   1.578   2.433 -0.5406  0.5472  0.2587
    51IDQ   C18  202   2.674   1.467   2.455 -0.0396  0.8562 -0.3283
    4IDB    C19  203   2.511   1.635   2.317 -0.2753  0.3124  0.0237
    51IDQ   C20  204   2.634   1.326   2.385  0.1841  0.3031 -0.4592
    51IDQ   C21  205   2.807   1.507   2.404  0.7755  0.1363 -0.8634
    51IDQ   C22  206   2.860   1.638   2.391  1.1136  0.0105 -0.1394
    51IDQ   C23  207   2.595   1.216   2.485 -0.0732 -0.3901 -0.0376
    51IDQ   C24  208   2.883   1.659   2.239  1.8624  0.2292  0.0068
    51IDQ   C25  209   2.877   1.795   2.177 -1.2096 -0.5591  0.1372
    51IDQ   C26  210   2.793   1.903   2.244  0.7775 -0.0004  0.6945
    51IDQ   C27  211   2.860   2.019   2.325 -2.4143  0.1282  0.7065
    51IDQ   C28  212   2.852   2.007   2.473  1.3300 -0.2699 -0.4418
    51IDQ   C29  213   2.711   2.027   2.531 -1.2690  0.6578 -0.1400
    51IDQ   C30  214   2.586   1.080   2.442 -0.9058  0.5811  1.1095
    51IDQ   C31  215   2.607   0.973   2.550  1.1156  0.9968 -1.9561
    51IDQ   C32  216   2.752   0.933   2.608 -0.2995  1.9871 -1.0794
    51IDQ   C33  217   2.738   0.863   2.747  1.2480  0.2291 -0.6116
    51IDQ   C34  218   2.682   0.948   2.856  0.3895 -0.3936  0.3920
    51IDQ   C35  219   2.529   0.945   2.862 -0.7320  0.8966  0.5095
    4IDB    C36  220   2.397   1.695   2.573 -1.4552  0.1209 -0.4468
    4IDB    C37  221   2.346   1.753   2.454 -1.1768 -0.1156 -0.6813
    11RH    C38  222   3.430   0.882   3.529  1.1052 -1.1927 -0.1658
    4IDB    C39  223   2.402   1.722   2.329 -0.6026 -0.0195 -0.4488
    62IDT   C40  224   2.323   1.794   2.232  0.4737  0.6401  0.4195
    72IDQ   C41  225   2.242   1.860   2.449  1.9641  0.4053  0.8453
    62IDT   C42  226   2.246   1.884   2.301  0.6756  0.6413  0.6440
    72IDQ   C43  227   2.297   1.987   2.541 -1.5452  1.0012 -0.3214
    72IDQ   C44  228   2.106   1.825   2.509  0.0256  0.0594  0.3427
    62IDT    S5  229   2.305   1.812   2.054 -0.5754  0.1766  0.4732
    62IDT   C45  230   2.187   1.948   2.085 -0.6913  0.0002  0.8126
    62IDT   C46  231   2.169   1.971   2.218  0.0170  0.2797  0.8665
    82BTZ   C47  232   2.125   2.025   1.982  0.3193  0.1713  0.4631
    82BTZ   C48  233   2.168   2.006   1.853  0.4476  0.1477  0.5099
    82BTZ   C49  234   2.105   2.071   1.742  0.3449 -0.1373  0.4012
    82BTZ   C50  235   1.998   2.155   1.758  0.1141 -0.3982  0.2461
    82BTZ   C51  236   2.013   2.112   2.005  0.0769 -0.0955  0.3020
    82BTZ   C52  237   1.949   2.178   1.891 -0.0274 -0.3852  0.1915
    92RH    C53  238   1.932   2.222   1.649 -0.1551  0.0516  0.2440
    82BTZ    N4  239   1.962   2.138   2.125 -0.0659 -0.1012  0.2424
    82BTZ    N5  240   1.845   2.257   1.920 -0.2542 -0.6236  0.0433
    82BTZ    S6  241   1.826   2.251   2.098 -0.3457 -0.4851  0.0385
    92RH    C54  242   1.934   2.222   1.515 -0.2980 -0.0191  0.2417
    92RH     S7  243   2.052   2.132   1.407 -0.2582  0.1234  0.1660
    92RH    C55  244   1.838   2.298   1.432 -0.5177 -0.2310  0.3024
    92RH     O2  245   1.745   2.369   1.475 -0.5943 -0.3657  0.3614
    92RH     N6  246   1.863   2.280   1.294 -0.6338 -0.2635  0.2853
    92RH    C56  247   1.968   2.199   1.257 -0.5339 -0.1036  0.2183
    92RH    C57  248   1.782   2.352   1.200  1.5845  0.5178  0.1929
    92RH    C58  249   1.650   2.273   1.172 -1.4097 -0.5786  0.1549
    92RH     S8  250   2.019   2.161   1.101 -0.6357 -0.1025  0.1847
    72IDQ   C59  251   2.010   1.947   2.527  0.5660 -0.2847  0.7411
    72IDQ   C60  252   1.850   1.924   2.535 -0.0442 -0.1762 -1.0449
    72IDQ   C61  253   1.808   1.781   2.512  0.3766  1.6229  0.3056
    72IDQ   C62  254   1.687   1.719   2.596  0.2853  0.1569 -1.0918
    72IDQ   C63  255   1.627   1.599   2.526 -0.7315  0.4253 -0.0212
    72IDQ   C64  256   1.505   1.577   2.595  1.4409 -0.5458 -0.0615
    72IDQ   C65  257   1.493   1.492   2.729 -1.1419 -0.3742 -1.1783
    72IDQ   C66  258   2.311   2.127   2.481 -0.9953  1.4985  0.7352
    72IDQ   C67  259   2.286   2.238   2.595 -0.9800 -0.5697  0.5410
    72IDQ   C68  260   2.348   2.368   2.548 -0.3682 -1.0387  0.2614
    72IDQ   C69  261   2.287   2.485   2.613  0.4536  0.6690 -1.0366
    72IDQ   C70  262   2.380   2.554   2.728  0.2112  1.9257  0.2111
    72IDQ   C71  263   2.294   2.624   2.834 -0.7461 -0.8251 -0.2564
    72IDQ   C72  264   2.357   2.771   2.858  0.9501 -1.2394  1.4428
    11RH     C1  265   1.919   0.090   2.180 -0.0972  0.5505 -0.3194
    11RH     C2  266   1.874  -0.013   2.083 -0.0156  0.2167 -0.0056
    11RH     N1  267   2.060   0.093   2.192 -0.1040  0.6290 -0.2525
    11RH     S1  268   2.021  -0.099   2.013  0.0467  0.0279  0.3570
    11RH     C3  269   2.133   0.005   2.116 -0.0381  0.3991  0.0767
    11RH     C4  270   2.109   0.204   2.277 -0.9195 -0.8016 -0.5047
    11RH     S2  271   2.301  -0.012   2.111 -0.0305  0.4315  0.2228
    11RH     O1  272   1.844   0.166   2.244 -0.1532  0.7420 -0.6075
    11RH     C5  273   1.746  -0.036   2.053  0.0069  0.0826  0.0013
    21BTZ    C6  274   1.686  -0.135   1.963  0.1147 -0.0457  0.1395
    21BTZ    C7  275   1.756  -0.218   1.880  0.1541  0.2689 -0.1417
    21BTZ    C8  276   1.542  -0.137   1.957  0.1121 -0.1776  0.2191
    21BTZ    C9  277   1.690  -0.306   1.787  0.1927  0.4690 -0.3574
    21BTZ   C10  278   1.554  -0.310   1.776  0.1919  0.3539 -0.2916
    21BTZ   C11  279   1.475  -0.226   1.862  0.1513  0.0255 -0.0001
    21BTZ    N2  280   1.463  -0.061   2.033  0.0756 -0.4807  0.4858
    21BTZ    N3  281   1.342  -0.222   1.861  0.1463 -0.1142  0.0902
    21BTZ    S3  282   1.295  -0.101   1.985  0.0901 -0.5197  0.4673
    31IDT   C12  283   1.488  -0.405   1.697  0.0330  0.5411 -0.7668
    31IDT   C13  284   1.402  -0.354   1.604  0.7591  0.4478 -1.5009
    31IDT   C14  285   1.327  -0.455   1.537  0.7437  0.4268 -1.4524
    31IDT   C15  286   1.355  -0.584   1.578  0.0080  0.5039 -0.6830
    31IDT    S4  287   1.480  -0.586   1.707 -0.7295  0.6104  0.0466
    4IDB    C16  288   1.273  -0.686   1.524 -0.1338  0.3450  0.2101
    4IDB    C17  289   1.168  -0.616   1.457 -0.4491  0.2534  0.5990
    51IDQ   C18  290   1.206  -0.455   1.449  0.2957 -0.9740 -0.4479
    4IDB    C19  291   1.062  -0.684   1.399 -0.6388  0.1641  1.0519
    51IDQ   C20  292   1.195  -0.415   1.301 -1.5207 -0.8568  0.2275
    51IDQ   C21  293   1.101  -0.352   1.528 -0.1976  0.5645 -0.1050
    51IDQ   C22  294   1.005  -0.422   1.619  0.4612  0.4685  0.2464
    51IDQ   C23  295   1.323  -0.329   1.264  0.3392  0.5961 -0.8399
    51IDQ   C24  296   0.954  -0.341   1.732 -0.3529 -1.0077 -0.7443
    51IDQ   C25  297   1.028  -0.327   1.866  0.2225  1.3743  0.7089
    51IDQ   C26  298   0.920  -0.294   1.986  0.0045 -0.4192 -0.2407
    51IDQ   C27  299   0.958  -0.381   2.104  0.5741 -0.1324  0.0699
    51IDQ   C28  300   0.890  -0.517   2.099 -0.1562  0.3217 -1.4117
    51IDQ   C29  301   0.825  -0.516   2.242 -1.3103  0.6160 -1.1192
    51IDQ   C30  302   1.320  -0.177   1.310  0.1847  1.3111 -1.7260
    51IDQ   C31  303   1.378  -0.084   1.198 -0.1595  0.6221 -1.0715
    51IDQ   C32  304   1.529  -0.094   1.148  0.3497  0.1131 -0.3780
    51IDQ   C33  305   1.639  -0.148   1.247  0.3340  0.1409 -0.2297
    51IDQ   C34  306   1.684  -0.043   1.340 -0.5421  0.0703  0.2127
    51IDQ   C35  307   1.733  -0.124   1.456 -0.2485 -0.7784  0.0799
    4IDB    C36  308   1.271  -0.826   1.535 -0.0059  0.3479  0.2725
    4IDB    C37  309   1.161  -0.894   1.475 -0.2033  0.2558  0.7376
    11RH    C38  310   2.172   0.315   2.184  0.3286 -0.8221 -0.5426
    4IDB    C39  311   1.060  -0.824   1.410 -0.5109  0.1670  1.1141
    62IDT   C40  312   0.958  -0.909   1.345 -0.2771 -0.0427  0.4040
    72IDQ   C41  313   1.126  -1.048   1.452  0.0984  0.1410 -0.6810
    62IDT   C42  314   0.997  -1.041   1.356 -0.3384 -0.1118 -0.1319
    72IDQ   C43  315   1.090  -1.131   1.579 -0.9297  0.9278  0.4359
    72IDQ   C44  316   1.264  -1.112   1.402  1.2825 -0.6991 -0.1271
    62IDT    S5  317   0.798  -0.894   1.263 -0.0436  0.3870  0.0190
    62IDT   C45  318   0.793  -1.076   1.249 -0.0409  0.4543 -0.8904
    62IDT   C46  319   0.904  -1.135   1.302 -0.2050  0.1693 -0.8644
    82BTZ   C47  320   0.654  -1.130   1.230  0.4525  0.2680 -0.5068
    82BTZ   C48  321   0.562  -1.077   1.318  0.5082  0.0842 -0.3394
    82BTZ   C49  322   0.423  -1.112   1.311  0.5506 -0.1299 -0.1372
    82BTZ   C50  323   0.374  -1.198   1.216  0.5372 -0.1599 -0.1026
    82BTZ   C51  324   0.608  -1.221   1.129  0.4364  0.2451 -0.4787
    82BTZ   C52  325   0.466  -1.256   1.122  0.4795  0.0277 -0.2730
    92RH    C53  326   0.244  -1.269   1.227  0.3549  0.0669  0.6456
    82BTZ    N4  327   0.687  -1.278   1.038  0.3835  0.4115 -0.6297
    82BTZ    N5  328   0.430  -1.341   1.025  0.4613  0.0193 -0.2589
    82BTZ    S6  329   0.581  -1.381   0.937  0.3867  0.2947 -0.5131
    92RH    C54  330   0.140  -1.251   1.309  0.0921 -0.1261  0.3579
    92RH     S7  331   0.098  -1.098   1.401 -0.7530 -0.0238 -0.1771
    92RH    C55  332   0.039  -1.355   1.338  0.4607 -0.4635  0.4330
    92RH     O2  333   0.038  -1.470   1.291  1.0445 -0.6053  0.7641
    92RH     N6  334  -0.060  -1.308   1.427  0.0636 -0.6105  0.0761
    92RH    C56  335  -0.050  -1.179   1.473 -0.5784 -0.4320 -0.2758
    92RH    C57  336  -0.162  -1.400   1.485 -0.7548  0.6433  0.3602
    92RH    C58  337  -0.292  -1.422   1.398  0.3747 -0.1758  0.6374
    92RH     S8  338  -0.154  -1.099   1.580 -1.1504 -0.5488 -0.7384
    72IDQ   C59  339   1.336  -1.065   1.262 -0.1011 -0.2117  0.3752
    72IDQ   C60  340   1.461  -1.141   1.197 -0.8310  0.3105  0.5006
    72IDQ   C61  341   1.455  -1.295   1.169  0.5899  0.8805  1.1750
    72IDQ   C62  342   1.579  -1.386   1.169  1.6141 -0.1076  0.6861
    72IDQ   C63  343   1.635  -1.363   1.028 -0.2593 -0.7578 -0.3280
    72IDQ   C64  344   1.761  -1.436   0.985  0.5050 -0.1339 -0.6724
    72IDQ   C65  345   1.888  -1.391   1.053 -0.4459 -1.5943 -0.8928
    72IDQ   C66  346   1.147  -1.127   1.723 -0.2088 -0.8513  0.5574
    72IDQ   C67  347   1.057  -1.091   1.851  0.2861 -1.5370  0.4971
    72IDQ   C68  348   1.139  -1.084   1.986 -0.5260  0.8993  0.1410
    72IDQ   C69  349   1.186  -1.216   2.029 -0.6085 -0.3457 -0.9617
    72IDQ   C70  350   1.286  -1.212   2.147 -0.8930  0.4658  1.1318
    72IDQ   C71  351   1.208  -1.188   2.280 -1.8085  0.3934  0.2400
    72IDQ   C72  352   1.292  -1.220   2.409 -1.0622 -0.6247 -0.3499
    11RH     C1  353   1.826   0.210   4.525  0.3652  0.4488  0.2265
    11RH     C2  354   1.859   0.118   4.413  0.1819  0.5315  0.1032
    11RH     N1  355   1.698   0.184   4.577  0.4335  0.4385  0.3898
    11RH     S1  356   1.719   0.003   4.384  0.1112  0.5904  0.2100
    11RH     C3  357   1.624   0.082   4.521  0.3272  0.5028  0.4125
    11RH     C4  358   1.637   0.262   4.686 -0.3582 -2.3545 -0.4061
    11RH     S2  359   1.469   0.030   4.564  0.3763  0.5066  0.5929
    11RH     O1  360   1.900   0.300   4.569  0.4509  0.3943  0.1936
    11RH     C5  361   1.975   0.122   4.346  0.0868  0.5570 -0.0604
    21BTZ    C6  362   2.030   0.055   4.240  0.0785 -0.2942  0.5469
    21BTZ    C7  363   1.974  -0.053   4.177 -0.2304 -0.1025  0.4916
    21BTZ    C8  364   2.147   0.115   4.183 -0.0724 -0.2579  0.2773
    21BTZ    C9  365   2.029  -0.107   4.056 -0.7001  0.1326  0.1714
    21BTZ   C10  366   2.141  -0.053   3.997 -0.8600  0.1757 -0.0936
    21BTZ   C11  367   2.203   0.060   4.059 -0.5499 -0.0189 -0.0486
    21BTZ    N2  368   2.211   0.221   4.235  0.1961 -0.4302  0.3004
    21BTZ    N3  369   2.312   0.122   4.011 -0.6652  0.0009 -0.2873
    21BTZ    S3  370   2.348   0.255   4.125 -0.1573 -0.2913 -0.1021
    31IDT   C12  371   2.198  -0.119   3.874  0.9669 -0.5410 -0.0912
    31IDT   C13  372   2.333  -0.120   3.856  0.8894 -1.0581 -0.7012
    31IDT   C14  373   2.375  -0.206   3.749  0.0416 -0.8051 -1.2494
    31IDT   C15  374   2.272  -0.271   3.686 -0.5314 -0.0951 -1.0612
    31IDT    S4  375   2.112  -0.228   3.756 -0.0373  0.3118 -0.1674
    4IDB    C16  376   2.319  -0.347   3.577 -0.4766  0.1627 -0.2898
    4IDB    C17  377   2.461  -0.350   3.595 -0.4417  0.3219 -0.5208
    51IDQ   C18  378   2.515  -0.267   3.712 -0.7091 -0.5469  0.0113
    4IDB    C19  379   2.542  -0.429   3.515 -0.5197  0.1583 -0.4392
    51IDQ   C20  380   2.571  -0.372   3.828 -1.0234  0.1397  1.0791
    51IDQ   C21  381   2.617  -0.154   3.686  1.3512 -0.1097  0.3058
    51IDQ   C22  382   2.686  -0.133   3.553 -0.7007 -0.1286 -1.1296
    51IDQ   C23  383   2.536  -0.354   3.969  0.8951  0.1696  0.6832
    51IDQ   C24  384   2.706   0.007   3.497 -0.6329 -0.9137 -0.5786
    51IDQ   C25  385   2.586   0.114   3.511  0.0512  0.7049 -0.5788
    51IDQ   C26  386   2.603   0.270   3.534  0.4892 -0.6910  0.2101
    51IDQ   C27  387   2.586   0.314   3.688  0.1966 -1.4279  1.5608
    51IDQ   C28  388   2.709   0.275   3.781 -0.8966  0.4983 -0.5126
    51IDQ   C29  389   2.716   0.135   3.825 -0.0049  0.4568 -0.7255
    51IDQ   C30  390   2.404  -0.423   4.016  0.3229  0.5523 -0.1558
    51IDQ   C31  391   2.370  -0.382   4.162 -0.2555  1.3165 -0.1448
    51IDQ   C32  392   2.347  -0.237   4.215  0.5227 -0.1019  0.2642
    51IDQ   C33  393   2.306  -0.251   4.357 -0.2116  1.2644 -0.5380
    51IDQ   C34  394   2.252  -0.118   4.390 -0.5527 -1.5335  0.1369
    51IDQ   C35  395   2.185  -0.132   4.516  0.3997 -0.6927  0.7254
    4IDB    C36  396   2.257  -0.423   3.477 -0.5906 -0.1628  0.0265
    4IDB    C37  397   2.342  -0.504   3.395 -0.6692 -0.3262  0.1056
    11RH    C38  398   1.682   0.244   4.831 -1.2547 -0.3356 -0.0641
    4IDB    C39  399   2.480  -0.506   3.415 -0.6338 -0.1675 -0.1228
    62IDT   C40  400   2.540  -0.593   3.308 -0.1289  0.1464 -0.3894
    72IDQ   C41  401   2.303  -0.586   3.273  0.2366  0.6153 -0.1525
    62IDT   C42  402   2.442  -0.634   3.220  0.2464  2.0921 -1.7859
    72IDQ   C43  403   2.226  -0.481   3.179  0.1135  1.0487 -0.0833
    72IDQ   C44  404   2.229  -0.726   3.308  0.4422  0.5322 -0.8000
    62IDT    S5  405   2.702  -0.654   3.261 -0.2465 -0.6901  0.2735
    62IDT   C45  406   2.625  -0.736   3.118  0.2416  1.7538 -1.4566
    62IDT   C46  407   2.490  -0.715   3.113  0.4565  3.0031 -2.3911
    82BTZ   C47  408   2.698  -0.827   3.031 -0.5631 -0.0874  0.3087
    82BTZ   C48  409   2.812  -0.888   3.078 -0.5016 -0.0012  0.2718
    82BTZ   C49  410   2.888  -0.980   2.997 -0.3493  0.2048  0.1785
    82BTZ   C50  411   2.850  -1.011   2.869 -0.2588  0.3244  0.1221
    82BTZ   C51  412   2.655  -0.856   2.898 -0.4728  0.0319  0.2521
    82BTZ   C52  413   2.732  -0.950   2.815 -0.3179  0.2415  0.1574
    92RH    C53  414   2.947  -1.079   2.779  0.0712  0.0796 -0.5268
    82BTZ    N4  415   2.546  -0.803   2.841 -0.5202 -0.0348  0.2804
    82BTZ    N5  416   2.685  -0.972   2.692 -0.2408  0.3431  0.1094
    82BTZ    S6  417   2.537  -0.873   2.676 -0.3654  0.1717  0.1848
    92RH    C54  418   3.071  -1.125   2.796 -0.1166 -0.2995 -0.1513
    92RH     S7  419   3.179  -1.101   2.942 -0.3707 -0.3650  0.0473
    92RH    C55  420   3.143  -1.206   2.694 -0.1475 -0.7379  0.1714
    92RH     O2  421   3.097  -1.240   2.583 -0.0064 -0.8063  0.1339
    92RH     N6  422   3.272  -1.241   2.737 -0.3613 -1.0803  0.5373
    92RH    C56  423   3.313  -1.199   2.862 -0.5054 -0.9689  0.5469
    92RH    C57  424   3.359  -1.341   2.671  0.4224  0.8948  0.3183
    92RH    C58  425   3.343  -1.481   2.734  0.6169 -0.7775  1.0877
    92RH     S8  426   3.462  -1.227   2.937 -0.7675 -1.3108  0.9414
    72IDQ   C59  427   2.086  -0.741   3.325  1.3936  0.3711  1.1683
    72IDQ   C60  428   2.025  -0.659   3.420  0.8144  0.2941  0.6580
    72IDQ   C61  429   1.872  -0.677   3.405  1.6812 -0.8760  0.2708
    72IDQ   C62  430   1.789  -0.606   3.498  0.5719 -0.6354  0.0388
    72IDQ   C63  431   1.626  -0.602   3.479  0.4776 -1.0857 -0.0554
    72IDQ   C64  432   1.570  -0.625   3.625 -0.5354 -0.1789 -0.7113
    72IDQ   C65  433   1.431  -0.684   3.651  0.1041  0.4868  0.1669
    72IDQ   C66  434   2.203  -0.515   3.030  0.3841  0.1383  0.2563
    72IDQ   C67  435   2.239  -0.432   2.905 -0.0863  0.8179  1.3724
    72IDQ   C68  436   2.274  -0.504   2.778 -0.6672  1.5093  0.9042
    72IDQ   C69  437   2.433  -0.514   2.776 -0.4415 -1.4355 -0.5234
    72IDQ   C70  438   2.491  -0.369   2.751  0.5148 -0.3390  0.0677
    72IDQ   C71  439   2.472  -0.307   2.621  0.4254 -0.4191  0.0302
    72IDQ   C72  440   2.561  -0.182   2.642  0.6533  0.7148 -0.5134
    11RH     C1  441   2.470   3.234   6.958  0.0546 -0.7664  0.1378
    11RH     C2  442   2.354   3.245   6.866 -0.1150 -0.4421  0.3886
    11RH     N1  443   2.462   3.118   7.038  0.0291 -0.8735 -0.0218
    11RH     S1  444   2.242   3.102   6.890 -0.2968 -0.2990  0.3987
    11RH     C3  445   2.354   3.034   7.021 -0.1398 -0.6747  0.0710
    11RH     C4  446   2.576   3.081   7.119 -0.5666  0.5403 -0.3087
    11RH     S2  447   2.321   2.890   7.102 -0.2053 -0.7447 -0.0792
    11RH     O1  448   2.563   3.316   6.966  0.2017 -0.9288  0.0706
    11RH     C5  449   2.337   3.346   6.780 -0.1279 -0.2856  0.5741
    21BTZ    C6  450   2.235   3.390   6.690  0.1112  0.1174  0.2150
    21BTZ    C7  451   2.134   3.310   6.644  0.4021 -0.1482  0.0346
    21BTZ    C8  452   2.247   3.524   6.640 -0.1674  0.1576  0.2575
    21BTZ    C9  453   2.040   3.357   6.545  0.4343 -0.3862 -0.1121
    21BTZ   C10  454   2.046   3.484   6.494  0.1752 -0.3582 -0.0778
    21BTZ   C11  455   2.151   3.572   6.540 -0.1347 -0.0842  0.1090
    21BTZ    N2  456   2.341   3.610   6.678 -0.4635  0.4060  0.4280
    21BTZ    N3  457   2.167   3.697   6.498 -0.4046 -0.0304  0.1593
    21BTZ    S3  458   2.310   3.761   6.586 -0.7185  0.3397  0.4046
    31IDT   C12  459   1.940   3.525   6.390 -0.1041 -0.5134 -0.4737
    31IDT   C13  460   1.969   3.592   6.274 -0.2326 -0.3881 -0.4339
    31IDT   C14  461   1.875   3.566   6.170 -0.7043  0.2201 -0.1636
    31IDT   C15  462   1.774   3.479   6.206 -0.9380  0.5616  0.0043
    31IDT    S4  463   1.790   3.424   6.375 -0.5754  0.1357 -0.1687
    4IDB    C16  464   1.670   3.479   6.115  0.2861 -0.0042 -0.2836
    4IDB    C17  465   1.713   3.542   5.995 -0.1296  0.4668 -0.1895
    51IDQ   C18  466   1.860   3.596   6.017 -0.6090 -0.7340 -0.6831
    4IDB    C19  467   1.631   3.546   5.883 -0.2999  0.4164 -0.0668
    51IDQ   C20  468   1.969   3.550   5.907  0.9428 -0.1665  1.6551
    51IDQ   C21  469   1.867   3.760   6.012 -0.8308  0.0610 -0.4399
    51IDQ   C22  470   1.749   3.854   6.045 -0.0343  0.6977 -0.3911
    51IDQ   C23  471   2.065   3.455   5.954 -1.7489  0.4982 -0.9532
    51IDQ   C24  472   1.751   4.005   6.056  1.0384  0.5546 -0.1194
    51IDQ   C25  473   1.797   4.092   5.952  0.0442 -0.1506 -0.0334
    51IDQ   C26  474   1.740   4.106   5.811 -0.1359  0.3637  0.0621
    51IDQ   C27  475   1.693   4.244   5.747 -0.3615 -0.7818 -0.0845
    51IDQ   C28  476   1.813   4.342   5.699  0.9453  0.5726 -0.3714
    51IDQ   C29  477   1.943   4.370   5.777 -1.1286  0.8331 -0.8423
    51IDQ   C30  478   2.178   3.440   5.841 -0.7472  0.7272 -1.1509
    51IDQ   C31  479   2.280   3.325   5.837 -0.7551 -0.8139  0.0172
    51IDQ   C32  480   2.314   3.256   5.979 -2.4919 -0.0712 -0.9984
    51IDQ   C33  481   2.424   3.336   6.070  0.4568  0.8142  0.1472
    51IDQ   C34  482   2.339   3.440   6.150  0.1007  0.1594 -0.0289
    51IDQ   C35  483   2.421   3.562   6.184 -0.9706  0.1967  0.0284
    4IDB    C36  484   1.543   3.419   6.124  0.5352 -0.5314 -0.2563
    4IDB    C37  485   1.460   3.424   6.008  0.3559 -0.5752 -0.1307
    11RH    C38  486   2.576   3.129   7.267  0.2712 -1.3806  1.8043
    4IDB    C39  487   1.504   3.486   5.891 -0.0507 -0.1109 -0.0397
    62IDT   C40  488   1.386   3.513   5.808  0.2109 -0.1283 -0.2252
    72IDQ   C41  489   1.299   3.400   5.993 -1.0075 -0.2270  0.0639
    62IDT   C42  490   1.267   3.466   5.859  0.3846 -0.3394 -0.0112
    72IDQ   C43  491   1.228   3.459   6.120 -0.1328  1.2084 -0.5610
    72IDQ   C44  492   1.262   3.248   6.005 -0.2036 -0.3088  0.3048
    62IDT    S5  493   1.362   3.615   5.662 -0.2425 -0.0500 -0.0959
    62IDT   C45  494   1.183   3.586   5.678 -0.1695 -0.3200  0.2582
    62IDT   C46  495   1.152   3.507   5.785  0.1699 -0.4479  0.2623
    82BTZ   C47  496   1.101   3.642   5.568 -0.3282 -0.2800  0.6082
    82BTZ   C48  497   1.166   3.677   5.453  0.0425 -0.2033  0.8388
    82BTZ   C49  498   1.096   3.735   5.341  0.4225 -0.0123  0.6990
    82BTZ   C50  499   0.961   3.759   5.344  0.4313  0.1018  0.3293
    82BTZ   C51  500   0.959   3.665   5.577 -0.3350 -0.1664  0.2184
    82BTZ   C52  501   0.888   3.724   5.463  0.0512  0.0278  0.0763
    92RH    C53  502   0.883   3.811   5.233 -0.4013  0.2983 -0.0749
    82BTZ    N4  503   0.885   3.635   5.684 -0.6765 -0.2253 -0.0336
    82BTZ    N5  504   0.757   3.742   5.479  0.0201  0.1251 -0.2894
    82BTZ    S6  505   0.717   3.683   5.643 -0.5153 -0.0309 -0.4723
    92RH    C54  506   0.909   3.853   5.109 -0.3360  0.0982 -0.1297
    92RH     S7  507   1.071   3.846   5.023 -0.3184 -0.1511 -0.0771
    92RH    C55  508   0.808   3.915   5.021 -0.2657  0.0468 -0.2453
    92RH     O2  509   0.688   3.934   5.050 -0.2590  0.1802 -0.3045
    92RH     N6  510   0.863   3.950   4.896 -0.2054 -0.1767 -0.2827
    92RH    C56  511   0.997   3.925   4.874 -0.2189 -0.3108 -0.2108
    92RH    C57  512   0.778   4.027   4.810  0.2959 -0.9194  0.9689
    92RH    C58  513   0.692   3.928   4.731  1.3428  0.3866 -0.6820
    92RH     S8  514   1.086   3.957   4.734 -0.1573 -0.5811 -0.2346
    72IDQ   C59  515   1.347   3.132   5.951 -0.1793 -0.5963 -0.0084
    72IDQ   C60  516   1.267   3.097   5.813  0.1671  0.3451  0.6215
    72IDQ   C61  517   1.342   3.009   5.716  0.1435 -0.5474 -0.3826
    72IDQ   C62  518   1.252   2.944   5.603 -1.0753 -1.0881  1.0354
    72IDQ   C63  519   1.265   2.980   5.449  0.1241  0.5250 -0.7870
    72IDQ   C64  520   1.309   3.124   5.411 -0.5698  0.3643 -1.1426
    72IDQ   C65  521   1.234   3.215   5.333  0.8358  0.7218  0.6174
    72IDQ   C66  522   1.226   3.613   6.121  0.0002 -0.3974 -0.9757
    72IDQ   C67  523   1.132   3.665   6.242 -0.7227  0.9572  0.5541
    72IDQ   C68  524   1.206   3.678   6.375 -0.9585 -0.1563  0.6214
    72IDQ   C69  525   1.087   3.736   6.453 -0.1092  0.1767 -0.2129
    72IDQ   C70  526   1.108   3.779   6.590  0.0627  0.3648 -0.3434
    72IDQ   C71  527   1.135   3.662   6.694 -0.8843 -0.3406  0.3440
    72IDQ   C72  528   1.273   3.620   6.676 -0.0619 -0.3248  1.0610
    11RH     C1  529   4.983   4.777   1.398 -0.0527 -0.1578  0.0240
    11RH     C2  530   5.025   4.851   1.520  0.1993 -0.3409  0.0510
    11RH     N1  531   4.848   4.737   1.406 -0.2048  0.3377 -0.0106
    11RH     S1  532   4.883   4.862   1.636  0.2198  0.1503  0.0289
    11RH     C3  533   4.776   4.769   1.518 -0.1054  0.5734 -0.0148
    11RH     C4  534   4.778   4.713   1.271  0.9746  0.4294 -0.7223
    11RH     S2  535   4.615   4.733   1.552 -0.2463  1.1582 -0.0530
    11RH     O1  536   5.056   4.752   1.301 -0.1259 -0.4001  0.0304
    11RH     C5  537   5.147   4.900   1.539  0.3792 -0.7982  0.0858
    21BTZ    C6  538   5.223   4.972   1.641 -0.2689  0.3228  0.0285
    21BTZ    C7  539   5.170   4.986   1.767 -0.4508  0.5381 -0.0722
    21BTZ    C8  540   5.335   5.053   1.604 -0.0107  0.0317  0.1602
    21BTZ    C9  541   5.224   5.080   1.862 -0.3889  0.4797 -0.0486
    21BTZ   C10  542   5.330   5.161   1.831 -0.1446  0.2052  0.0755
    21BTZ   C11  543   5.389   5.150   1.701  0.0525 -0.0279  0.1842
    21BTZ    N2  544   5.395   5.049   1.485  0.1829 -0.1965  0.2662
    21BTZ    N3  545   5.493   5.222   1.659  0.2968 -0.3042  0.3095
    21BTZ    S3  546   5.527   5.170   1.491  0.4603 -0.5034  0.4040
    31IDT   C12  547   5.374   5.251   1.925  0.3465 -0.8840 -0.3396
    31IDT   C13  548   5.335   5.381   1.938 -0.1032 -0.9286 -1.2199
    31IDT   C14  549   5.428   5.461   2.010 -0.4780 -0.1628 -1.5675
    31IDT   C15  550   5.539   5.392   2.053 -0.3169  0.4698 -0.9562
    31IDT    S4  551   5.535   5.219   2.005  0.3282  0.1411  0.1171
    4IDB    C16  552   5.617   5.475   2.139 -0.3343  0.1551 -0.3088
    4IDB    C17  553   5.561   5.606   2.143 -0.4020  0.1116  0.2755
    51IDQ   C18  554   5.441   5.613   2.072  0.0089 -0.4621  0.8933
    4IDB    C19  555   5.624   5.709   2.213 -0.2055 -0.0500  0.3374
    51IDQ   C20  556   5.335   5.677   2.168 -0.9918  1.6070 -1.9812
    51IDQ   C21  557   5.449   5.719   1.965 -0.9557 -1.9031  0.7385
    51IDQ   C22  558   5.554   5.719   1.852 -1.1707 -1.1821  0.0907
    51IDQ   C23  559   5.237   5.580   2.233 -0.7214  0.3930 -0.9228
    51IDQ   C24  560   5.463   5.753   1.732  0.6187 -0.2443  0.1915
    51IDQ   C25  561   5.531   5.706   1.600  0.5895 -0.0193  0.0876
    51IDQ   C26  562   5.495   5.793   1.485 -0.3177  0.0034  0.6507
    51IDQ   C27  563   5.590   5.893   1.422  0.2268  1.1715 -0.8905
    51IDQ   C28  564   5.527   6.016   1.363  0.1544  0.5225  1.0898
    51IDQ   C29  565   5.428   6.008   1.250 -0.7105  0.2345 -0.4948
    51IDQ   C30  566   5.125   5.499   2.159  0.2357  0.3469  1.0644
    51IDQ   C31  567   5.045   5.543   2.040  0.7234  0.7822  0.9623
    51IDQ   C32  568   4.892   5.496   2.018 -0.8060 -1.7692  0.1446
    51IDQ   C33  569   4.881   5.346   2.036 -0.1138 -0.4358 -0.7627
    51IDQ   C34  570   4.779   5.297   1.937  0.9587  0.0476  0.0045
    51IDQ   C35  571   4.854   5.247   1.813  0.5631  0.4226  0.1117
    4IDB    C36  572   5.738   5.445   2.205 -0.0675  0.0370 -0.8376
    4IDB    C37  573   5.800   5.552   2.276  0.1309 -0.1273 -0.7654
    11RH    C38  574   4.678   4.807   1.196 -0.0509 -0.1348  1.1943
    4IDB    C39  575   5.744   5.679   2.279  0.0614 -0.1679 -0.1914
    62IDT   C40  576   5.832   5.771   2.341  0.8052 -0.2204 -0.2144
    72IDQ   C41  577   5.926   5.548   2.366 -0.5242 -0.5622  0.4645
    62IDT   C42  578   5.939   5.702   2.395  1.5287  0.4938 -0.7144
    72IDQ   C43  579   6.051   5.492   2.298  0.1285 -0.0763 -0.6597
    72IDQ   C44  580   5.898   5.508   2.507  1.2332 -0.1050 -0.5338
    62IDT    S5  581   5.853   5.949   2.356 -0.5137 -0.0746  0.0459
    62IDT   C45  582   6.013   5.919   2.437  0.0084  0.9965 -0.5648
    62IDT   C46  583   6.041   5.786   2.449  1.0793  1.1826 -0.9131
    82BTZ   C47  584   6.088   6.029   2.487  0.6103  0.6145 -1.4806
    82BTZ   C48  585   6.024   6.150   2.504  0.4482  0.4890 -1.1864
    82BTZ   C49  586   6.082   6.255   2.584 -0.0670  0.0882 -0.2679
    82BTZ   C50  587   6.203   6.240   2.646 -0.4187 -0.1861  0.3549
    82BTZ   C51  588   6.214   6.009   2.551  0.2558  0.3383 -0.8537
    82BTZ   C52  589   6.273   6.116   2.632 -0.2675 -0.0691  0.0799
    92RH    C53  590   6.258   6.347   2.730  0.5765  0.2980 -0.7657
    82BTZ    N4  591   6.286   5.896   2.542  0.3686  0.4253 -1.0599
    82BTZ    N5  592   6.391   6.090   2.688 -0.5758 -0.3090  0.6241
    82BTZ    S6  593   6.434   5.924   2.639 -0.2021 -0.0190 -0.0479
    92RH    C54  594   6.194   6.456   2.773  0.3812  0.1025 -0.5552
    92RH     S7  595   6.015   6.490   2.760  0.3200 -0.1934 -0.4897
    92RH    C55  596   6.262   6.570   2.839  0.1779  0.0970 -0.3355
    92RH     O2  597   6.384   6.578   2.863  0.1643  0.2685 -0.3203
    92RH     N6  598   6.171   6.672   2.874 -0.0042 -0.1321 -0.1397
    92RH    C56  599   6.038   6.654   2.843  0.0286 -0.3104 -0.1754
    92RH    C57  600   6.215   6.804   2.929  0.1508  0.8439 -0.1845
    92RH    C58  601   6.232   6.919   2.827 -0.0249  0.6101  0.7065
    92RH     S8  602   5.909   6.758   2.873 -0.1590 -0.5965  0.0267
    72IDQ   C59  603   5.824   5.388   2.565  0.8026  0.2710  0.6011
    72IDQ   C60  604   5.760   5.402   2.698  1.1233  0.6405 -0.4308
    72IDQ   C61  605   5.838   5.482   2.814  0.4474  1.0130  0.2034
    72IDQ   C62  606   5.805   5.628   2.849 -0.5933  1.2440  0.5558
    72IDQ   C63  607   5.707   5.652   2.969 -0.0062  0.3722 -0.7829
    72IDQ   C64  608   5.740   5.715   3.105 -0.2000  1.2325  0.4395
    72IDQ   C65  609   5.835   5.630   3.179  1.0570  0.0211 -1.9501
    72IDQ   C66  610   6.119   5.545   2.177 -0.1485 -0.3134 -0.4278
    72IDQ   C67  611   6.046   5.579   2.043 -1.0619  0.7460 -0.4036
    72IDQ   C68  612   6.117   5.634   1.921 -0.0475 -0.8034  0.7867
    72IDQ   C69  613   6.077   5.778   1.932  0.2515 -0.1515 -0.8714
    72IDQ   C70  614   6.169   5.872   2.018 -1.2969  0.0917  0.5529
    72IDQ   C71  615   6.308   5.927   1.984 -0.3277 -0.2182 -0.1739
    72IDQ   C72  616   6.356   5.907   1.837  0.4822  0.0512  0.8886
    11RH     C1  617   1.062   2.179   3.107  0.2595  0.0807  0.3694
    11RH     C2  618   1.093   2.083   3.215  0.6776  0.0179  0.1981
    11RH     N1  619   1.180   2.224   3.043  0.0157  0.1245 -0.0524
    11RH     S1  620   1.274   2.057   3.226  0.7228  0.0204 -0.5070
    11RH     C3  621   1.301   2.175   3.087  0.1873  0.1044 -0.5410
    11RH     C4  622   1.188   2.345   2.954 -0.3944  0.4352 -0.0699
    11RH     S2  623   1.455   2.212   3.028 -0.0355  0.1467 -1.1045
    11RH     O1  624   0.949   2.218   3.074  0.1315  0.0945  0.8233
    11RH     C5  625   0.999   2.025   3.291  0.9691 -0.0319  0.5214
    21BTZ    C6  626   0.991   1.927   3.396  0.3995 -0.3572 -0.4262
    21BTZ    C7  627   1.092   1.860   3.458  0.3418 -0.5435 -0.5332
    21BTZ    C8  628   0.856   1.882   3.415  0.3360 -0.1043 -0.2763
    21BTZ    C9  629   1.067   1.745   3.542  0.2195 -0.4911 -0.4989
    21BTZ   C10  630   0.940   1.699   3.564  0.1552 -0.2525 -0.3573
    21BTZ   C11  631   0.830   1.766   3.501  0.2117 -0.0511 -0.2413
    21BTZ    N2  632   0.749   1.940   3.360  0.3824  0.0929 -0.1624
    21BTZ    N3  633   0.702   1.730   3.514  0.1583  0.1889 -0.0992
    21BTZ    S3  634   0.607   1.846   3.416  0.2670  0.3606 -0.0022
    31IDT   C12  635   0.929   1.580   3.646 -0.7461 -0.9516 -0.4218
    31IDT   C13  636   0.827   1.528   3.721 -0.5663 -1.6339 -0.6452
    31IDT   C14  637   0.862   1.405   3.785  0.2412 -1.2143 -0.2663
    31IDT   C15  638   0.991   1.363   3.759  0.6815 -0.2118  0.2471
    31IDT    S4  639   1.078   1.477   3.651  0.1020  0.2831  0.2911
    4IDB    C16  640   1.017   1.245   3.831 -0.6723  0.3317  0.1179
    4IDB    C17  641   0.904   1.202   3.908 -0.2290  0.1436  0.6696
    51IDQ   C18  642   0.794   1.320   3.891  1.1936  1.1474 -0.3925
    4IDB    C19  643   0.913   1.093   3.993  0.2398 -0.1339  0.2691
    51IDQ   C20  644   0.666   1.236   3.833  1.3458 -0.2804 -0.6368
    51IDQ   C21  645   0.753   1.394   4.018 -0.5894 -0.0605  0.3428
    51IDQ   C22  646   0.803   1.366   4.168 -0.4369 -1.1860  1.1973
    51IDQ   C23  647   0.637   1.258   3.692  0.6230  1.0605  0.9016
    51IDQ   C24  648   0.777   1.469   4.278  0.1470  0.5537  0.6610
    51IDQ   C25  649   0.878   1.406   4.377 -0.3989  0.2366 -0.4592
    51IDQ   C26  650   1.030   1.418   4.393 -1.1520 -0.5374  0.4549
    51IDQ   C27  651   1.144   1.496   4.319 -0.4424 -0.4634 -0.9716
    51IDQ   C28  652   1.157   1.493   4.158 -0.9192  0.6698  0.0817
    51IDQ   C29  653   1.088   1.615   4.091 -0.6696  0.3727  0.2132
    51IDQ   C30  654   0.545   1.154   3.628 -0.3995 -0.4164 -0.6408
    51IDQ   C31  655   0.588   1.005   3.631  0.5194  1.3783  1.2463
    51IDQ   C32  656   0.730   0.961   3.614  1.8173  0.4476 -1.7908
    51IDQ   C33  657   0.749   0.808   3.590 -0.0380 -1.1015 -0.0586
    51IDQ   C34  658   0.718   0.706   3.695 -0.6865  0.9675 -0.2214
    51IDQ   C35  659   0.763   0.742   3.835  0.6254  0.9906 -1.4731
    4IDB    C36  660   1.140   1.178   3.840 -0.6488  0.2424 -0.8439
    4IDB    C37  661   1.147   1.066   3.927 -0.1665 -0.0420 -1.2411
    11RH    C38  662   1.155   2.269   2.810  0.4748  0.9899 -0.7657
    4IDB    C39  663   1.037   1.026   4.002  0.2633 -0.2232 -0.6927
    62IDT   C40  664   1.088   0.908   4.083 -0.7190  0.0810  0.1320
    72IDQ   C41  665   1.262   0.972   3.938  0.0104  0.2040  0.4257
    62IDT   C42  666   1.217   0.879   4.044 -0.9109 -0.0170 -0.4349
    72IDQ   C43  667   1.403   1.043   3.977  0.6696 -0.1796 -0.4280
    72IDQ   C44  668   1.285   0.892   3.791  0.8390 -1.1589  0.3352
    62IDT    S5  669   1.036   0.810   4.224 -0.0545  0.3703  0.5859
    62IDT   C45  670   1.199   0.729   4.222 -0.0720  0.3420 -0.0455
    62IDT   C46  671   1.280   0.777   4.123 -0.5454  0.1304 -0.5360
    82BTZ   C47  672   1.235   0.636   4.334 -0.5045 -0.3184 -0.2584
    82BTZ   C48  673   1.133   0.601   4.419 -0.4337 -0.5588 -0.2718
    82BTZ   C49  674   1.155   0.514   4.532 -0.2542 -0.5493 -0.2995
    82BTZ   C50  675   1.279   0.462   4.560 -0.1459 -0.2995 -0.3136
    82BTZ   C51  676   1.366   0.584   4.359 -0.3964 -0.0517 -0.2718
    82BTZ   C52  677   1.389   0.496   4.474 -0.2140 -0.0421 -0.3002
    92RH    C53  678   1.289   0.372   4.672  0.1066  0.6697  0.9448
    82BTZ    N4  679   1.473   0.611   4.283 -0.4506  0.1966 -0.2608
    82BTZ    N5  680   1.514   0.452   4.490 -0.1215  0.2140 -0.3116
    82BTZ    S6  681   1.610   0.523   4.357 -0.2666  0.4587 -0.2865
    92RH    C54  682   1.203   0.309   4.753 -0.0484  0.3488  0.5329
    92RH     S7  683   1.021   0.299   4.733  0.0088  0.2513  0.0355
    92RH    C55  684   1.245   0.235   4.875 -0.2985  0.0124  0.4151
    92RH     O2  685   1.361   0.222   4.916 -0.3926 -0.0123  0.6776
    92RH     N6  686   1.134   0.178   4.941 -0.4213 -0.2855 -0.0423
    92RH    C56  687   1.008   0.198   4.887 -0.3003 -0.2290 -0.3049
    92RH    C57  688   1.142   0.120   5.075  0.6716 -0.2998  0.0354
    92RH    C58  689   1.141  -0.039   5.072 -0.0882 -0.0328 -0.4708
    92RH     S8  690   0.861   0.141   4.946 -0.4048 -0.5359 -0.8547
    72IDQ   C59  691   1.170   0.875   3.689  0.4615  0.6566 -0.3786
    72IDQ   C60  692   1.180   0.745   3.618  0.6405 -0.3879  1.8611
    72IDQ   C61  693   1.123   0.769   3.465 -0.9367  0.1529 -0.3764
    72IDQ   C62  694   1.184   0.680   3.354  1.1820 -0.6594 -0.5613
    72IDQ   C63  695   1.145   0.535   3.376 -0.9479  0.5063 -0.7182
    72IDQ   C64  696   1.169   0.414   3.277 -0.0433 -0.7521  0.1403
    72IDQ   C65  697   1.324   0.389   3.268 -0.1494  0.4719 -0.7716
    72IDQ   C66  698   1.416   1.130   4.107 -0.1061  0.2245 -0.2220
    72IDQ   C67  699   1.439   1.074   4.246 -0.3572 -1.0724  0.7103
    72IDQ   C68  700   1.415   1.186   4.360 -0.4319  0.1057  1.0727
    72IDQ   C69  701   1.504   1.166   4.486 -1.2484 -0.5474 -0.2886
    72IDQ   C70  702   1.459   1.050   4.579  0.4427 -0.3507  0.4307
    72IDQ   C71  703   1.343   1.074   4.673 -0.4883  0.0737  0.4717
    72IDQ   C72  704   1.347   0.961   4.768 -0.4534  0.9412 -0.2841
    11RH     C1  705   2.215   5.051   6.351 -0.1798  0.0148 -0.1574
    11RH     C2  706   2.084   5.103   6.396 -0.2207 -0.0620 -0.1876
    11RH     N1  707   2.267   5.127   6.244 -0.2077  0.0343 -0.1568
    11RH     S1  708   2.037   5.248   6.295 -0.2932 -0.1033 -0.2131
    11RH     C3  709   2.193   5.233   6.197 -0.2660 -0.0169 -0.1831
    11RH     C4  710   2.392   5.076   6.191  0.7863 -0.3160 -1.0148
    11RH     S2  711   2.231   5.339   6.072 -0.3091 -0.0076 -0.1881
    11RH     O1  712   2.275   4.953   6.399 -0.1273  0.0572 -0.1352
    11RH     C5  713   2.014   5.049   6.496 -0.2052 -0.0946 -0.1941
    21BTZ    C6  714   1.881   5.052   6.552  0.1684  0.8536  0.6656
    21BTZ    C7  715   1.819   5.174   6.537  0.0859  0.8206  0.7384
    21BTZ    C8  716   1.838   4.966   6.658 -0.0356  0.5968  0.3755
    21BTZ    C9  717   1.713   5.216   6.624 -0.1991  0.5362  0.5312
    21BTZ   C10  718   1.668   5.137   6.727 -0.4012  0.2847  0.2519
    21BTZ   C11  719   1.730   5.009   6.747 -0.3253  0.3076  0.1652
    21BTZ    N2  720   1.890   4.846   6.683  0.0193  0.6006  0.2787
    21BTZ    N3  721   1.695   4.923   6.843 -0.5032  0.0789 -0.1006
    21BTZ    S3  722   1.802   4.781   6.824 -0.3038  0.2269 -0.0928
    31IDT   C12  723   1.570   5.191   6.819 -0.5705 -0.1059  0.2083
    31IDT   C13  724   1.504   5.133   6.924 -1.6546  0.5248 -0.1171
    31IDT   C14  725   1.443   5.229   7.010 -1.7591  1.0853 -0.8056
    31IDT   C15  726   1.462   5.360   6.972 -0.7579  0.8852 -1.0097
    31IDT    S4  727   1.560   5.372   6.822  0.4055 -0.0360 -0.3391
    4IDB    C16  728   1.381   5.448   7.054  0.3264 -0.2427  0.3359
    4IDB    C17  729   1.336   5.383   7.173 -0.9273  0.0010  0.0187
    51IDQ   C18  730   1.371   5.234   7.156  0.5508 -0.3630  0.2184
    4IDB    C19  731   1.290   5.456   7.282 -0.3489  0.3312  0.0500
    51IDQ   C20  732   1.450   5.219   7.301 -0.5297  0.4248  0.7746
    51IDQ   C21  733   1.239   5.141   7.159 -0.0706  0.1503  0.7423
    51IDQ   C22  734   1.094   5.162   7.213  0.1433 -0.1656 -0.2020
    51IDQ   C23  735   1.610   5.202   7.286 -0.8721  0.7299 -1.0423
    51IDQ   C24  736   1.050   5.068   7.328  0.9985 -0.1300 -0.6683
    51IDQ   C25  737   1.137   4.998   7.441 -0.2805 -1.2770 -0.9357
    51IDQ   C26  738   1.190   5.088   7.560  0.3265  0.2701  1.8985
    51IDQ   C27  739   1.247   5.019   7.666 -0.0471 -1.3918 -1.0352
    51IDQ   C28  740   1.249   5.104   7.792  0.7058 -1.0383  1.5892
    51IDQ   C29  741   1.301   5.041   7.909 -1.5372  0.4984 -1.0085
    51IDQ   C30  742   1.712   5.320   7.236 -0.7977  0.0177 -0.4927
    51IDQ   C31  743   1.852   5.245   7.241  0.4426 -0.9535  1.1076
    51IDQ   C32  744   1.914   5.194   7.118  1.0758 -1.2078 -1.0220
    51IDQ   C33  745   2.055   5.236   7.110  0.3814 -0.3447  0.6963
    51IDQ   C34  746   2.134   5.183   6.985 -0.0777  0.8882  0.7169
    51IDQ   C35  747   2.059   5.185   6.840  0.3435  0.0505  0.0258
    4IDB    C36  748   1.378   5.588   7.043  2.1775 -0.1559  0.6885
    4IDB    C37  749   1.330   5.661   7.155  2.7437  0.1829  0.7151
    11RH    C38  750   2.503   5.175   6.221  0.1505 -1.0450  0.3979
    4IDB    C39  751   1.287   5.596   7.271  1.5021  0.4180  0.4025
    62IDT   C40  752   1.239   5.705   7.359 -0.4164 -0.3883  0.3308
    72IDQ   C41  753   1.312   5.815   7.160  0.5367  0.3257 -0.8127
    62IDT   C42  754   1.239   5.826   7.293  0.5943 -0.2241  0.6067
    72IDQ   C43  755   1.218   5.844   7.043 -0.8393 -0.6457  0.8706
    72IDQ   C44  756   1.456   5.892   7.161 -1.4821 -0.3607 -0.5243
    62IDT    S5  757   1.150   5.712   7.515 -1.0462 -0.2232 -0.0346
    62IDT   C45  758   1.115   5.888   7.481  0.1485  0.0734  0.2173
    62IDT   C46  759   1.168   5.929   7.362  0.9151  0.0370  0.5430
    82BTZ   C47  760   1.025   5.942   7.571 -0.3161 -0.0470  0.0335
    82BTZ   C48  761   0.905   5.990   7.526 -0.4581 -0.2220  0.2204
    82BTZ   C49  762   0.801   6.034   7.616 -0.4079 -0.4406  0.3832
    82BTZ   C50  763   0.817   6.029   7.752 -0.2159 -0.4843  0.3588
    82BTZ   C51  764   1.047   5.935   7.713 -0.1129 -0.0842  0.0004
    82BTZ   C52  765   0.941   5.979   7.805 -0.0618 -0.3066  0.1658
    92RH    C53  766   0.718   6.064   7.846  0.2513  0.1419  0.2617
    82BTZ    N4  767   1.159   5.890   7.769  0.0386  0.0732 -0.1749
    82BTZ    N5  768   0.969   5.969   7.935  0.1306 -0.3281  0.1235
    82BTZ    S6  769   1.134   5.902   7.946  0.2573 -0.0596 -0.1350
    92RH    C54  770   0.590   6.104   7.844  0.2108  0.0176  0.3411
    92RH     S7  771   0.493   6.157   7.698 -0.0004 -0.2909  0.3686
    92RH    C55  772   0.506   6.112   7.966  0.3356  0.1154  0.4215
    92RH     O2  773   0.542   6.084   8.081  0.4894  0.3197  0.4250
    92RH     N6  774   0.376   6.158   7.935  0.2581 -0.0543  0.4959
    92RH    C56  775   0.346   6.187   7.804  0.0864 -0.2763  0.4850
    92RH    C57  776   0.260   6.137   8.034  0.1757  0.8348  1.9607
    92RH    C58  777   0.238   6.260   8.126  0.2194  0.8764  0.6061
    92RH     S8  778   0.199   6.243   7.742 -0.0357 -0.5088  0.5623
    72IDQ   C59  779   1.597   5.825   7.164  0.0279 -0.2440 -0.6306
    72IDQ   C60  780   1.657   5.728   7.056  0.9784 -1.8934 -0.4334
    72IDQ   C61  781   1.678   5.793   6.932  0.6278 -1.8881 -0.3955
    72IDQ   C62  782   1.749   5.711   6.816  0.3192  0.1272  0.0299
    72IDQ   C63  783   1.757   5.723   6.659 -1.9476 -0.9195  1.2383
    72IDQ   C64  784   1.643   5.758   6.569 -0.0510  0.6351  2.7777
    72IDQ   C65  785   1.508   5.768   6.652  0.8020  0.6649  1.3728
    72IDQ   C66  786   1.234   5.983   6.980  0.2216 -0.1789 -0.4219
    72IDQ   C67  787   1.241   6.006   6.830  0.2440  0.7679  0.4898
    72IDQ   C68  788   1.275   6.126   6.761 -0.8437  0.8114  0.8467
    72IDQ   C69  789   1.287   6.121   6.613 -0.1821 -0.4530  0.2878
    72IDQ   C70  790   1.296   6.252   6.539 -0.7618  1.0800 -0.3493
    72IDQ   C71  791   1.173   6.320   6.489 -0.0454  0.1002 -0.5984
    72IDQ   C72  792   1.091   6.222   6.409  0.5414 -1.1190 -0.0647
    11RH     C1  793   0.463   6.604   0.840  0.3243  0.2933  0.3385
    11RH     C2  794   0.594   6.569   0.901  0.4017  0.2749  0.1625
    11RH     N1  795   0.365   6.627   0.938  0.3781 -0.0119  0.4639
    11RH     S1  796   0.578   6.568   1.084  0.5401 -0.1424  0.1734
    11RH     C3  797   0.400   6.614   1.071  0.4892 -0.2723  0.4100
    11RH     C4  798   0.217   6.658   0.926  0.4118  1.2900 -0.2278
    11RH     S2  799   0.303   6.636   1.207  0.5720 -0.6590  0.5323
    11RH     O1  800   0.440   6.613   0.718  0.2246  0.5417  0.3749
    11RH     C5  801   0.704   6.543   0.829  0.3717  0.5303  0.0205
    21BTZ    C6  802   0.836   6.467   0.855 -0.2095  0.1616 -0.0765
    21BTZ    C7  803   0.875   6.404   0.970 -0.2785  0.2594  0.0004
    21BTZ    C8  804   0.926   6.468   0.743 -0.1588  0.0324 -0.0368
    21BTZ    C9  805   1.003   6.339   0.982 -0.3011  0.2356  0.1193
    21BTZ   C10  806   1.092   6.337   0.878 -0.2546  0.1139  0.1611
    21BTZ   C11  807   1.056   6.402   0.755 -0.1817  0.0083  0.0840
    21BTZ    N2  808   0.900   6.526   0.626 -0.0901 -0.0706 -0.1034
    21BTZ    N3  809   1.135   6.407   0.647 -0.1314 -0.1140  0.1146
    21BTZ    S3  810   1.043   6.498   0.523 -0.0510 -0.2055 -0.0125
    31IDT   C12  811   1.227   6.264   0.890 -0.1231  0.0382 -0.2438
    31IDT   C13  812   1.303   6.216   0.787 -0.0648  0.2098 -0.2826
    31IDT   C14  813   1.422   6.150   0.831  0.0731  0.4184 -0.3405
    31IDT   C15  814   1.438   6.148   0.968  0.1207  0.4075 -0.3461
    31IDT    S4  815   1.302   6.230   1.052 -0.0066  0.1295 -0.2779
    4IDB    C16  816   1.572   6.118   1.002  0.2400  0.4435 -0.3147
    4IDB    C17  817   1.636   6.074   0.883  0.4337  1.0955 -0.4565
    51IDQ   C18  818   1.549   6.103   0.758 -1.0115  0.1203 -1.8613
    4IDB    C19  819   1.770   6.037   0.883  0.2920  0.5796 -0.3217
    51IDQ   C20  820   1.602   6.179   0.640  1.2547  0.4006  0.0810
    51IDQ   C21  821   1.502   5.968   0.680  0.5111 -0.6059 -0.7113
    51IDQ   C22  822   1.546   5.831   0.726 -0.5868  0.2609 -0.4978
    51IDQ   C23  823   1.541   6.311   0.604 -0.8983 -0.1935 -0.1372
    51IDQ   C24  824   1.461   5.733   0.648  1.3705  0.6143 -1.0185
    51IDQ   C25  825   1.489   5.602   0.718  0.1129  1.5999 -1.1321
    51IDQ   C26  826   1.438   5.463   0.675  0.4287 -0.3525  0.2878
    51IDQ   C27  827   1.524   5.369   0.750  0.1142  0.1352  1.2461
    51IDQ   C28  828   1.663   5.348   0.693  0.3554  0.5902 -1.0663
    51IDQ   C29  829   1.731   5.213   0.718  0.0957  1.4171  0.8434
    51IDQ   C30  830   1.539   6.349   0.462  0.5723 -0.8969  1.2787
    51IDQ   C31  831   1.513   6.243   0.370  1.5473  0.8266  0.5204
    51IDQ   C32  832   1.516   6.262   0.215  0.4817  0.8347  0.3742
    51IDQ   C33  833   1.565   6.392   0.173 -0.1355 -1.5255 -0.3964
    51IDQ   C34  834   1.602   6.411   0.023 -0.4256  0.1711  1.0054
    51IDQ   C35  835   1.480   6.393  -0.061  1.2411 -1.0040  0.4124
    4IDB    C36  836   1.642   6.125   1.124 -0.0988 -0.7362 -0.0356
    4IDB    C37  837   1.779   6.087   1.122 -0.2394 -1.2491  0.0988
    11RH    C38  838   0.149   6.534   0.889 -1.6425  1.4856  0.0214
    4IDB    C39  839   1.840   6.044   1.004 -0.0467 -0.6001 -0.0425
    62IDT   C40  840   1.983   6.037   1.026  0.3182  0.8968  0.3856
    72IDQ   C41  841   1.883   6.088   1.238 -0.1622  0.5154  0.7781
    62IDT   C42  842   2.004   6.075   1.157  0.5894  1.1230  0.2752
    72IDQ   C43  843   1.881   5.993   1.361  0.6442 -0.8602 -0.8412
    72IDQ   C44  844   1.899   6.228   1.318  0.5123  0.3852  1.4179
    62IDT    S5  845   2.137   6.010   0.938  0.1365 -0.4102  0.4453
    62IDT   C45  846   2.227   6.054   1.090  0.4520 -0.5898  0.3113
    62IDT   C46  847   2.142   6.085   1.193  0.6655  0.2830  0.2330
    82BTZ   C47  848   2.373   6.067   1.090 -0.2856  0.3374 -0.6749
    82BTZ   C48  849   2.444   5.974   1.020 -0.2687  0.3562 -0.6832
    82BTZ   C49  850   2.588   5.978   1.012 -0.2409  0.1354 -0.3223
    82BTZ   C50  851   2.660   6.076   1.074 -0.2300 -0.1041  0.0463
    82BTZ   C51  852   2.444   6.172   1.157 -0.2750  0.0906 -0.2962
    82BTZ   C52  853   2.590   6.177   1.149 -0.2468 -0.1340  0.0706
    92RH    C53  854   2.799   6.070   1.090  0.0624  0.0689  0.3981
    82BTZ    N4  855   2.386   6.269   1.228 -0.2894  0.0479 -0.2497
    82BTZ    N5  856   2.650   6.277   1.213 -0.2385 -0.3574  0.4120
    82BTZ    S6  857   2.519   6.372   1.289 -0.2670 -0.2886  0.2760
    92RH    C54  858   2.885   5.974   1.053  0.0676  0.1564  0.1849
    92RH     S7  859   2.844   5.819   0.964  0.0270  0.1896  0.1460
    92RH    C55  860   3.031   5.980   1.079  0.1085  0.2427 -0.0604
    92RH     O2  861   3.090   6.072   1.137  0.1421  0.2446 -0.0973
    92RH     N6  862   3.097   5.866   1.028  0.1048  0.3257 -0.2533
    92RH    C56  863   3.021   5.769   0.965  0.0662  0.3159 -0.1923
    92RH    C57  864   3.248   5.836   1.073  0.3418 -1.4342  0.2806
    92RH    C58  865   3.262   5.738   1.187  0.6162 -1.1440 -0.7544
    92RH     S8  866   3.075   5.625   0.897  0.0535  0.4027 -0.3855
    72IDQ   C59  867   1.856   6.362   1.254 -0.5763 -0.0090 -1.1246
    72IDQ   C60  868   1.910   6.486   1.315  0.6515  0.7449 -0.0463
    72IDQ   C61  869   2.060   6.457   1.384 -1.3190  0.3828  0.0739
    72IDQ   C62  870   2.117   6.590   1.434  0.7098 -0.0009  0.3848
    72IDQ   C63  871   2.271   6.599   1.454  0.8640  0.2621  1.6057
    72IDQ   C64  872   2.324   6.628   1.600 -0.3707 -0.0723  0.1830
    72IDQ   C65  873   2.386   6.771   1.623  0.1711  0.5110 -0.4585
    72IDQ   C66  874   1.844   5.848   1.342  0.2190  0.1722  0.6976
    72IDQ   C67  875   1.847   5.765   1.459 -0.9521 -0.6789 -0.0203
    72IDQ   C68  876   1.739   5.778   1.547 -0.1312 -0.2319  0.9942
    72IDQ   C69  877   1.660   5.652   1.554  1.3437 -0.4602  2.0707
    72IDQ   C70  878   1.563   5.656   1.675  0.4107 -0.2055 -0.4958
    72IDQ   C71  879   1.495   5.525   1.702  1.5310 -0.7827  0.2959
    72IDQ   C72  880   1.357   5.546   1.627 -0.8256  0.9118  0.5749
    11RH     C1  881   2.736   6.512   6.567 -0.0792 -0.1879 -0.3893
    11RH     C2  882   2.687   6.455   6.439 -0.2617 -0.3181 -0.2623
    11RH     N1  883   2.749   6.412   6.666 -0.1063 -0.0576 -0.2544
    11RH     S1  884   2.661   6.274   6.457 -0.4572 -0.2610  0.0268
    11RH     C3  885   2.716   6.282   6.633 -0.2882 -0.0677 -0.0346
    11RH     C4  886   2.779   6.460   6.803  0.5316  1.3791 -0.0315
    11RH     S2  887   2.722   6.146   6.732 -0.3588  0.0701  0.1600
    11RH     O1  888   2.764   6.631   6.587  0.0795 -0.1895 -0.5889
    11RH     C5  889   2.667   6.528   6.329 -0.2757 -0.4548 -0.3506
    21BTZ    C6  890   2.636   6.489   6.191 -0.1871  0.0233 -0.4352
    21BTZ    C7  891   2.596   6.362   6.158 -0.0504  0.0441 -0.6845
    21BTZ    C8  892   2.641   6.588   6.088  0.0299  0.1445 -0.3080
    21BTZ    C9  893   2.558   6.327   6.023  0.3042  0.1838 -0.8206
    21BTZ   C10  894   2.561   6.419   5.922  0.5214  0.3032 -0.7072
    21BTZ   C11  895   2.603   6.553   5.951  0.3903  0.2868 -0.4466
    21BTZ    N2  896   2.679   6.715   6.108 -0.0733  0.1378 -0.0656
    21BTZ    N3  897   2.610   6.651   5.861  0.5767  0.3946 -0.3152
    21BTZ    S3  898   2.667   6.796   5.949  0.2933  0.3170 -0.0028
    31IDT   C12  899   2.544   6.355   5.791 -0.2547 -0.0482 -0.1798
    31IDT   C13  900   2.462   6.256   5.744 -0.3003 -0.0014 -0.2000
    31IDT   C14  901   2.493   6.215   5.611 -0.4146  0.1156 -0.2632
    31IDT   C15  902   2.599   6.284   5.555 -0.4570  0.1589 -0.2910
    31IDT    S4  903   2.668   6.405   5.668 -0.3545  0.0540 -0.2392
    4IDB    C16  904   2.645   6.222   5.434 -1.1239 -0.1731  0.5652
    4IDB    C17  905   2.560   6.111   5.406 -0.1345 -0.9925  0.7446
    51IDQ   C18  906   2.438   6.115   5.507 -1.2098  0.8635  0.7513
    4IDB    C19  907   2.587   6.025   5.301  0.2728 -0.5247  0.4636
    51IDQ   C20  908   2.319   6.167   5.426 -0.1229  0.1352 -0.4478
    51IDQ   C21  909   2.405   5.982   5.566  0.7605  0.9136 -0.4672
    51IDQ   C22  910   2.496   5.856   5.607 -0.2583 -0.2110  0.9873
    51IDQ   C23  911   2.222   6.259   5.499  0.0154  0.5730  0.1586
    51IDQ   C24  912   2.512   5.744   5.519  0.2234  0.1365 -1.1362
    51IDQ   C25  913   2.655   5.689   5.491 -0.1046 -1.4731 -1.6122
    51IDQ   C26  914   2.663   5.567   5.397 -0.7341 -0.7237  0.5680
    51IDQ   C27  915   2.616   5.436   5.469  1.2523 -0.4413  0.8603
    51IDQ   C28  916   2.690   5.405   5.605  0.8142 -0.9461  0.3791
    51IDQ   C29  917   2.599   5.339   5.700 -0.3815  0.3719  0.0766
    51IDQ   C30  918   2.228   6.407   5.446 -0.7215  0.3834 -0.1768
    51IDQ   C31  919   2.139   6.437   5.330  1.0217 -0.2913  0.6700
    51IDQ   C32  920   2.222   6.407   5.210 -0.3555  0.7028  0.6657
    51IDQ   C33  921   2.166   6.455   5.077 -0.2680  1.4986 -1.2168
    51IDQ   C34  922   2.265   6.527   4.990  0.5577 -0.1324  0.2395
    51IDQ   C35  923   2.209   6.536   4.843  0.8425  0.4779 -0.3591
    4IDB    C36  924   2.759   6.248   5.356 -1.7148  1.1275  0.1016
    4IDB    C37  925   2.785   6.159   5.249 -1.2860  1.5891 -0.1798
    11RH    C38  926   2.915   6.432   6.852  0.2959 -0.4998 -0.7714
    4IDB    C39  927   2.701   6.051   5.223 -0.3184  0.7764  0.0002
    62IDT   C40  928   2.750   5.976   5.116  1.1643 -0.6312  0.5334
    72IDQ   C41  929   2.908   6.141   5.168 -1.1012 -0.2498 -0.1559
    62IDT   C42  930   2.874   6.021   5.077  1.2311 -1.1234  0.1771
    72IDQ   C43  931   3.023   6.086   5.258  0.6102 -0.6169 -0.4985
    72IDQ   C44  932   2.965   6.267   5.107  0.2362 -0.1126  0.0200
    62IDT    S5  933   2.698   5.831   5.024  0.0175 -0.0096  0.1767
    62IDT   C45  934   2.856   5.838   4.933 -0.3278 -0.4713 -0.4669
    62IDT   C46  935   2.934   5.943   4.974  0.3877 -1.0340 -0.3891
    82BTZ   C47  936   2.882   5.726   4.833  0.7999 -0.2634  0.2704
    82BTZ   C48  937   2.787   5.630   4.812  0.6356 -0.0920  0.2234
    82BTZ   C49  938   2.800   5.532   4.707  0.4351 -0.0207  0.1302
    82BTZ   C50  939   2.909   5.530   4.623  0.3988 -0.1210  0.0843
    82BTZ   C51  940   2.997   5.729   4.748  0.7696 -0.3736  0.2253
    82BTZ   C52  941   3.011   5.629   4.642  0.5656 -0.3011  0.1304
    92RH    C53  942   2.921   5.433   4.513 -0.0472  0.0754 -0.1175
    82BTZ    N4  943   3.096   5.818   4.759  0.9173 -0.5426  0.2639
    82BTZ    N5  944   3.122   5.638   4.567  0.5494 -0.4122  0.0932
    82BTZ    S6  945   3.214   5.777   4.631  0.7995 -0.6176  0.1793
    92RH    C54  946   2.840   5.342   4.457  0.0144  0.0014 -0.0865
    92RH     S7  947   2.682   5.278   4.526  0.1317 -0.1901  0.0048
    92RH    C55  948   2.867   5.277   4.326 -0.0042  0.0672 -0.1221
    92RH     O2  949   2.966   5.299   4.254 -0.0772  0.1950 -0.1848
    92RH     N6  950   2.766   5.186   4.292  0.0725 -0.0356 -0.0773
    92RH    C56  951   2.660   5.169   4.379  0.1507 -0.1750 -0.0091
    92RH    C57  952   2.774   5.086   4.172 -0.1714 -0.4614 -0.3220
    92RH    C58  953   2.859   4.960   4.172 -0.5175  0.4799  0.2820
    92RH     S8  954   2.527   5.067   4.361  0.2506 -0.3164  0.0553
    72IDQ   C59  955   3.017   6.273   4.962  1.1773 -1.4916 -0.1478
    72IDQ   C60  956   2.917   6.347   4.887  0.9961 -1.1545 -0.1313
    72IDQ   C61  957   2.908   6.317   4.735  0.0478 -0.0378  1.4291
    72IDQ   C62  958   2.881   6.176   4.680 -0.9436 -1.1058 -0.7766
    72IDQ   C63  959   2.836   6.193   4.526 -1.1946 -0.8668 -0.1241
    72IDQ   C64  960   2.900   6.271   4.405  0.4312 -0.7596  0.0822
    72IDQ   C65  961   2.969   6.407   4.410  1.1724  0.6489 -1.5397
    72IDQ   C66  962   2.997   5.949   5.341 -0.1227 -0.0967  0.9091
    72IDQ   C67  963   3.093   5.833   5.320  0.1204  1.2602 -0.5151
    72IDQ   C68  964   3.219   5.795   5.409  1.3156  1.1959  0.4311
    72IDQ   C69  965   3.177   5.733   5.538 -1.1581  0.3718 -1.0640
    72IDQ   C70  966   3.069   5.793   5.638  0.9805 -0.1534 -0.6962
    72IDQ   C71  967   3.101   5.921   5.737 -0.5952  0.0961  0.5020
    72IDQ   C72  968   3.231   5.912   5.811  0.8870  0.3911 -0.6202
    11RH     C1  969   5.800   1.177   1.353 -0.1638  0.6089 -0.3380
    11RH     C2  970   5.937   1.121   1.372 -0.3276  0.2320 -0.2567
    11RH     N1  971   5.795   1.263   1.242  0.0659  0.3715 -0.5361
    11RH     S1  972   6.048   1.186   1.242 -0.1684 -0.4100 -0.4457
    11RH     C3  973   5.909   1.284   1.169  0.1061 -0.1495 -0.6231
    11RH     C4  974   5.662   1.326   1.208  0.6717  0.0061 -0.4527
    11RH     S2  975   5.929   1.381   1.033  0.3617 -0.5224 -0.8553
    11RH     O1  976   5.702   1.152   1.425 -0.2167  1.0757 -0.2472
    11RH     C5  977   5.969   1.036   1.470 -0.5555  0.3572 -0.0721
    21BTZ    C6  978   6.094   0.977   1.519 -0.5071 -0.0185  0.8479
    21BTZ    C7  979   6.212   0.997   1.453 -0.5050 -0.0293  0.8484
    21BTZ    C8  980   6.084   0.866   1.610 -0.5496 -0.0771  0.7723
    21BTZ    C9  981   6.326   0.911   1.473 -0.5441 -0.0977  0.7750
    21BTZ   C10  982   6.322   0.804   1.559 -0.5852 -0.1552  0.7014
    21BTZ   C11  983   6.200   0.779   1.630 -0.5891 -0.1466  0.6977
    21BTZ    N2  984   5.975   0.836   1.680 -0.5560 -0.0731  0.7640
    21BTZ    N3  985   6.183   0.678   1.716 -0.6273 -0.1986  0.6295
    21BTZ    S3  986   6.016   0.691   1.777 -0.6138 -0.1600  0.6585
    31IDT   C12  987   6.431   0.699   1.552 -0.5725  0.1951  0.5416
    31IDT   C13  988   6.496   0.657   1.665 -0.3157  0.9468  0.6744
    31IDT   C14  989   6.625   0.603   1.637 -0.2136  1.1275  0.7889
    31IDT   C15  990   6.659   0.602   1.503 -0.3920  0.5164  0.7443
    31IDT    S4  991   6.528   0.671   1.401 -0.7051 -0.3433  0.5520
    4IDB    C16  992   6.805   0.556   1.492 -0.0553  0.5691 -0.0933
    4IDB    C17  993   6.866   0.549   1.621 -0.4518  0.1545  0.0758
    51IDQ   C18  994   6.748   0.578   1.729  0.1567 -1.1675  1.4501
    4IDB    C19  995   7.000   0.513   1.635 -0.5666 -0.1503  0.3933
    51IDQ   C20  996   6.729   0.446   1.822  0.2316  0.5440 -0.2848
    51IDQ   C21  997   6.772   0.712   1.826  0.5377  0.8120  0.2108
    51IDQ   C22  998   6.893   0.809   1.809 -0.1374 -0.8951 -0.8204
    51IDQ   C23  999   6.606   0.348   1.851 -0.4734  0.1220  0.5696
    51IDQ   C24 1000   6.863   0.954   1.784 -1.0593  1.1498  0.4479
    51IDQ   C25 1001   6.824   0.982   1.632  0.9654 -0.0888  0.5875
    51IDQ   C26 1002   6.807   1.124   1.593 -1.6026 -0.5084  0.6477
    51IDQ   C27 1003   6.666   1.154   1.557  0.7393 -0.7617 -0.2172
    51IDQ   C28 1004   6.664   1.254   1.438  0.6618  0.6074  0.4042
    51IDQ   C29 1005   6.554   1.353   1.426  0.6219  0.3200 -0.4071
    51IDQ   C30 1006   6.463   0.404   1.867 -0.3182 -0.8408 -0.1282
    51IDQ   C31 1007   6.425   0.463   2.009 -0.4046 -0.4199 -0.3339
    51IDQ   C32 1008   6.424   0.331   2.101  0.1999 -0.2867  0.3908
    51IDQ   C33 1009   6.290   0.234   2.075 -0.6765 -0.6267 -0.2823
    51IDQ   C34 1010   6.158   0.244   2.141  0.1152 -0.9406  1.5403
    51IDQ   C35 1011   6.078   0.369   2.132  0.1217 -0.5771  0.3718
    4IDB    C36 1012   6.878   0.526   1.376  0.2301  0.6816  0.0554
    4IDB    C37 1013   7.014   0.489   1.392  0.1073  0.3660  0.3800
    11RH    C38 1014   5.600   1.299   1.071  0.5476 -0.0674 -0.4923
    4IDB    C39 1015   7.073   0.483   1.519 -0.2812 -0.0377  0.5420
    62IDT   C40 1016   7.217   0.442   1.510  0.3792  0.9004 -0.6068
    72IDQ   C41 1017   7.128   0.484   1.298 -0.0558  0.9585  0.5898
    62IDT   C42 1018   7.250   0.427   1.377  0.6564  1.0547 -0.5569
    72IDQ   C43 1019   7.181   0.626   1.231 -0.5918 -0.4551 -0.4957
    72IDQ   C44 1020   7.081   0.425   1.159 -1.0710  0.9355  1.1531
    62IDT    S5 1021   7.352   0.396   1.618 -0.0999  0.0589 -0.3556
    62IDT   C45 1022   7.451   0.357   1.471  0.1101 -0.0450 -0.1881
    62IDT   C46 1023   7.382   0.379   1.354  0.5047  0.5205 -0.3201
    82BTZ   C47 1024   7.595   0.302   1.485  0.3571 -0.0002  0.0896
    82BTZ   C48 1025   7.645   0.285   1.612  0.6332  0.2713  0.0177
    82BTZ   C49 1026   7.785   0.262   1.635  0.7161  0.5199 -0.2226
    82BTZ   C50 1027   7.875   0.255   1.532  0.5229  0.4967 -0.3905
    82BTZ   C51 1028   7.685   0.296   1.374  0.1469 -0.0357 -0.0798
    82BTZ   C52 1029   7.827   0.272   1.398  0.2313  0.2170 -0.3240
    92RH    C53 1030   8.033   0.238   1.551  0.3260 -0.3252 -0.1951
    82BTZ    N4 1031   7.648   0.311   1.246 -0.1284 -0.2890 -0.0310
    82BTZ    N5 1032   7.905   0.267   1.289  0.0237  0.1669 -0.4715
    82BTZ    S6 1033   7.797   0.294   1.149 -0.2950 -0.2134 -0.3010
    92RH    C54 1034   8.127   0.263   1.642  0.2161 -0.3793 -0.0671
    92RH     S7 1035   8.105   0.355   1.800  0.0634 -0.3334 -0.1146
    92RH    C55 1036   8.268   0.219   1.629  0.2015 -0.4885  0.1395
    92RH     O2 1037   8.315   0.155   1.534  0.2872 -0.5419  0.2174
    92RH     N6 1038   8.345   0.259   1.740  0.0756 -0.5263  0.2410
    92RH    C56 1039   8.283   0.330   1.841 -0.0125 -0.4607  0.1408
    92RH    C57 1040   8.492   0.206   1.741 -0.5268  0.0677 -1.2975
    92RH    C58 1041   8.589   0.249   1.642 -0.3692 -0.1400 -0.2549
    92RH     S8 1042   8.352   0.389   1.983 -0.1674 -0.4863  0.2270
    72IDQ   C59 1043   7.089   0.269   1.162 -0.4971 -0.4367 -0.3655
    72IDQ   C60 1044   7.156   0.253   1.032 -0.8673  0.3308  0.2958
    72IDQ   C61 1045   7.244   0.124   0.993  0.8154 -0.1843 -0.6653
    72IDQ   C62 1046   7.358   0.095   1.081  1.5455  0.1151  0.8501
    72IDQ   C63 1047   7.442  -0.029   1.043  0.1302 -0.6208 -0.3567
    72IDQ   C64 1048   7.572  -0.011   0.982 -1.3146  1.5048 -0.4008
    72IDQ   C65 1049   7.670  -0.117   1.054 -0.9450  0.5078 -0.9082
    72IDQ   C66 1050   7.121   0.753   1.263  0.2160 -0.2872  0.5556
    72IDQ   C67 1051   7.153   0.810   1.391  0.1303  0.1368 -0.9402
    72IDQ   C68 1052   7.259   0.911   1.414 -0.1222 -0.0402  0.5389
    72IDQ   C69 1053   7.221   1.004   1.514 -0.1421 -1.3240  0.4738
    72IDQ   C70 1054   7.287   1.136   1.551 -0.1189 -0.3304  0.2910
    72IDQ   C71 1055   7.302   1.249   1.441 -0.7146 -0.1050  0.6739
    72IDQ   C72 1056   7.188   1.270   1.354  0.2142 -1.9367 -1.8343
    11RH     C1 1057   6.222   1.114   2.106  0.4206 -0.0099 -0.5151
    11RH     C2 1058   6.101   1.032   2.079  0.1271  0.3749 -0.3790
    11RH     N1 1059   6.341   1.041   2.082  0.1628 -0.5091 -0.2950
    11RH     S1 1060   6.152   0.865   2.023 -0.4693  0.0552  0.0295
    11RH     C3 1061   6.330   0.911   2.038 -0.3021 -0.5712  0.0008
    11RH     C4 1062   6.475   1.099   2.116 -1.0998  0.7779  1.2223
    11RH     S2 1063   6.454   0.803   2.002 -0.6838 -1.1209  0.3037
    11RH     O1 1064   6.222   1.232   2.146  0.8402  0.0835 -0.7870
    11RH     C5 1065   5.977   1.077   2.095  0.2859  0.8762 -0.5382
    21BTZ    C6 1066   5.843   1.002   2.096 -0.2538  0.2628 -0.8973
    21BTZ    C7 1067   5.822   0.867   2.086 -0.2632  0.2657 -0.9177
    21BTZ    C8 1068   5.732   1.087   2.127 -0.1583  0.2184 -0.4196
    21BTZ    C9 1069   5.692   0.809   2.106 -0.1805  0.2255 -0.4728
    21BTZ   C10 1070   5.582   0.886   2.135 -0.0880  0.1825 -0.0083
    21BTZ   C11 1071   5.599   1.028   2.147 -0.0741  0.1776  0.0325
    21BTZ    N2 1072   5.739   1.220   2.139 -0.1397  0.2111 -0.3519
    21BTZ    N3 1073   5.500   1.113   2.175  0.0122  0.1374  0.4638
    21BTZ    S3 1074   5.574   1.276   2.177 -0.0109  0.1505  0.3067
    31IDT   C12 1075   5.461   0.813   2.167 -0.1646 -0.0157  0.1309
    31IDT   C13 1076   5.402   0.790   2.289 -0.4761 -0.4403 -0.0979
    31IDT   C14 1077   5.281   0.715   2.278 -0.3815 -0.5203 -0.6568
    31IDT   C15 1078   5.247   0.680   2.149  0.0016 -0.1581 -0.8575
    31IDT    S4 1079   5.367   0.740   2.030  0.2750  0.3168 -0.3492
    4IDB    C16 1080   5.119   0.610   2.146 -0.0169 -0.0611  0.1212
    4IDB    C17 1081   5.066   0.598   2.277  0.1566  0.3268  0.2292
    51IDQ   C18 1082   5.178   0.656   2.376  1.6610 -0.8363 -0.8718
    4IDB    C19 1083   4.938   0.548   2.298  0.2071  0.3287  0.5501
    51IDQ   C20 1084   5.106   0.763   2.474  0.9562 -0.2179  0.9064
    51IDQ   C21 1085   5.208   0.531   2.472 -0.8914 -0.2979 -0.6661
    51IDQ   C22 1086   5.328   0.444   2.420 -0.3424 -0.1668 -0.0327
    51IDQ   C23 1087   5.109   0.911   2.484  0.3009  0.0266 -0.3729
    51IDQ   C24 1088   5.392   0.365   2.531 -0.6684  0.8023 -0.2704
    51IDQ   C25 1089   5.450   0.231   2.486 -0.8493  0.6337 -1.3121
    51IDQ   C26 1090   5.531   0.221   2.375 -1.1439  1.1644 -1.3871
    51IDQ   C27 1091   5.686   0.217   2.394  1.0427  1.6436  0.1680
    51IDQ   C28 1092   5.761   0.128   2.482 -0.6918 -0.3371  1.2017
    51IDQ   C29 1093   5.772  -0.002   2.400  0.5122  0.3275  1.2835
    51IDQ   C30 1094   4.981   0.999   2.529 -0.0544  0.2842  1.0623
    51IDQ   C31 1095   4.850   0.957   2.451 -0.0174  0.1587  1.3235
    51IDQ   C32 1096   4.820   0.931   2.297  0.1620 -0.6002 -0.6035
    51IDQ   C33 1097   4.792   1.052   2.193  0.7729  0.7778  1.6057
    51IDQ   C34 1098   4.671   1.137   2.236  1.4170  0.1976 -0.5487
    51IDQ   C35 1099   4.639   1.282   2.190  0.4506 -0.2572  0.2206
    4IDB    C36 1100   5.045   0.572   2.033 -0.1421 -0.4516  0.3353
    4IDB    C37 1101   4.914   0.521   2.056 -0.0885 -0.4435  0.6626
    11RH    C38 1102   6.532   1.181   2.004 -0.3536 -0.3677  0.7425
    4IDB    C39 1103   4.863   0.510   2.186  0.0821 -0.0619  0.7644
    62IDT   C40 1104   4.724   0.455   2.175 -0.3908 -0.6082 -0.3214
    72IDQ   C41 1105   4.806   0.490   1.952 -0.8259  1.0194  0.2304
    62IDT   C42 1106   4.682   0.452   2.044 -1.3225 -0.3452 -0.0367
    72IDQ   C43 1107   4.857   0.368   1.860 -0.7567  0.0578  1.0778
    72IDQ   C44 1108   4.763   0.608   1.870  1.7915 -0.0961 -0.5227
    62IDT    S5 1109   4.608   0.373   2.285  0.2572 -0.6033  0.3784
    62IDT   C45 1110   4.503   0.338   2.140 -0.8183 -0.2278  1.0519
    62IDT   C46 1111   4.557   0.386   2.024 -1.5657 -0.1298  0.7399
    82BTZ   C47 1112   4.395   0.262   2.152 -0.0668  0.5268 -0.2420
    82BTZ   C48 1113   4.399   0.151   2.232  0.2875  0.5044 -0.2859
    82BTZ   C49 1114   4.278   0.081   2.270  0.4845  0.2804 -0.0681
    82BTZ   C50 1115   4.154   0.123   2.228  0.3269  0.0791  0.1929
    82BTZ   C51 1116   4.268   0.310   2.105 -0.2439  0.3211  0.0278
    82BTZ   C52 1117   4.146   0.239   2.144 -0.0436  0.0934  0.2490
    92RH    C53 1118   4.030   0.068   2.279 -0.0910  0.1334  0.0351
    82BTZ    N4 1119   4.252   0.417   2.027 -0.5877  0.3206  0.0956
    82BTZ    N5 1120   4.031   0.289   2.097 -0.2265 -0.0901  0.4947
    82BTZ    S6 1121   4.076   0.432   1.999 -0.6719  0.0227  0.4528
    92RH    C54 1122   4.003  -0.033   2.363 -0.1302  0.2551  0.1704
    92RH     S7 1123   4.123  -0.153   2.433 -0.1660  0.3456  0.3873
    92RH    C55 1124   3.867  -0.064   2.413 -0.1513  0.3381  0.1644
    92RH     O2 1125   3.764  -0.001   2.384 -0.1355  0.3057  0.0358
    92RH     N6 1126   3.867  -0.175   2.499 -0.1924  0.4622  0.3251
    92RH    C56 1127   3.988  -0.238   2.524 -0.2068  0.4883  0.4597
    92RH    C57 1128   3.737  -0.230   2.546  0.9666  0.6224  1.3744
    92RH    C58 1129   3.692  -0.175   2.675 -0.3957  1.0891 -1.5616
    92RH     S8 1130   4.015  -0.372   2.623 -0.2544  0.6273  0.6629
    72IDQ   C59 1131   4.657   0.610   1.765  0.4043  0.4061 -0.3415
    72IDQ   C60 1132   4.649   0.740   1.686 -0.8088  0.1501 -0.4036
    72IDQ   C61 1133   4.507   0.736   1.620  0.3300 -0.1597  0.3009
    72IDQ   C62 1134   4.437   0.657   1.521  0.7328 -0.8231 -0.1796
    72IDQ   C63 1135   4.306   0.716   1.473 -0.7232 -0.4846  0.5038
    72IDQ   C64 1136   4.283   0.684   1.332  1.5122  0.6796 -0.1201
    72IDQ   C65 1137   4.161   0.767   1.314  0.9414 -0.8950  0.2772
    72IDQ   C66 1138   4.980   0.368   1.770 -0.5457  0.3908  0.0320
    72IDQ   C67 1139   4.987   0.263   1.691  0.2376 -0.8850 -0.1031
    72IDQ   C68 1140   5.135   0.223   1.677 -0.2776 -0.4069  0.3254
    72IDQ   C69 1141   5.138   0.091   1.586  0.1434  0.6221  0.7527
    72IDQ   C70 1142   5.281   0.056   1.549  0.2997 -0.0274  0.1136
    72IDQ   C71 1143   5.320  -0.039   1.434  0.7598 -1.4117  0.1207
    72IDQ   C72 1144   5.262  -0.178   1.405  0.6371  0.5662 -1.3565
    11RH     C1 1145   2.516   4.529   2.443 -0.0603  0.0730  0.0371
    11RH     C2 1146   2.625   4.591   2.522  0.0063 -0.0026  0.0052
    11RH     N1 1147   2.455   4.622   2.357 -0.1944  0.1785  0.2434
    11RH     S1 1148   2.641   4.768   2.477 -0.1117  0.0699  0.2484
    11RH     C3 1149   2.502   4.752   2.356 -0.2433  0.1967  0.3808
    11RH     C4 1150   2.345   4.590   2.266  0.5855 -0.7827  0.3016
    11RH     S2 1151   2.448   4.881   2.263 -0.3983  0.3140  0.6332
    11RH     O1 1152   2.481   4.410   2.450 -0.0074  0.0489 -0.0975
    11RH     C5 1153   2.699   4.524   2.612  0.1333 -0.1074 -0.1765
    21BTZ    C6 1154   2.831   4.538   2.682 -0.1688 -0.0554 -0.3327
    21BTZ    C7 1155   2.902   4.653   2.662 -0.1974 -0.0463 -0.3797
    21BTZ    C8 1156   2.897   4.426   2.743 -0.1576  0.0057 -0.2325
    21BTZ    C9 1157   3.041   4.664   2.699 -0.2160  0.0231 -0.3308
    21BTZ   C10 1158   3.109   4.560   2.757 -0.2061  0.0827 -0.2351
    21BTZ   C11 1159   3.038   4.438   2.781 -0.1765  0.0758 -0.1827
    21BTZ    N2 1160   2.839   4.309   2.768 -0.1301  0.0031 -0.1791
    21BTZ    N3 1161   3.093   4.329   2.837 -0.1643  0.1299 -0.0894
    21BTZ    S3 1162   2.964   4.206   2.843 -0.1273  0.0926 -0.0603
    31IDT   C12 1163   3.252   4.571   2.736 -0.4011  0.7958 -0.2589
    31IDT   C13 1164   3.354   4.492   2.779 -0.7677  0.1562 -0.5529
    31IDT   C14 1165   3.480   4.526   2.719 -0.6465 -0.3359 -0.5819
    31IDT   C15 1166   3.473   4.631   2.630 -0.1881 -0.0752 -0.3114
    31IDT    S4 1167   3.306   4.696   2.616  0.1285  0.8218  0.0044
    4IDB    C16 1168   3.606   4.649   2.567  0.2439 -0.1221 -0.3309
    4IDB    C17 1169   3.692   4.538   2.594 -0.1087 -0.4499 -0.5533
    51IDQ   C18 1170   3.631   4.478   2.724  0.1286  0.7435  0.2007
    4IDB    C19 1171   3.804   4.513   2.517  0.1017 -0.3499 -0.2794
    51IDQ   C20 1172   3.638   4.315   2.706  0.0426 -0.1771 -0.2123
    51IDQ   C21 1173   3.701   4.528   2.850 -0.2203 -1.9598  0.9270
    51IDQ   C22 1174   3.824   4.643   2.846  0.4887  0.7950 -0.2724
    51IDQ   C23 1175   3.533   4.211   2.697  0.0677 -0.0248 -0.0413
    51IDQ   C24 1176   3.854   4.666   3.005  0.4026  0.3360  1.4089
    51IDQ   C25 1177   3.933   4.561   3.086 -0.5356 -0.4402 -0.0554
    51IDQ   C26 1178   4.075   4.487   3.060  0.6539 -0.7241  1.8673
    51IDQ   C27 1179   4.187   4.583   3.030  0.8266  0.8546 -0.2532
    51IDQ   C28 1180   4.309   4.564   3.140 -1.3252 -0.5332 -1.0854
    51IDQ   C29 1181   4.441   4.585   3.075 -0.6889  1.2648 -0.0225
    51IDQ   C30 1182   3.511   4.134   2.836 -0.0360  0.4066  1.4421
    51IDQ   C31 1183   3.368   4.077   2.879 -0.0028  1.2180  0.8552
    51IDQ   C32 1184   3.285   4.005   2.779 -1.0121  0.3433  0.6773
    51IDQ   C33 1185   3.178   3.916   2.843  0.8194  1.0665 -0.2392
    51IDQ   C34 1186   3.166   3.769   2.806 -0.8674  0.6033  0.3220
    51IDQ   C35 1187   3.194   3.749   2.661 -0.7270 -0.4665 -0.0042
    4IDB    C36 1188   3.634   4.737   2.461  0.8128  0.3104  0.1698
    4IDB    C37 1189   3.749   4.711   2.383  1.0204  0.4063  0.4439
    11RH    C38 1190   2.210   4.553   2.346 -0.4740  0.2015  0.5677
    4IDB    C39 1191   3.832   4.602   2.411  0.6705  0.0824  0.2213
    62IDT   C40 1192   3.941   4.605   2.327 -0.0562 -0.0905 -0.8270
    72IDQ   C41 1193   3.788   4.763   2.238 -1.6428 -0.9537  0.4787
    62IDT   C42 1194   3.927   4.698   2.227  0.3783 -0.1345 -0.9290
    72IDQ   C43 1195   3.807   4.917   2.241  0.2597  0.8903 -0.3431
    72IDQ   C44 1196   3.667   4.706   2.140  0.8200  0.6755  0.0467
    62IDT    S5 1197   4.111   4.551   2.346 -0.0391  0.3254  0.3012
    62IDT   C45 1198   4.157   4.663   2.210  0.5847  0.4231  0.5895
    62IDT   C46 1199   4.049   4.731   2.160  0.7412  0.1559 -0.1284
    82BTZ   C47 1200   4.294   4.704   2.191  0.1318 -0.5312  0.2711
    82BTZ   C48 1201   4.382   4.689   2.295  0.3431 -0.0675  0.1630
    82BTZ   C49 1202   4.524   4.706   2.276  0.2370  0.6521 -0.0169
    82BTZ   C50 1203   4.578   4.738   2.154 -0.0802  0.9072 -0.0885
    82BTZ   C51 1204   4.345   4.738   2.062 -0.2031 -0.2892  0.2022
    82BTZ   C52 1205   4.489   4.756   2.043 -0.3109  0.4423  0.0193
    92RH    C53 1206   4.711   4.757   2.129 -0.3496  0.5152 -0.0155
    82BTZ    N4 1207   4.269   4.756   1.954 -0.4313 -0.6902  0.2944
    82BTZ    N5 1208   4.529   4.788   1.920 -0.6258  0.6287 -0.0353
    82BTZ    S6 1209   4.381   4.797   1.820 -0.8019 -0.1385  0.1483
    92RH    C54 1210   4.818   4.714   2.196 -0.4299  0.1886 -0.0957
    92RH     S7 1211   4.820   4.589   2.330 -0.6360 -0.2138 -0.4654
    92RH    C55 1212   4.956   4.763   2.171 -0.3610  0.1011  0.1106
    92RH     O2 1213   4.988   4.848   2.087 -0.2239  0.3152  0.3769
    92RH     N6 1214   5.049   4.700   2.257 -0.4722 -0.2636 -0.0331
    92RH    C56 1215   5.003   4.607   2.347 -0.6213 -0.4785 -0.3295
    92RH    C57 1216   5.207   4.721   2.242  1.5397 -0.3049 -0.7691
    92RH    C58 1217   5.275   4.837   2.328  1.4398 -0.2358 -1.1916
    92RH     S8 1218   5.092   4.519   2.460 -0.7744 -0.9181 -0.5511
    72IDQ   C59 1219   3.696   4.687   1.993  1.1552  0.3876 -0.1596
    72IDQ   C60 1220   3.585   4.621   1.929  0.0766 -0.8135 -0.6136
    72IDQ   C61 1221   3.604   4.578   1.785  1.3291  0.8616 -1.1602
    72IDQ   C62 1222   3.523   4.455   1.721  0.3022  0.6123  0.3755
    72IDQ   C63 1223   3.376   4.496   1.701 -1.9669  1.5566 -1.2357
    72IDQ   C64 1224   3.306   4.435   1.579  0.9005  0.4695 -0.4277
    72IDQ   C65 1225   3.228   4.563   1.528 -0.5201 -0.4323 -1.0390
    72IDQ   C66 1226   3.688   4.997   2.301 -0.1424 -0.0217  0.3273
    72IDQ   C67 1227   3.719   5.129   2.254 -0.9979 -0.9064 -0.2334
    72IDQ   C68 1228   3.638   5.185   2.137  1.1118  0.2011 -0.3629
    72IDQ   C69 1229   3.645   5.105   2.007 -0.0736 -0.7569  0.1213
    72IDQ   C70 1230   3.540   5.169   1.916  0.3965 -1.1075 -0.4235
    72IDQ   C71 1231   3.540   5.084   1.784 -1.1965  1.1431 -1.4971
    72IDQ   C72 1232   3.403   5.019   1.755 -0.4422  0.9079 -0.0425
    11RH     C1 1233   0.334   1.545   0.111  0.6839  0.8667 -0.3247
    11RH     C2 1234   0.260   1.642   0.026 -0.2002  0.5329  0.0520
    11RH     N1 1235   0.354   1.596   0.242  0.6662  0.7466 -0.2757
    11RH     S1 1236   0.222   1.793   0.124 -0.9971  0.0831  0.4461
    11RH     C3 1237   0.305   1.721   0.272 -0.1239  0.3576  0.0942
    11RH     C4 1238   0.431   1.516   0.343 -0.8498  0.7577  0.2349
    11RH     S2 1239   0.316   1.803   0.418 -0.3220  0.1407  0.2313
    11RH     O1 1240   0.374   1.433   0.075  1.3645  1.2106 -0.6471
    11RH     C5 1241   0.228   1.619  -0.101 -0.3640  0.5672  0.0866
    21BTZ    C6 1242   0.136   1.687  -0.187 -0.5734  0.2684  0.4982
    21BTZ    C7 1243   0.077   1.806  -0.153 -0.4618  0.4529  0.0563
    21BTZ    C8 1244   0.103   1.628  -0.313 -0.3458  0.0179  0.5560
    21BTZ    C9 1245  -0.017   1.872  -0.240 -0.1228  0.4011 -0.3490
    21BTZ   C10 1246  -0.051   1.819  -0.362  0.1034  0.1647 -0.3110
    21BTZ   C11 1247   0.008   1.695  -0.402 -0.0016 -0.0348  0.1445
    21BTZ    N2 1248   0.154   1.512  -0.357 -0.4250 -0.1774  0.9687
    21BTZ    N3 1249  -0.018   1.633  -0.518  0.1958 -0.2724  0.2260
    21BTZ    S3 1250   0.081   1.484  -0.518 -0.0553 -0.4426  0.8456
    31IDT   C12 1251  -0.165   1.885  -0.426  0.4232 -0.0113  0.1235
    31IDT   C13 1252  -0.268   1.816  -0.484  0.4699 -0.2038  0.2682
    31IDT   C14 1253  -0.378   1.900  -0.521  0.2339 -0.4170  0.4814
    31IDT   C15 1254  -0.359   2.033  -0.491  0.0066 -0.3884  0.4998
    31IDT    S4 1255  -0.199   2.063  -0.414  0.0739 -0.0867  0.2468
    4IDB    C16 1256  -0.446   2.112  -0.574 -0.0457  0.1971 -0.0275
    4IDB    C17 1257  -0.526   2.025  -0.654  0.3445  0.4799 -0.7460
    51IDQ   C18 1258  -0.512   1.882  -0.594 -0.2231 -0.0014  0.2979
    4IDB    C19 1259  -0.598   2.073  -0.763  0.4529  0.9787 -0.5999
    51IDQ   C20 1260  -0.617   1.820  -0.484 -0.3258 -0.1141 -0.5980
    51IDQ   C21 1261  -0.491   1.754  -0.701  0.8645  0.2095 -0.9247
    51IDQ   C22 1262  -0.465   1.765  -0.851  1.4405  0.3872 -0.6484
    51IDQ   C23 1263  -0.757   1.874  -0.461  0.7514  0.4515 -1.3938
    51IDQ   C24 1264  -0.311   1.736  -0.867  0.6130 -0.2946  0.4364
    51IDQ   C25 1265  -0.260   1.716  -1.012 -0.2123  0.9927 -0.3635
    51IDQ   C26 1266  -0.266   1.575  -1.083  1.6320 -0.3830  0.7744
    51IDQ   C27 1267  -0.180   1.459  -1.016 -1.3991 -0.5721  0.1742
    51IDQ   C28 1268  -0.037   1.467  -1.052 -0.1660 -0.6694 -0.0762
    51IDQ   C29 1269   0.039   1.599  -1.050 -1.3488  0.0561 -0.9409
    51IDQ   C30 1270  -0.841   1.801  -0.335 -0.3853  0.5874 -0.0981
    51IDQ   C31 1271  -0.811   1.659  -0.272 -1.0139  0.3639 -0.8392
    51IDQ   C32 1272  -0.789   1.534  -0.356  0.0467  1.0117  0.5966
    51IDQ   C33 1273  -0.687   1.452  -0.305 -1.0305  1.2740 -0.3106
    51IDQ   C34 1274  -0.611   1.415  -0.436 -0.0699  1.9872 -0.6262
    51IDQ   C35 1275  -0.506   1.317  -0.383  0.8870  0.0277 -0.8637
    4IDB    C36 1276  -0.437   2.249  -0.604 -0.3324  0.4132  0.8466
    4IDB    C37 1277  -0.510   2.296  -0.716 -0.2165  0.9234  0.9832
    11RH    C38 1278   0.585   1.529   0.323 -0.9818  0.4008  0.6003
    4IDB    C39 1279  -0.589   2.209  -0.793  0.1663  1.1948  0.2743
    62IDT   C40 1280  -0.669   2.279  -0.887  0.3002  0.4136 -0.4272
    72IDQ   C41 1281  -0.519   2.426  -0.794 -0.6599  0.5368 -0.2930
    62IDT   C42 1282  -0.628   2.410  -0.895  0.0491  0.4747 -0.7215
    72IDQ   C43 1283  -0.394   2.465  -0.892 -0.6212 -1.3370  0.9317
    72IDQ   C44 1284  -0.488   2.547  -0.685  1.5916 -0.7944 -0.8624
    62IDT    S5 1285  -0.829   2.253  -0.965 -0.0879  0.1174  0.4549
    62IDT   C45 1286  -0.833   2.430  -1.006 -0.5938  0.0907  0.3750
    62IDT   C46 1287  -0.721   2.496  -0.962 -0.4566  0.2923 -0.2680
    82BTZ   C47 1288  -0.951   2.487  -1.064  0.4130  0.9797  0.3678
    82BTZ   C48 1289  -1.059   2.499  -0.979  0.4189  1.0289  0.3691
    82BTZ   C49 1290  -1.183   2.557  -1.023  0.3006  0.6819  0.2451
    82BTZ   C50 1291  -1.201   2.602  -1.151  0.1762  0.2862  0.1209
    82BTZ   C51 1292  -0.965   2.533  -1.199  0.2847  0.5715  0.2401
    82BTZ   C52 1293  -1.091   2.592  -1.243  0.1643  0.2189  0.1144
    92RH    C53 1294  -1.324   2.676  -1.196  0.3678  0.2370  0.2154
    82BTZ    N4 1295  -0.867   2.526  -1.290  0.2656  0.4845  0.2265
    82BTZ    N5 1296  -1.096   2.632  -1.371  0.0484 -0.1515 -0.0002
    82BTZ    S6 1297  -0.935   2.596  -1.440  0.0896 -0.0635  0.0484
    92RH    C54 1298  -1.423   2.720  -1.118  0.3452  0.1744  0.2222
    92RH     S7 1299  -1.419   2.740  -0.936  0.2324 -0.1436  0.2606
    92RH    C55 1300  -1.556   2.761  -1.171  0.4108  0.3603  0.1993
    92RH     O2 1301  -1.590   2.759  -1.290  0.4928  0.5914  0.1717
    92RH     N6 1302  -1.641   2.803  -1.067  0.3687  0.2421  0.2128
    92RH    C56 1303  -1.593   2.801  -0.937  0.2773 -0.0159  0.2446
    92RH    C57 1304  -1.770   2.891  -1.098 -1.0385  0.4213 -0.6615
    92RH    C58 1305  -1.884   2.808  -1.142  0.2676 -0.4431 -0.1649
    92RH     S8 1306  -1.674   2.846  -0.797  0.2115 -0.2011  0.2661
    72IDQ   C59 1307  -0.590   2.585  -0.574 -1.5410  0.7024  0.1135
    72IDQ   C60 1308  -0.581   2.723  -0.522 -0.6779 -0.6852 -0.0734
    72IDQ   C61 1309  -0.478   2.829  -0.523  0.4199 -0.6204 -0.9070
    72IDQ   C62 1310  -0.479   2.870  -0.669  1.8643  0.0121  1.3963
    72IDQ   C63 1311  -0.350   2.903  -0.738  0.9257  0.9206  0.0617
    72IDQ   C64 1312  -0.370   2.983  -0.868 -0.0812 -0.2657  0.5043
    72IDQ   C65 1313  -0.483   3.089  -0.868 -0.7160  0.4464  0.0031
    72IDQ   C66 1314  -0.322   2.337  -0.958 -1.4004 -0.3373  0.0547
    72IDQ   C67 1315  -0.202   2.383  -1.052 -0.2712 -0.9597  0.6887
    72IDQ   C68 1316  -0.095   2.482  -1.003  1.2694 -0.3003 -0.1305
    72IDQ   C69 1317  -0.070   2.620  -1.065 -0.8876  0.0371 -0.4291
    72IDQ   C70 1318   0.026   2.694  -0.969  0.1278 -0.2574 -0.4742
    72IDQ   C71 1319  -0.013   2.735  -0.832  0.7269 -0.8328 -1.4537
    72IDQ   C72 1320   0.006   2.897  -0.832  0.0971 -0.0209 -0.8441
    11RH     C1 1321   2.950   3.318   6.467 -0.2801  0.0671 -0.5150
    11RH     C2 1322   2.889   3.355   6.338 -0.2226  0.4483 -0.4346
    11RH     N1 1323   2.872   3.363   6.576 -0.1717  0.0158 -0.4154
    11RH     S1 1324   2.732   3.447   6.367 -0.0295  0.7146 -0.2336
    11RH     C3 1325   2.756   3.432   6.549 -0.0345  0.3096 -0.2656
    11RH     C4 1326   2.902   3.304   6.702 -1.2725  0.6193 -0.8841
    11RH     S2 1327   2.646   3.495   6.660  0.1131  0.3211 -0.1252
    11RH     O1 1328   3.056   3.255   6.482 -0.4066 -0.1813 -0.6518
    11RH     C5 1329   2.942   3.324   6.219 -0.3029  0.5690 -0.5024
    21BTZ    C6 1330   2.910   3.345   6.083 -0.1396 -0.4975 -0.0495
    21BTZ    C7 1331   2.819   3.436   6.036 -0.0911 -0.4593 -0.0687
    21BTZ    C8 1332   2.946   3.235   5.999 -0.0002 -0.3908 -0.1302
    21BTZ    C9 1333   2.760   3.423   5.905  0.0954 -0.3148 -0.1681
    21BTZ   C10 1334   2.791   3.320   5.822  0.2332 -0.2089 -0.2474
    21BTZ   C11 1335   2.886   3.222   5.866  0.1893 -0.2439 -0.2308
    21BTZ    N2 1336   3.034   3.140   6.034 -0.0304 -0.4148 -0.1199
    21BTZ    N3 1337   2.925   3.116   5.794  0.3114 -0.1501 -0.3016
    21BTZ    S3 1338   3.043   3.027   5.895  0.1867 -0.2477 -0.2416
    31IDT   C12 1339   2.713   3.309   5.697  0.4148 -0.1812  0.0575
    31IDT   C13 1340   2.732   3.230   5.586  1.2327 -0.0839  0.1161
    31IDT   C14 1341   2.641   3.260   5.480  1.5604 -0.4500 -0.2751
    31IDT   C15 1342   2.553   3.363   5.509  0.9958 -0.8275 -0.6339
    31IDT    S4 1343   2.579   3.429   5.674 -0.0038 -0.7483 -0.5030
    4IDB    C16 1344   2.463   3.388   5.404 -0.4818  0.0901 -0.1119
    4IDB    C17 1345   2.487   3.302   5.293 -0.2404 -0.1969  0.1612
    51IDQ   C18 1346   2.606   3.208   5.338  0.0478 -0.6188 -1.2040
    4IDB    C19 1347   2.399   3.298   5.185  0.0618 -0.3734 -0.0797
    51IDQ   C20 1348   2.589   3.057   5.338  0.0204  1.3084  0.5778
    51IDQ   C21 1349   2.730   3.210   5.257  0.0059 -0.9228 -1.7456
    51IDQ   C22 1350   2.765   3.293   5.127 -0.0965  0.0573  0.2273
    51IDQ   C23 1351   2.477   2.998   5.420 -0.5242  0.9438 -0.2831
    51IDQ   C24 1352   2.911   3.341   5.123  1.0618  0.5075 -0.5685
    51IDQ   C25 1353   2.967   3.378   4.986  0.6016 -0.9943 -0.4742
    51IDQ   C26 1354   2.901   3.507   4.917 -0.1117  0.2622  1.0405
    51IDQ   C27 1355   2.824   3.507   4.777  0.7411 -0.5038  1.4776
    51IDQ   C28 1356   2.839   3.610   4.670  0.3426 -0.4924 -0.0844
    51IDQ   C29 1357   2.893   3.758   4.703  0.3537  1.0844 -0.1953
    51IDQ   C30 1358   2.548   2.926   5.541  0.5938 -1.6621 -0.9923
    51IDQ   C31 1359   2.470   2.821   5.607  1.3893 -0.8868 -0.5763
    51IDQ   C32 1360   2.367   2.895   5.675  0.1745 -0.2317 -0.4108
    51IDQ   C33 1361   2.269   2.810   5.770  0.6013 -0.7822 -0.7156
    51IDQ   C34 1362   2.194   2.893   5.874  1.1675 -0.1758  0.8669
    51IDQ   C35 1363   2.095   2.788   5.919  0.6072 -1.1854 -0.9028
    4IDB    C36 1364   2.349   3.471   5.409 -0.4219  0.2031 -0.6313
    4IDB    C37 1365   2.260   3.465   5.298 -0.1116  0.0197 -0.8714
    11RH    C38 1366   2.949   3.411   6.804 -0.4854  0.7780  1.3769
    4IDB    C39 1367   2.286   3.380   5.190  0.1217 -0.2604 -0.5992
    62IDT   C40 1368   2.182   3.383   5.082  0.2669  0.5241 -0.0489
    72IDQ   C41 1369   2.135   3.551   5.260  0.9100 -0.9957 -0.3836
    62IDT   C42 1370   2.099   3.485   5.122  0.1115  0.3406  0.0956
    72IDQ   C43 1371   2.150   3.700   5.256  0.5788 -1.2875 -0.7892
    72IDQ   C44 1372   1.986   3.532   5.317 -0.7150 -0.9301 -0.4588
    62IDT    S5 1373   2.131   3.314   4.924  0.2426  0.5220 -0.0401
    62IDT   C45 1374   1.993   3.432   4.921  0.0123  0.2602  0.1689
    62IDT   C46 1375   1.992   3.513   5.032 -0.0327  0.1913  0.2191
    82BTZ   C47 1376   1.903   3.428   4.802  0.2673 -0.0915 -0.3361
    82BTZ   C48 1377   1.810   3.327   4.790  0.3175 -0.1230 -0.4575
    82BTZ   C49 1378   1.725   3.316   4.675  0.1749  0.0986 -0.3741
    82BTZ   C50 1379   1.732   3.406   4.571 -0.0176  0.3515 -0.1696
    82BTZ   C51 1380   1.914   3.524   4.697  0.0675  0.1695 -0.1209
    82BTZ   C52 1381   1.827   3.513   4.579 -0.0774  0.3947 -0.0360
    92RH    C53 1382   1.635   3.393   4.462 -0.2150  0.3675  0.5047
    82BTZ    N4 1383   1.999   3.626   4.697  0.0010  0.2252  0.0126
    82BTZ    N5 1384   1.843   3.606   4.485 -0.2604  0.6315  0.1657
    82BTZ    S6 1385   1.972   3.714   4.544 -0.2552  0.5755  0.2577
    92RH    C54 1386   1.544   3.302   4.427  0.0247  0.1596  0.4215
    92RH     S7 1387   1.488   3.158   4.528  0.4133 -0.0897  0.2831
    92RH    C55 1388   1.471   3.303   4.298  0.0100  0.0980  0.4292
    92RH     O2 1389   1.486   3.387   4.208 -0.2208  0.2289  0.5119
    92RH     N6 1390   1.381   3.195   4.288  0.2959 -0.1325  0.3289
    92RH    C56 1391   1.372   3.107   4.394  0.5378 -0.2631  0.2420
    92RH    C57 1392   1.328   3.173   4.148  1.7156 -1.1511  0.2578
    92RH    C58 1393   1.188   3.249   4.140 -0.1687 -1.7812 -0.0189
    92RH     S8 1394   1.274   2.971   4.407  0.8993 -0.5399  0.1149
    72IDQ   C59 1395   1.955   3.417   5.415  0.6603  0.7849  0.4610
    72IDQ   C60 1396   1.852   3.446   5.516 -0.7694 -0.0367 -1.4965
    72IDQ   C61 1397   1.774   3.326   5.579 -1.5189 -0.8308 -0.2178
    72IDQ   C62 1398   1.856   3.254   5.693 -0.9937  0.5412 -0.8699
    72IDQ   C63 1399   1.759   3.158   5.735  0.7234  0.7074 -0.5788
    72IDQ   C64 1400   1.781   3.068   5.855 -1.5745 -1.5953  0.2626
    72IDQ   C65 1401   1.801   3.132   5.988  0.5204  1.2884  0.0332
    72IDQ   C66 1402   2.272   3.763   5.183 -1.1936  0.9345 -0.2041
    72IDQ   C67 1403   2.243   3.786   5.036 -1.2713 -1.6978  0.5766
    72IDQ   C68 1404   2.132   3.886   4.995 -0.4044  0.0422  0.2883
    72IDQ   C69 1405   2.133   3.941   4.841 -1.4284  0.7753  0.4211
    72IDQ   C70 1406   2.198   4.076   4.856 -0.2795 -1.4250  0.2621
    72IDQ   C71 1407   2.080   4.172   4.888 -1.1529  1.2290 -1.0176
    72IDQ   C72 1408   2.113   4.250   5.022 -0.8802  0.0164  0.5293
    11RH     C1 1409   2.926   5.750   1.423  0.0736  0.2522 -0.3619
    11RH     C2 1410   2.848   5.630   1.384  0.0658  0.1419 -0.0034
    11RH     N1 1411   2.841   5.858   1.457  0.0786  0.1824 -0.1291
    11RH     S1 1412   2.668   5.667   1.396  0.0659 -0.0458  0.6162
    11RH     C3 1413   2.705   5.839   1.451  0.0761  0.0303  0.3719
    11RH     C4 1414   2.903   5.989   1.495 -0.8105 -1.1098  0.4861
    11RH     S2 1415   2.583   5.950   1.487  0.0808 -0.0789  0.7352
    11RH     O1 1416   3.049   5.758   1.425  0.0755  0.3889 -0.8110
    11RH     C5 1417   2.904   5.515   1.348  0.0602  0.1792 -0.1283
    21BTZ    C6 1418   2.841   5.383   1.352  0.1854  0.1736 -0.6686
    21BTZ    C7 1419   2.727   5.349   1.420  0.1041  0.1717 -0.8064
    21BTZ    C8 1420   2.924   5.278   1.300  0.2837  0.1731 -0.5146
    21BTZ    C9 1421   2.688   5.211   1.439  0.1152  0.1695 -0.8000
    21BTZ   C10 1422   2.764   5.108   1.391  0.2075  0.1692 -0.6558
    21BTZ   C11 1423   2.884   5.138   1.319  0.2949  0.1712 -0.5082
    21BTZ    N2 1424   3.037   5.298   1.232  0.3688  0.1748 -0.3721
    21BTZ    N3 1425   2.966   5.046   1.267  0.3890  0.1709 -0.3604
    21BTZ    S3 1426   3.100   5.136   1.190  0.4688  0.1735 -0.2205
    31IDT   C12 1427   2.726   4.968   1.416 -0.4092 -0.6537 -0.0642
    31IDT   C13 1428   2.742   4.893   1.529 -0.3824 -0.7513 -0.1329
    31IDT   C14 1429   2.659   4.777   1.532 -0.4423 -0.7098 -0.1756
    31IDT   C15 1430   2.579   4.763   1.421 -0.5151 -0.5800 -0.1398
    31IDT    S4 1431   2.602   4.897   1.303 -0.5133 -0.5003 -0.0484
    4IDB    C16 1432   2.495   4.654   1.425 -0.3968  0.5635  0.5638
    4IDB    C17 1433   2.518   4.590   1.551 -0.4606  0.3011  0.4429
    51IDQ   C18 1434   2.620   4.664   1.634 -0.3653  1.3682  1.1448
    4IDB    C19 1435   2.463   4.465   1.579 -0.0744  0.0223 -0.0291
    51IDQ   C20 1436   2.563   4.709   1.771  0.2516 -0.1681 -0.4454
    51IDQ   C21 1437   2.743   4.582   1.670  0.3141  0.8086  1.1677
    51IDQ   C22 1438   2.757   4.435   1.659  0.2868  0.5960  1.7482
    51IDQ   C23 1439   2.490   4.840   1.798  0.0117  0.6141 -0.1287
    51IDQ   C24 1440   2.856   4.390   1.550  1.0322  0.8941 -1.3703
    51IDQ   C25 1441   2.829   4.252   1.519 -0.0983 -0.7791  0.5892
    51IDQ   C26 1442   2.764   4.194   1.390  0.5698  0.1853  0.6475
    51IDQ   C27 1443   2.763   4.284   1.258  0.2057 -0.6112  0.6252
    51IDQ   C28 1444   2.630   4.309   1.192  0.6583 -1.1159  0.3106
    51IDQ   C29 1445   2.643   4.421   1.073 -1.1114 -0.3881 -0.1190
    51IDQ   C30 1446   2.359   4.801   1.823  0.0364  1.3706  0.5165
    51IDQ   C31 1447   2.268   4.920   1.794  0.0325  0.2484 -0.7670
    51IDQ   C32 1448   2.247   5.018   1.920 -0.8591  0.3501 -0.5755
    51IDQ   C33 1449   2.120   5.077   1.945  0.6379 -0.1785  0.3375
    51IDQ   C34 1450   1.995   4.982   1.927 -0.9587 -1.4144  1.0097
    51IDQ   C35 1451   1.851   4.998   1.976 -0.5839  0.9314  0.6241
    4IDB    C36 1452   2.417   4.593   1.326  0.0567  0.5484  0.2109
    4IDB    C37 1453   2.361   4.465   1.356  0.4473  0.2618 -0.2696
    11RH    C38 1454   2.923   6.002   1.653 -0.1416  0.7800  1.0041
    4IDB    C39 1455   2.385   4.404   1.480  0.3790  0.0076 -0.3822
    62IDT   C40 1456   2.320   4.276   1.475  0.4328  0.2718 -0.1914
    72IDQ   C41 1457   2.256   4.387   1.277 -0.2436 -0.6209 -0.6900
    62IDT   C42 1458   2.230   4.268   1.370  0.8136  0.4351 -0.5336
    72IDQ   C43 1459   2.300   4.371   1.124  0.4741 -0.4067  0.8274
    72IDQ   C44 1460   2.110   4.454   1.289  0.0751 -0.9448  0.6993
    62IDT    S5 1461   2.331   4.122   1.566 -0.3503  0.3145 -0.0150
    62IDT   C45 1462   2.208   4.051   1.452 -0.1096  0.5631 -0.4338
    62IDT   C46 1463   2.167   4.141   1.357  0.5076  0.6001 -0.6712
    82BTZ   C47 1464   2.207   3.904   1.434  0.0989  0.2391 -0.0063
    82BTZ   C48 1465   2.321   3.833   1.460  0.1154  0.2799  0.0321
    82BTZ   C49 1466   2.323   3.688   1.455  0.2207  0.2891 -0.1642
    82BTZ   C50 1467   2.212   3.616   1.422  0.3091  0.2573 -0.3986
    82BTZ   C51 1468   2.088   3.832   1.399  0.1889  0.2044 -0.2486
    82BTZ   C52 1469   2.090   3.686   1.393  0.2959  0.2139 -0.4481
    92RH    C53 1470   2.210   3.472   1.396  0.0203  0.2983  0.6435
    82BTZ    N4 1471   1.971   3.891   1.371  0.1829  0.1636 -0.3088
    82BTZ    N5 1472   1.975   3.626   1.360  0.3758  0.1802 -0.6686
    82BTZ    S6 1473   1.856   3.758   1.335  0.3166  0.1344 -0.6299
    92RH    C54 1474   2.315   3.391   1.380 -0.1143  0.1841  0.3358
    92RH     S7 1475   2.490   3.428   1.420  0.0809  0.0770 -0.3925
    92RH    C55 1476   2.304   3.253   1.325 -0.4541  0.1247  0.5471
    92RH     O2 1477   2.199   3.199   1.287 -0.6505  0.1729  1.0240
    92RH     N6 1478   2.430   3.190   1.319 -0.5317  0.0040  0.1339
    92RH    C56 1479   2.540   3.260   1.363 -0.2956 -0.0408 -0.3825
    92RH    C57 1480   2.428   3.057   1.267 -0.6809  0.6072  0.4941
    92RH    C58 1481   2.480   3.030   1.118  0.7444 -0.0983 -0.0661
    92RH     S8 1482   2.701   3.208   1.367 -0.3254 -0.1804 -0.9428
    72IDQ   C59 1483   2.073   4.592   1.338  0.5509 -1.5643 -0.0756
    72IDQ   C60 1484   2.008   4.582   1.476 -1.0626  0.9205  0.2792
    72IDQ   C61 1485   1.929   4.709   1.511  1.2496  0.3101  0.9444
    72IDQ   C62 1486   1.933   4.768   1.650  0.2821 -0.8244  0.1449
    72IDQ   C63 1487   1.838   4.701   1.759  0.0028  1.0656 -0.2177
    72IDQ   C64 1488   1.675   4.712   1.765 -0.3596  0.4204  0.2353
    72IDQ   C65 1489   1.595   4.699   1.641 -0.0141  2.0600 -0.8145
    72IDQ   C66 1490   2.205   4.320   1.010 -0.1822 -2.3079 -2.5407
    72IDQ   C67 1491   2.208   4.167   1.007 -1.3737  0.0376 -0.0106
    72IDQ   C68 1492   2.338   4.096   0.955 -1.6132 -0.8900 -0.5671
    72IDQ   C69 1493   2.398   4.045   1.093  0.8606  0.8904  0.8637
    72IDQ   C70 1494   2.485   3.915   1.086  1.2196  0.4531  0.7054
    72IDQ   C71 1495   2.539   3.814   0.974  1.0681 -0.8497  0.3307
    72IDQ   C72 1496   2.555   3.678   1.006  0.8173 -1.0749 -0.3812
    11RH     C1 1497   4.495   5.289   4.826  0.1650  0.4067 -0.3085
    11RH     C2 1498   4.531   5.345   4.958 -0.1519 -0.0656 -0.0155
    11RH     N1 1499   4.600   5.211   4.772  0.2735  0.5534 -0.3079
    11RH     S1 1500   4.701   5.293   5.003 -0.2867 -0.2862  0.2414
    11RH     C3 1501   4.716   5.199   4.845  0.0820  0.2561 -0.0503
    11RH     C4 1502   4.589   5.099   4.676  0.0125  0.1477  0.4784
    11RH     S2 1503   4.855   5.114   4.804  0.1550  0.3459  0.0086
    11RH     O1 1504   4.386   5.305   4.767  0.3209  0.6504 -0.5302
    11RH     C5 1505   4.449   5.422   5.030 -0.3076 -0.2857  0.0432
    21BTZ    C6 1506   4.470   5.527   5.140  0.0566  0.1617 -0.2115
    21BTZ    C7 1507   4.589   5.558   5.200  0.0250  0.1268 -0.1314
    21BTZ    C8 1508   4.355   5.608   5.169 -0.0122  0.0052 -0.0460
    21BTZ    C9 1509   4.601   5.669   5.291 -0.0744 -0.0620  0.1135
    21BTZ   C10 1510   4.494   5.749   5.322 -0.1425 -0.2162  0.2783
    21BTZ   C11 1511   4.367   5.720   5.261 -0.1135 -0.1872  0.2029
    21BTZ    N2 1512   4.234   5.587   5.117  0.0091  0.0210 -0.1023
    21BTZ    N3 1513   4.256   5.791   5.284 -0.1731 -0.3254  0.3464
    21BTZ    S3 1514   4.128   5.715   5.185 -0.1007 -0.2139  0.1655
    31IDT   C12 1515   4.499   5.810   5.458 -0.1772 -0.7817  0.5074
    31IDT   C13 1516   4.403   5.809   5.556  0.4017 -1.2360  1.0819
    31IDT   C14 1517   4.451   5.857   5.681  0.8180 -0.5994  0.6874
    31IDT   C15 1518   4.584   5.894   5.680  0.5608  0.3426 -0.1880
    31IDT    S4 1519   4.659   5.872   5.519 -0.2366  0.4978 -0.5849
    4IDB    C16 1520   4.610   5.957   5.813  0.1741 -0.3919  0.3474
    4IDB    C17 1521   4.488   5.967   5.886  0.0396 -0.4745  0.1369
    51IDQ   C18 1522   4.372   5.886   5.809  0.1098 -1.5812 -0.2885
    4IDB    C19 1523   4.479   6.048   5.998 -0.3589 -0.0800 -0.1788
    51IDQ   C20 1524   4.324   5.748   5.872  0.5212  0.5359 -0.9935
    51IDQ   C21 1525   4.230   5.975   5.796 -0.9987 -0.4592  1.0692
    51IDQ   C22 1526   4.206   6.103   5.853  0.2662 -0.9740 -1.2818
    51IDQ   C23 1527   4.373   5.604   5.831 -1.6139 -0.7114 -0.9678
    51IDQ   C24 1528   4.109   6.189   5.791 -1.0366 -0.2166 -0.0241
    51IDQ   C25 1529   4.065   6.274   5.905 -0.0017  0.6088  0.0196
    51IDQ   C26 1530   3.933   6.341   5.867  1.0725 -0.1619 -0.2603
    51IDQ   C27 1531   3.846   6.437   5.941  0.5792  0.8479  0.8572
    51IDQ   C28 1532   3.814   6.396   6.086 -0.1981  0.0607  0.4829
    51IDQ   C29 1533   3.729   6.513   6.126 -0.5732  0.8542 -0.8420
    51IDQ   C30 1534   4.246   5.505   5.800 -0.7718  1.0103  0.0687
    51IDQ   C31 1535   4.165   5.523   5.681  0.7833  0.7979 -0.8141
    51IDQ   C32 1536   4.072   5.393   5.636 -0.6504  0.1374 -0.6250
    51IDQ   C33 1537   4.078   5.374   5.485  0.4203 -0.8082 -0.2224
    51IDQ   C34 1538   4.207   5.386   5.411 -1.1188 -1.5526 -0.1012
    51IDQ   C35 1539   4.323   5.308   5.487 -0.3213  0.4109 -0.4644
    4IDB    C36 1540   4.724   6.029   5.851 -0.0916  0.0889  0.2422
    4IDB    C37 1541   4.712   6.112   5.966 -0.4978  0.4871 -0.0813
    11RH    C38 1542   4.620   5.137   4.527 -0.9909  0.3925  0.5807
    4IDB    C39 1543   4.593   6.120   6.037 -0.6251  0.4002 -0.2838
    62IDT   C40 1544   4.607   6.221   6.142  0.1746 -0.0581 -0.2719
    72IDQ   C41 1545   4.823   6.195   6.033 -0.0614 -0.0417 -1.1328
    62IDT   C42 1546   4.742   6.251   6.150  0.0587  0.3524  0.1523
    72IDQ   C43 1547   4.889   6.315   5.954 -0.1478  0.2213  0.1313
    72IDQ   C44 1548   4.916   6.118   6.144 -0.2792 -0.6721  0.9994
    62IDT    S5 1549   4.509   6.319   6.256 -0.4086 -0.8373 -0.0930
    62IDT   C45 1550   4.662   6.400   6.311 -0.7976 -0.5537  0.5783
    62IDT   C46 1551   4.773   6.352   6.246 -0.4911  0.0725  0.6335
    82BTZ   C47 1552   4.662   6.504   6.421  0.0930 -0.0859  0.4255
    82BTZ   C48 1553   4.677   6.453   6.547  0.0978  0.1369  0.5155
    82BTZ   C49 1554   4.709   6.538   6.660  0.1421  0.3304  0.3581
    82BTZ   C50 1555   4.725   6.673   6.646  0.1816  0.3011  0.1111
    82BTZ   C51 1556   4.677   6.645   6.401  0.1335 -0.1256  0.1683
    82BTZ   C52 1557   4.710   6.731   6.516  0.1786  0.0713  0.0083
    92RH    C53 1558   4.759   6.761   6.767  0.4779 -0.3233 -0.0179
    82BTZ    N4 1559   4.665   6.707   6.283  0.1333 -0.3345  0.0591
    82BTZ    N5 1560   4.723   6.862   6.490  0.2151  0.0203 -0.2296
    82BTZ    S6 1561   4.694   6.881   6.314  0.1922 -0.2874 -0.2595
    92RH    C54 1562   4.782   6.736   6.896  0.1602 -0.0138  0.0982
    92RH     S7 1563   4.772   6.574   6.981 -0.4236  0.2513  0.5429
    92RH    C55 1564   4.821   6.841   6.994  0.2379  0.1664 -0.1245
    92RH     O2 1565   4.836   6.961   6.968  0.5982  0.0551 -0.4389
    92RH     N6 1566   4.838   6.787   7.123 -0.1544  0.4878  0.0655
    92RH    C56 1567   4.819   6.652   7.141 -0.5369  0.5872  0.4134
    92RH    C57 1568   4.927   6.840   7.221 -0.0679 -0.3241  1.5091
    92RH    C58 1569   4.878   6.960   7.303 -1.0844 -0.2830  1.1149
    92RH     S8 1570   4.833   6.563   7.284 -1.0445  0.9546  0.6964
    72IDQ   C59 1571   4.926   5.971   6.159  0.3477  0.3158 -0.4291
    72IDQ   C60 1572   5.063   5.956   6.160  0.7269  0.1972 -1.2745
    72IDQ   C61 1573   5.129   5.941   6.317 -0.5187  0.8818  0.2000
    72IDQ   C62 1574   5.268   5.882   6.348  0.8454  0.1554  0.3970
    72IDQ   C63 1575   5.344   5.808   6.225 -1.1203 -1.7082 -0.3062
    72IDQ   C64 1576   5.466   5.736   6.275  0.8690  0.7120 -0.2348
    72IDQ   C65 1577   5.551   5.678   6.172 -0.2241  0.2793  0.3894
    72IDQ   C66 1578   4.830   6.349   5.810 -1.0695  0.0459 -1.9864
    72IDQ   C67 1579   4.877   6.265   5.684  0.6602 -0.6095  0.5205
    72IDQ   C68 1580   4.863   6.339   5.550  1.5018  0.1394  1.5502
    72IDQ   C69 1581   4.962   6.344   5.441 -0.2706  1.0096  0.3486
    72IDQ   C70 1582   5.083   6.249   5.410  0.2857 -0.9498  0.2802
    72IDQ   C71 1583   5.066   6.095   5.411 -0.6474 -2.2989 -2.1157
    72IDQ   C72 1584   4.992   6.042   5.305  1.0957 -1.0957  0.1761
    11RH     C1 1585   4.655   6.306   2.901 -0.0978 -0.0696 -0.2170
    11RH     C2 1586   4.551   6.225   2.833 -0.2215 -0.0267 -0.0781
    11RH     N1 1587   4.634   6.444   2.881 -0.0881 -0.0595 -0.1565
    11RH     S1 1588   4.431   6.335   2.749 -0.3174  0.0243  0.1232
    11RH     C3 1589   4.525   6.484   2.806 -0.1891 -0.0138  0.0138
    11RH     C4 1590   4.731   6.532   2.930  1.2863 -0.0446 -0.1276
    11RH     S2 1591   4.477   6.641   2.768 -0.2022  0.0074  0.1173
    11RH     O1 1592   4.750   6.261   2.967 -0.0114 -0.1097 -0.3681
    11RH     C5 1593   4.548   6.091   2.836 -0.2545 -0.0265 -0.1012
    21BTZ    C6 1594   4.469   5.990   2.773 -0.0789  0.3204 -0.1664
    21BTZ    C7 1595   4.368   6.013   2.684  0.0389  0.2468 -0.3203
    21BTZ    C8 1596   4.492   5.855   2.818 -0.1423  0.3576 -0.0207
    21BTZ    C9 1597   4.284   5.906   2.634  0.1011  0.2065 -0.3387
    21BTZ   C10 1598   4.302   5.776   2.674  0.0445  0.2401 -0.2033
    21BTZ   C11 1599   4.407   5.747   2.768 -0.0792  0.3171 -0.0395
    21BTZ    N2 1600   4.587   5.820   2.905 -0.2575  0.4292  0.1358
    21BTZ    N3 1601   4.434   5.624   2.814 -0.1435  0.3557  0.1019
    21BTZ    S3 1602   4.572   5.643   2.926 -0.2909  0.4479  0.2684
    31IDT   C12 1603   4.244   5.686   2.575 -1.0318  0.7850 -0.1193
    31IDT   C13 1604   4.219   5.554   2.600 -1.4768  0.9446  0.2923
    31IDT   C14 1605   4.169   5.483   2.486 -0.8626  0.5560  0.2584
    31IDT   C15 1606   4.156   5.561   2.373  0.0531  0.0984 -0.1783
    31IDT    S4 1607   4.205   5.732   2.403  0.2094  0.1245 -0.5843
    4IDB    C16 1608   4.123   5.470   2.269  0.0427 -0.9890  0.2281
    4IDB    C17 1609   4.118   5.336   2.319  0.4158 -1.3695 -0.7381
    51IDQ   C18 1610   4.145   5.344   2.466 -0.2838  1.0621  0.3620
    4IDB    C19 1611   4.094   5.229   2.233  0.3755 -0.7896 -1.4621
    51IDQ   C20 1612   4.052   5.299   2.579  0.6304 -0.0377 -1.4437
    51IDQ   C21 1613   4.281   5.246   2.481  0.0043  1.4501  0.6230
    51IDQ   C22 1614   4.367   5.174   2.378  0.0389  1.4718  0.0486
    51IDQ   C23 1615   3.966   5.363   2.695 -0.2393  1.8145 -0.4471
    51IDQ   C24 1616   4.506   5.234   2.351  0.4692  2.0872 -0.0654
    51IDQ   C25 1617   4.620   5.130   2.383  1.3703  0.2549  0.8293
    51IDQ   C26 1618   4.756   5.173   2.401 -1.3320  0.2797 -0.5050
    51IDQ   C27 1619   4.852   5.054   2.384 -0.2016  0.7194  0.9438
    51IDQ   C28 1620   4.992   5.066   2.444  0.0858 -0.8285  0.0101
    51IDQ   C29 1621   5.082   5.182   2.392 -0.3191  0.2293  0.3414
    51IDQ   C30 1622   4.039   5.386   2.829  0.1413 -0.0131 -0.0899
    51IDQ   C31 1623   3.971   5.457   2.947 -0.8491 -0.4537 -0.9874
    51IDQ   C32 1624   3.908   5.581   2.897  0.4943 -0.1109  1.8451
    51IDQ   C33 1625   4.000   5.700   2.859  0.0501 -0.5582  0.3386
    51IDQ   C34 1626   3.981   5.826   2.779  0.6023  0.9560  0.3452
    51IDQ   C35 1627   3.835   5.824   2.738 -0.8392 -1.2961 -0.3580
    4IDB    C36 1628   4.103   5.497   2.133 -0.3755 -0.0205  0.4768
    4IDB    C37 1629   4.079   5.387   2.047 -0.4103  0.5610 -0.2725
    11RH    C38 1630   4.696   6.636   3.036 -0.9105 -0.0605 -1.8832
    4IDB    C39 1631   4.074   5.257   2.097 -0.0428  0.1790 -1.2134
    62IDT   C40 1632   4.046   5.169   1.981  0.0231 -0.1952 -0.4591
    72IDQ   C41 1633   4.030   5.389   1.903 -0.4499 -0.1980 -0.6682
    62IDT   C42 1634   4.020   5.236   1.863 -0.2909 -0.3464 -0.4756
    72IDQ   C43 1635   4.133   5.467   1.809 -0.3377 -0.6993 -1.4375
    72IDQ   C44 1636   3.864   5.426   1.902  0.8219 -0.2704 -0.0167
    62IDT    S5 1637   4.009   4.993   1.968  0.2796 -0.2680 -0.2299
    62IDT   C45 1638   3.956   5.022   1.796 -0.0679 -0.5109 -0.1654
    62IDT   C46 1639   3.969   5.153   1.759 -0.3427 -0.5255 -0.3096
    82BTZ   C47 1640   3.902   4.909   1.722  0.0898 -0.0745  0.3256
    82BTZ   C48 1641   3.950   4.786   1.758 -0.0072 -0.0751  0.4545
    82BTZ   C49 1642   3.918   4.666   1.684 -0.1757 -0.1407  0.6340
    82BTZ   C50 1643   3.836   4.670   1.574 -0.2472 -0.2055  0.6845
    82BTZ   C51 1644   3.816   4.918   1.608  0.0206 -0.1411  0.3718
    82BTZ   C52 1645   3.783   4.796   1.532 -0.1508 -0.2077  0.5544
    92RH    C53 1646   3.797   4.546   1.490  0.3686 -0.2032 -0.4247
    82BTZ    N4 1647   3.763   5.032   1.563  0.1028 -0.1473  0.2581
    82BTZ    N5 1648   3.703   4.813   1.427 -0.2064 -0.2675  0.5873
    82BTZ    S6 1649   3.665   4.988   1.419 -0.0385 -0.2409  0.3822
    92RH    C54 1650   3.831   4.418   1.503  0.2048 -0.2182 -0.1422
    92RH     S7 1651   3.963   4.349   1.609  0.1418 -0.1496 -0.0195
    92RH    C55 1652   3.763   4.307   1.430  0.0442 -0.2952  0.1232
    92RH     O2 1653   3.669   4.321   1.350  0.0421 -0.3538  0.1160
    92RH     N6 1654   3.819   4.182   1.463 -0.1104 -0.2943  0.3930
    92RH    C56 1655   3.923   4.178   1.553 -0.0936 -0.2263  0.3763
    92RH    C57 1656   3.763   4.060   1.396 -1.5344 -0.9591  0.3593
    92RH    C58 1657   3.658   3.991   1.479  0.3222 -0.4565  1.4199
    92RH     S8 1658   4.007   4.043   1.609 -0.2558 -0.2098  0.6620
    72IDQ   C59 1659   3.807   5.563   1.850 -0.5205  0.2662 -0.2359
    72IDQ   C60 1660   3.660   5.552   1.806  0.7746  1.5134  1.7392
    72IDQ   C61 1661   3.624   5.625   1.681  0.6593 -1.2452 -0.1349
    72IDQ   C62 1662   3.535   5.576   1.560  0.0145  0.1697 -0.2544
    72IDQ   C63 1663   3.416   5.479   1.601 -0.5449 -0.6509 -1.0695
    72IDQ   C64 1664   3.314   5.571   1.685  0.0224 -0.8075 -0.1347
    72IDQ   C65 1665   3.197   5.499   1.755 -0.1672  0.2294  1.3286
    72IDQ   C66 1666   4.153   5.621   1.824 -1.4466  2.0748  0.0748
    72IDQ   C67 1667   4.175   5.681   1.681  0.1415 -0.8173  0.0683
    72IDQ   C68 1668   4.281   5.801   1.653 -0.1186 -0.3685 -0.0215
    72IDQ   C69 1669   4.429   5.761   1.670  1.0226 -0.5905  0.0671
    72IDQ   C70 1670   4.507   5.639   1.603  0.1717  0.6196  1.1802
    72IDQ   C71 1671   4.463   5.607   1.451 -0.8623  0.4047 -0.9631
    72IDQ   C72 1672   4.453   5.464   1.411 -0.6774  0.1849 -1.1895
    11RH     C1 1673   4.511   4.937   3.073 -0.0322  0.2022  0.2480
    11RH     C2 1674   4.646   4.901   3.120 -0.1416  0.0451  0.4410
    11RH     N1 1675   4.517   5.017   2.956  0.2074 -0.4085 -0.1621
    11RH     S1 1676   4.773   4.973   3.008  0.0776 -0.8960  0.0710
    11RH     C3 1677   4.640   5.048   2.904  0.3035 -1.0362 -0.3210
    11RH     C4 1678   4.387   5.032   2.876  0.2007  0.4444 -0.9399
    11RH     S2 1679   4.674   5.141   2.768  0.5825 -1.8334 -0.7968
    11RH     O1 1680   4.404   4.904   3.127 -0.1338  0.7906  0.4175
    11RH     C5 1681   4.669   4.826   3.229 -0.3673  0.5311  0.8279
    21BTZ    C6 1682   4.779   4.752   3.292 -0.0537 -0.1374 -0.4231
    21BTZ    C7 1683   4.902   4.766   3.233 -0.0319 -0.1893 -0.3901
    21BTZ    C8 1684   4.769   4.678   3.414 -0.1388 -0.2453 -0.4953
    21BTZ    C9 1685   5.021   4.708   3.291 -0.0923 -0.3479 -0.4256
    21BTZ   C10 1686   5.016   4.636   3.407 -0.1741 -0.4548 -0.4945
    21BTZ   C11 1687   4.890   4.619   3.473 -0.2000 -0.4067 -0.5314
    21BTZ    N2 1688   4.655   4.658   3.481 -0.1674 -0.2089 -0.5331
    21BTZ    N3 1689   4.873   4.551   3.587 -0.2778 -0.5000 -0.5985
    21BTZ    S3 1690   4.698   4.560   3.625 -0.2763 -0.3830 -0.6186
    31IDT   C12 1691   5.139   4.560   3.453 -0.1510 -0.7491  0.4733
    31IDT   C13 1692   5.149   4.484   3.567  0.6068 -1.2555  0.0832
    31IDT   C14 1693   5.277   4.425   3.583  0.9377 -0.7703 -0.6827
    31IDT   C15 1694   5.367   4.454   3.482  0.4353  0.1068 -0.8809
    31IDT    S4 1695   5.294   4.561   3.357 -0.5042  0.3893 -0.1060
    4IDB    C16 1696   5.499   4.411   3.525 -0.5191  0.4934  0.1319
    4IDB    C17 1697   5.491   4.356   3.657 -0.1996  0.6802  0.2294
    51IDQ   C18 1698   5.340   4.343   3.692  0.5875 -0.4850 -1.3547
    4IDB    C19 1699   5.605   4.346   3.737  0.1392  0.0752 -0.3182
    51IDQ   C20 1700   5.314   4.187   3.710  0.4247 -0.2443 -0.2015
    51IDQ   C21 1701   5.289   4.419   3.828 -0.9465  0.4442  0.7679
    51IDQ   C22 1702   5.391   4.488   3.922  0.2091  1.0849  0.1023
    51IDQ   C23 1703   5.219   4.117   3.615  0.2347  1.2222 -0.6083
    51IDQ   C24 1704   5.370   4.465   4.073 -0.8601 -0.3343 -1.1233
    51IDQ   C25 1705   5.406   4.337   4.140  0.3412 -0.8307  0.4228
    51IDQ   C26 1706   5.556   4.322   4.187  0.2647 -0.3397  0.2204
    51IDQ   C27 1707   5.597   4.377   4.344 -0.8328 -0.3155  0.4375
    51IDQ   C28 1708   5.740   4.388   4.362  0.3047 -0.6464 -0.3824
    51IDQ   C29 1709   5.799   4.257   4.388  0.4380  1.1206 -0.2411
    51IDQ   C30 1710   5.220   3.956   3.631  0.3667  0.3506 -0.4189
    51IDQ   C31 1711   5.331   3.893   3.706  0.0863 -0.1083  0.7743
    51IDQ   C32 1712   5.343   3.751   3.653  0.9516 -0.1574  0.5441
    51IDQ   C33 1713   5.217   3.657   3.665  0.9650 -0.1443 -0.1156
    51IDQ   C34 1714   5.232   3.535   3.581 -0.2084  0.8616 -0.0044
    51IDQ   C35 1715   5.117   3.441   3.607 -0.7791  0.5409 -0.7009
    4IDB    C36 1716   5.622   4.455   3.472 -0.5009 -0.3052 -0.5180
    4IDB    C37 1717   5.736   4.444   3.555 -0.1521 -0.9155 -1.0713
    11RH    C38 1718   4.384   4.958   2.740 -0.1979  0.6164 -0.7855
    4IDB    C39 1719   5.727   4.391   3.684  0.1571 -0.7232 -0.9681
    62IDT   C40 1720   5.857   4.389   3.743  0.3000  0.2677 -0.0924
    72IDQ   C41 1721   5.878   4.476   3.526 -0.8358 -0.8266  0.5927
    62IDT   C42 1722   5.951   4.421   3.648  0.3233  0.8426  0.1181
    72IDQ   C43 1723   5.897   4.646   3.513  0.0161  0.1456  0.4356
    72IDQ   C44 1724   5.915   4.437   3.381  0.5740  0.6530  0.4758
    62IDT    S5 1725   5.932   4.337   3.898  0.2663  0.0203 -0.1590
    62IDT   C45 1726   6.095   4.362   3.822  0.2864  0.7420  0.1147
    62IDT   C46 1727   6.086   4.406   3.692  0.3159  1.1113  0.2356
    82BTZ   C47 1728   6.219   4.329   3.907 -0.1756 -0.0445 -0.4748
    82BTZ   C48 1729   6.204   4.318   4.043 -0.3459 -0.0322 -0.4921
    82BTZ   C49 1730   6.315   4.282   4.129 -0.4809 -0.1388 -0.3626
    82BTZ   C50 1731   6.439   4.257   4.078 -0.4455 -0.2573 -0.2158
    82BTZ   C51 1732   6.348   4.303   3.850 -0.1321 -0.1669 -0.3237
    82BTZ   C52 1733   6.460   4.267   3.937 -0.2692 -0.2754 -0.1919
    92RH    C53 1734   6.559   4.220   4.159  0.0624 -0.5780 -0.1006
    82BTZ    N4 1735   6.374   4.311   3.719  0.0288 -0.1910 -0.2923
    82BTZ    N5 1736   6.577   4.244   3.876 -0.2186 -0.3865 -0.0547
    82BTZ    S6 1737   6.548   4.270   3.701  0.0111 -0.3564 -0.0888
    92RH    C54 1738   6.575   4.202   4.290  0.0496 -0.2108 -0.0494
    92RH     S7 1739   6.450   4.235   4.422  0.1044  0.3442 -0.1333
    92RH    C55 1740   6.700   4.152   4.352 -0.0129 -0.1996  0.0882
    92RH     O2 1741   6.803   4.121   4.290 -0.0601 -0.5214  0.1705
    92RH     N6 1742   6.689   4.143   4.492 -0.0129  0.2305  0.1157
    92RH    C56 1743   6.570   4.181   4.551  0.0422  0.5646  0.0172
    92RH    C57 1744   6.803   4.101   4.573  0.2134  0.4250  0.1973
    92RH    C58 1745   6.802   3.975   4.667 -0.3513  1.2218  1.1725
    92RH     S8 1746   6.531   4.180   4.715  0.0544  1.1020  0.0243
    72IDQ   C59 1747   5.995   4.315   3.363 -0.7656 -0.4726  0.4970
    72IDQ   C60 1748   6.114   4.330   3.252 -0.0775 -1.9851 -0.3691
    72IDQ   C61 1749   6.071   4.300   3.116 -1.3067 -0.8656  2.1362
    72IDQ   C62 1750   6.167   4.327   2.991 -0.1266  0.6326 -0.7330
    72IDQ   C63 1751   6.302   4.251   3.006 -1.6609 -0.2546 -0.5967
    72IDQ   C64 1752   6.427   4.290   3.094 -0.5774  0.3157  0.2155
    72IDQ   C65 1753   6.456   4.162   3.174  0.6391 -0.9412  0.7515
    72IDQ   C66 1754   5.785   4.745   3.540  0.5338 -0.6271  1.1976
    72IDQ   C67 1755   5.797   4.761   3.702 -0.7698  0.1399  1.5123
    72IDQ   C68 1756   5.695   4.862   3.755 -0.2160 -0.0860 -0.9764
    72IDQ   C69 1757   5.712   4.933   3.888  0.4614  1.0887 -0.0470
    72IDQ   C70 1758   5.698   4.835   4.007 -1.1547  1.1942  0.1801
    72IDQ   C71 1759   5.702   4.886   4.144  0.9732  0.7200 -0.6371
    72IDQ   C72 1760   5.611   4.804   4.233 -1.1351 -1.4942  0.1681
    11RH     C1 1761   4.595   3.937   6.049 -0.3860  0.2654 -0.1359
    11RH     C2 1762   4.661   3.899   5.922 -0.1934  0.3132 -0.0510
    11RH     N1 1763   4.487   3.852   6.079 -0.1921  0.0173 -0.1374
    11RH     S1 1764   4.576   3.753   5.850  0.2294  0.0291  0.0204
    11RH     C3 1765   4.458   3.750   5.991  0.1318 -0.1394 -0.0648
    11RH     C4 1766   4.429   3.872   6.217  0.4705  0.6061  0.6626
    11RH     S2 1767   4.335   3.635   6.003  0.4129 -0.4408 -0.0503
    11RH     O1 1768   4.629   4.032   6.123 -0.6797  0.4199 -0.1981
    11RH     C5 1769   4.766   3.963   5.871 -0.3190  0.5334 -0.0326
    21BTZ    C6 1770   4.849   3.934   5.756 -0.0153  0.3553  0.6757
    21BTZ    C7 1771   4.822   3.837   5.663 -0.2849  0.4474  0.6583
    21BTZ    C8 1772   4.956   4.026   5.730 -0.1001  0.3910  0.4482
    21BTZ    C9 1773   4.898   3.826   5.541 -0.6487  0.5784  0.4182
    21BTZ   C10 1774   5.001   3.911   5.512 -0.7422  0.6170  0.1959
    21BTZ   C11 1775   5.033   4.014   5.606 -0.4699  0.5240  0.2041
    21BTZ    N2 1776   4.992   4.124   5.813  0.1392  0.3099  0.4406
    21BTZ    N3 1777   5.131   4.103   5.589 -0.5281  0.5498  0.0007
    21BTZ    S3 1778   5.129   4.208   5.734 -0.1039  0.4024  0.1149
    31IDT   C12 1779   5.084   3.868   5.392 -0.2406  0.4499 -0.1960
    31IDT   C13 1780   5.206   3.911   5.347 -0.0210  0.2028  0.1571
    31IDT   C14 1781   5.237   3.860   5.217  0.5388 -0.3785  0.5112
    31IDT   C15 1782   5.140   3.779   5.162  0.7489 -0.5784  0.4305
    31IDT    S4 1783   4.999   3.760   5.272  0.2497 -0.0406 -0.1049
    4IDB    C16 1784   5.183   3.745   5.030 -0.1633 -1.1633  0.1051
    4IDB    C17 1785   5.313   3.794   4.998 -0.2327 -0.8974  0.2239
    51IDQ   C18 1786   5.353   3.893   5.115  0.3922  0.3869  0.3001
    4IDB    C19 1787   5.375   3.758   4.879 -0.3428 -0.2072 -0.0478
    51IDQ   C20 1788   5.500   3.847   5.180  0.2831  0.1593 -0.7220
    51IDQ   C21 1789   5.372   4.055   5.091 -0.2422 -0.8146 -1.5260
    51IDQ   C22 1790   5.328   4.101   4.959  0.0738 -0.6404  0.3745
    51IDQ   C23 1791   5.558   3.920   5.314  0.1535  0.8320 -0.5823
    51IDQ   C24 1792   5.435   4.100   4.847  1.2469 -0.7671  0.0077
    51IDQ   C25 1793   5.356   4.107   4.706  1.0624  0.4296 -0.3886
    51IDQ   C26 1794   5.469   4.112   4.607  0.8793 -0.1716 -0.1556
    51IDQ   C27 1795   5.414   4.105   4.465 -0.0437  1.4997  0.2831
    51IDQ   C28 1796   5.375   3.971   4.393  0.0787 -1.0060 -0.7890
    51IDQ   C29 1797   5.293   4.003   4.262 -0.6513  0.5098  0.1959
    51IDQ   C30 1798   5.712   3.895   5.335 -0.0597 -0.2119 -0.5838
    51IDQ   C31 1799   5.774   3.904   5.464 -0.7848  0.3970 -0.9132
    51IDQ   C32 1800   5.713   3.787   5.543  0.3597  0.1171 -0.3727
    51IDQ   C33 1801   5.792   3.667   5.593  1.0386 -0.1433 -0.9586
    51IDQ   C34 1802   5.904   3.714   5.687 -0.2438 -0.5463 -0.9958
    51IDQ   C35 1803   6.022   3.611   5.678 -0.5183 -0.0399 -0.3394
    4IDB    C36 1804   5.114   3.659   4.944 -0.2036 -0.7373 -0.2880
    4IDB    C37 1805   5.179   3.624   4.823 -0.3161 -0.0334 -0.5615
    11RH    C38 1806   4.484   3.753   6.316  0.7789 -0.8534  2.7277
    4IDB    C39 1807   5.306   3.672   4.792 -0.3833  0.2187 -0.4412
    62IDT   C40 1808   5.330   3.633   4.650  1.0649 -0.5374  0.4638
    72IDQ   C41 1809   5.109   3.551   4.706 -0.4995  0.4373 -0.1179
    62IDT   C42 1810   5.220   3.567   4.599  0.8152 -0.7951  1.3263
    72IDQ   C43 1811   4.963   3.588   4.674  0.0030  0.6968  0.5186
    72IDQ   C44 1812   5.108   3.399   4.764 -0.0060  0.0228 -0.7301
    62IDT    S5 1813   5.446   3.679   4.520 -0.1624 -0.0465 -0.4794
    62IDT   C45 1814   5.334   3.603   4.399 -0.9888 -0.2244  0.3845
    62IDT   C46 1815   5.222   3.551   4.457 -0.3459 -0.6187  1.2827
    82BTZ   C47 1816   5.391   3.583   4.260  0.4118 -0.0535 -0.3753
    82BTZ   C48 1817   5.510   3.643   4.227  0.4251 -0.1403 -0.4840
    82BTZ   C49 1818   5.563   3.636   4.093  0.2923 -0.1694 -0.5352
    82BTZ   C50 1819   5.497   3.570   3.992  0.1465 -0.1117 -0.4779
    82BTZ   C51 1820   5.319   3.513   4.158  0.2615  0.0095 -0.3116
    82BTZ   C52 1821   5.373   3.506   4.022  0.1266 -0.0201 -0.3638
    92RH    C53 1822   5.558   3.545   3.870 -0.0027 -0.3208  0.1990
    82BTZ    N4 1823   5.202   3.451   4.179  0.2339  0.0956 -0.2053
    82BTZ    N5 1824   5.299   3.439   3.933 -0.0095  0.0421 -0.2991
    82BTZ    S6 1825   5.155   3.380   4.021  0.0299  0.1434 -0.1661
    92RH    C54 1826   5.673   3.571   3.806 -0.1075 -0.1441  0.0795
    92RH     S7 1827   5.824   3.645   3.879 -0.0294 -0.2297  0.0046
    92RH    C55 1828   5.696   3.542   3.663 -0.3095  0.1578 -0.0136
    92RH     O2 1829   5.613   3.492   3.585 -0.4046  0.2812  0.0076
    92RH     N6 1830   5.826   3.580   3.622 -0.3850  0.2940 -0.1324
    92RH    C56 1831   5.910   3.634   3.716 -0.2677  0.1378 -0.1462
    92RH    C57 1832   5.863   3.579   3.475 -0.3003  1.2900 -0.8008
    92RH    C58 1833   5.953   3.471   3.412  0.1900  0.7531  0.9488
    92RH     S8 1834   6.069   3.687   3.695 -0.3214  0.2484 -0.2766
    72IDQ   C59 1835   5.238   3.314   4.746 -0.1240 -1.2911  0.5118
    72IDQ   C60 1836   5.217   3.208   4.646  0.3688  0.7278  1.9030
    72IDQ   C61 1837   5.335   3.149   4.570 -0.0444 -0.5161  0.1786
    72IDQ   C62 1838   5.322   3.000   4.531  0.6676 -0.7573 -0.4391
    72IDQ   C63 1839   5.375   2.883   4.611 -1.1901  0.2683  0.9217
    72IDQ   C64 1840   5.383   2.763   4.511 -1.3412  0.8600 -0.9702
    72IDQ   C65 1841   5.480   2.644   4.527 -0.5655 -0.8092 -0.5770
    72IDQ   C66 1842   4.887   3.520   4.554  0.3579 -0.1513  0.0933
    72IDQ   C67 1843   4.798   3.392   4.590  0.0628 -0.7434  1.7426
    72IDQ   C68 1844   4.723   3.345   4.470 -0.1936  0.6623 -0.3290
    72IDQ   C69 1845   4.825   3.277   4.377 -0.2252  0.1989  0.8819
    72IDQ   C70 1846   4.878   3.137   4.422  0.7578  0.2298  0.1706
    72IDQ   C71 1847   5.001   3.083   4.334 -0.5256  1.2712  0.2013
    72IDQ   C72 1848   4.960   3.027   4.193  0.0311  1.2960 -0.4127
    11RH     C1 1849   4.335   0.637   5.997 -0.6568 -0.0104  0.5479
    11RH     C2 1850   4.371   0.623   5.854 -0.3712 -0.2903  0.6473
    11RH     N1 1851   4.201   0.600   6.021 -0.7516  0.1869  0.3285
    11RH     S1 1852   4.226   0.560   5.760 -0.2466 -0.2757  0.4452
    11RH     C3 1853   4.125   0.556   5.914 -0.5774  0.0994  0.2394
    11RH     C4 1854   4.158   0.585   6.168 -0.4059  1.8481 -0.1895
    11RH     S2 1855   3.965   0.506   5.915 -0.6400  0.2913 -0.0162
    11RH     O1 1856   4.411   0.677   6.087 -0.7987  0.0490  0.6418
    11RH     C5 1857   4.492   0.652   5.805 -0.2330 -0.5143  0.8536
    21BTZ    C6 1858   4.555   0.637   5.674 -0.0513  0.6168 -0.3392
    21BTZ    C7 1859   4.488   0.589   5.565  0.1435  0.5977 -0.4504
    21BTZ    C8 1860   4.694   0.670   5.661  0.0732  0.2375  0.0086
    21BTZ    C9 1861   4.554   0.570   5.438  0.4683  0.2077 -0.2277
    21BTZ   C10 1862   4.687   0.600   5.420  0.5975 -0.1627  0.1066
    21BTZ   C11 1863   4.761   0.651   5.532  0.4032 -0.1590  0.2348
    21BTZ    N2 1864   4.770   0.718   5.760 -0.0935  0.2160  0.1464
    21BTZ    N3 1865   4.890   0.683   5.527  0.5021 -0.4991  0.5553
    21BTZ    S3 1866   4.933   0.741   5.691  0.1706 -0.3231  0.5809
    31IDT   C12 1867   4.714   0.619   5.266  0.3267 -0.5417  0.3834
    31IDT   C13 1868   4.830   0.653   5.201  0.4563 -0.9788  0.3841
    31IDT   C14 1869   4.817   0.644   5.058  0.3884 -0.8125  0.3805
    31IDT   C15 1870   4.693   0.605   5.015  0.2074 -0.2488  0.3767
    31IDT    S4 1871   4.580   0.574   5.151  0.1078  0.1184  0.3777
    4IDB    C16 1872   4.693   0.583   4.874  0.7184  0.3749  0.6234
    4IDB    C17 1873   4.814   0.643   4.828  0.1526  1.0004 -0.0808
    51IDQ   C18 1874   4.895   0.708   4.945  0.4774 -0.2893  0.3481
    4IDB    C19 1875   4.842   0.653   4.692 -0.4578  0.6893 -0.2319
    51IDQ   C20 1876   5.039   0.650   4.953  0.3076  0.8694  0.6649
    51IDQ   C21 1877   4.878   0.855   4.918 -0.5783 -0.0043  0.4279
    51IDQ   C22 1878   4.993   0.955   4.901  0.6585 -0.7195  0.4389
    51IDQ   C23 1879   5.101   0.516   5.026  0.9535  0.2754  0.2351
    51IDQ   C24 1880   4.939   1.095   4.849 -0.5050  0.1327 -0.3166
    51IDQ   C25 1881   5.031   1.210   4.851 -0.6219 -0.5278  0.6039
    51IDQ   C26 1882   5.030   1.291   4.723  0.0426  2.0583 -0.3525
    51IDQ   C27 1883   5.071   1.433   4.712  0.5683 -0.2496  1.2360
    51IDQ   C28 1884   5.205   1.493   4.690 -2.0334 -0.6276 -0.0269
    51IDQ   C29 1885   5.320   1.437   4.605 -0.5436 -0.0347 -0.7387
    51IDQ   C30 1886   5.083   0.388   4.958  0.5163  0.4146  0.0923
    51IDQ   C31 1887   5.056   0.349   4.816 -0.6633 -1.3486  0.6377
    51IDQ   C32 1888   5.095   0.455   4.706 -0.3717 -0.0223  0.2416
    51IDQ   C33 1889   5.087   0.381   4.581  0.2545  0.1932 -0.2895
    51IDQ   C34 1890   5.177   0.428   4.461  0.2484 -0.1397  0.6309
    51IDQ   C35 1891   5.108   0.427   4.318 -0.1061  0.7141  0.4948
    4IDB    C36 1892   4.598   0.532   4.784  0.6771 -0.5715  1.1835
    4IDB    C37 1893   4.628   0.543   4.645  0.0496 -0.8770  1.0190
    11RH    C38 1894   4.099   0.723   6.227  0.2676  0.3701  0.8615
    4IDB    C39 1895   4.747   0.602   4.602 -0.4992 -0.2571  0.3280
    62IDT   C40 1896   4.742   0.593   4.452 -0.3791 -0.4366  0.1872
    72IDQ   C41 1897   4.531   0.511   4.532  0.1006 -1.1585  0.0860
    62IDT   C42 1898   4.630   0.524   4.411 -0.4244  0.0027 -0.4497
    72IDQ   C43 1899   4.406   0.613   4.520  0.2432  0.8353 -0.6955
    72IDQ   C44 1900   4.474   0.368   4.541 -0.4355 -0.1545  0.3031
    62IDT    S5 1901   4.851   0.632   4.314  0.1000 -0.0526  0.6690
    62IDT   C45 1902   4.733   0.548   4.204  0.2198  0.7193 -0.0512
    62IDT   C46 1903   4.625   0.498   4.271 -0.0861  0.6568 -0.5853
    82BTZ   C47 1904   4.763   0.515   4.055 -0.0055 -0.3655 -0.3550
    82BTZ   C48 1905   4.864   0.591   4.000 -0.0215 -0.3673 -0.3867
    82BTZ   C49 1906   4.929   0.553   3.877 -0.1626 -0.2908 -0.4857
    82BTZ   C50 1907   4.894   0.440   3.809 -0.2874 -0.2127 -0.5521
    82BTZ   C51 1908   4.723   0.395   3.987 -0.1326 -0.2852 -0.4218
    82BTZ   C52 1909   4.790   0.357   3.862 -0.2761 -0.2075 -0.5221
    92RH    C53 1910   4.979   0.402   3.692  0.3272 -0.0522  0.3815
    82BTZ    N4 1911   4.627   0.313   4.030 -0.1311 -0.2753 -0.3991
    82BTZ    N5 1912   4.747   0.244   3.805 -0.3901 -0.1351 -0.5802
    82BTZ    S6 1913   4.617   0.180   3.910 -0.3169 -0.1639 -0.5074
    92RH    C54 1914   5.083   0.464   3.634  0.1843  0.0111  0.1918
    92RH     S7 1915   5.142   0.634   3.670 -0.1692  0.2353 -0.2832
    92RH    C55 1916   5.168   0.403   3.530  0.2954 -0.0950  0.3444
    92RH     O2 1917   5.154   0.288   3.483  0.5288 -0.2519  0.6591
    92RH     N6 1918   5.269   0.491   3.487  0.1005  0.0048  0.0845
    92RH    C56 1919   5.276   0.616   3.544 -0.1528  0.1780 -0.2575
    92RH    C57 1920   5.361   0.441   3.384 -0.7676 -0.8179 -0.3464
    92RH    C58 1921   5.387   0.504   3.248  0.2609  1.3070 -1.1942
    92RH     S8 1922   5.387   0.739   3.512 -0.4191  0.3243 -0.6137
    72IDQ   C59 1923   4.518   0.245   4.465  1.7478 -0.2921 -0.8792
    72IDQ   C60 1924   4.655   0.190   4.487  0.8127 -0.9564 -0.9310
    72IDQ   C61 1925   4.692   0.081   4.392  0.5567  0.1195  1.0024
    72IDQ   C62 1926   4.845   0.049   4.389 -0.3543  0.1756  0.4082
    72IDQ   C63 1927   4.901   0.004   4.515  0.5253 -1.5901 -1.0508
    72IDQ   C64 1928   5.044   0.012   4.508 -0.3317  1.5256  1.2879
    72IDQ   C65 1929   5.115  -0.037   4.635  0.2575  0.4910  0.7045
    72IDQ   C66 1930   4.395   0.727   4.608 -0.5083  0.4220 -1.2705
    72IDQ   C67 1931   4.256   0.766   4.640  0.5930  0.8410  0.1624
    72IDQ   C68 1932   4.189   0.867   4.525 -1.2813  0.2574 -0.0010
    72IDQ   C69 1933   4.197   1.018   4.566  0.2290 -1.2186 -0.3493
    72IDQ   C70 1934   4.175   1.069   4.709 -0.6647 -0.0699 -1.1625
    72IDQ   C71 1935   4.087   1.014   4.823  0.0244 -0.2732 -0.2345
    72IDQ   C72 1936   3.945   0.971   4.780 -0.2105  0.9018  0.0341
    11RH     C1 1937   5.852   3.329   0.284 -0.0670 -0.1172  0.2514
    11RH     C2 1938   5.740   3.367   0.195  0.0153 -0.1926  0.1145
    11RH     N1 1939   5.823   3.357   0.419 -0.1442  0.1099  0.1878
    11RH     S1 1940   5.603   3.438   0.295 -0.0140  0.0399 -0.0889
    11RH     C3 1941   5.701   3.413   0.450 -0.1335  0.2255  0.0167
    11RH     C4 1942   5.937   3.364   0.523  0.5204  0.9934 -0.4086
    11RH     S2 1943   5.642   3.456   0.601 -0.2139  0.4957 -0.0903
    11RH     O1 1944   5.959   3.278   0.247 -0.0696 -0.2348  0.4035
    11RH     C5 1945   5.742   3.351   0.062  0.0972 -0.4008  0.1408
    21BTZ    C6 1946   5.640   3.338  -0.043 -0.4594  0.4375  0.0954
    21BTZ    C7 1947   5.504   3.330  -0.024 -0.4392  0.1571  0.1287
    21BTZ    C8 1948   5.692   3.326  -0.176 -0.4599  0.4241  0.0963
    21BTZ    C9 1949   5.414   3.310  -0.135 -0.4184 -0.1483  0.1645
    21BTZ   C10 1950   5.459   3.299  -0.264 -0.4178 -0.1730  0.1668
    21BTZ   C11 1951   5.600   3.307  -0.288 -0.4389  0.1137  0.1328
    21BTZ    N2 1952   5.822   3.333  -0.207 -0.4785  0.6804  0.0660
    21BTZ    N3 1953   5.655   3.297  -0.409 -0.4404  0.1205  0.1316
    21BTZ    S3 1954   5.832   3.313  -0.384 -0.4699  0.5328  0.0827
    31IDT   C12 1955   5.365   3.258  -0.362  0.7571  0.0415 -0.5231
    31IDT   C13 1956   5.326   3.337  -0.467  0.7827 -0.3593 -0.8342
    31IDT   C14 1957   5.233   3.272  -0.554  0.3626 -0.4878 -0.2925
    31IDT   C15 1958   5.200   3.143  -0.515  0.0158 -0.1864  0.4329
    31IDT    S4 1959   5.285   3.094  -0.365  0.1948  0.2877  0.4874
    4IDB    C16 1960   5.115   3.078  -0.615  0.6019 -0.5040  0.0905
    4IDB    C17 1961   5.093   3.161  -0.729  0.3231 -0.1153  0.4251
    51IDQ   C18 1962   5.167   3.300  -0.702  0.2844  0.8496 -0.0228
    4IDB    C19 1963   4.993   3.132  -0.821  0.4293 -0.0868  0.3000
    51IDQ   C20 1964   5.284   3.315  -0.813 -0.6298 -0.9546 -0.2301
    51IDQ   C21 1965   5.057   3.414  -0.685 -0.3747 -0.0757  0.8088
    51IDQ   C22 1966   5.042   3.515  -0.805  0.6815  0.5236  1.8175
    51IDQ   C23 1967   5.432   3.323  -0.790  0.1226 -0.6775 -0.8330
    51IDQ   C24 1968   4.913   3.566  -0.852 -0.6229 -0.6287  0.0170
    51IDQ   C25 1969   4.899   3.498  -0.985  0.2828 -1.0270  0.7514
    51IDQ   C26 1970   4.750   3.474  -1.042  0.3181 -0.3837  0.7438
    51IDQ   C27 1971   4.651   3.437  -0.927  1.3405  1.1048  1.3267
    51IDQ   C28 1972   4.655   3.303  -0.843 -1.0896 -0.3740 -0.8066
    51IDQ   C29 1973   4.524   3.306  -0.779  0.7472 -0.4378  1.1683
    51IDQ   C30 1974   5.537   3.367  -0.893 -1.3587  0.1126  0.0896
    51IDQ   C31 1975   5.678   3.350  -0.850 -0.4969 -0.5715  1.2256
    51IDQ   C32 1976   5.793   3.408  -0.947  0.1681 -0.0937 -1.1772
    51IDQ   C33 1977   5.824   3.563  -0.972  0.8735  0.1968 -1.0934
    51IDQ   C34 1978   5.814   3.639  -0.836 -0.3391 -1.1816  0.4617
    51IDQ   C35 1979   5.830   3.794  -0.827 -0.0636  1.2477  0.8526
    4IDB    C36 1980   5.037   2.964  -0.592  0.9913 -0.8687 -0.3746
    4IDB    C37 1981   4.935   2.935  -0.687  1.0951 -0.8335 -0.4964
    11RH    C38 1982   6.017   3.492   0.580  0.8746  0.5123 -0.6552
    4IDB    C39 1983   4.915   3.017  -0.798  0.8189 -0.4513 -0.1650
    62IDT   C40 1984   4.828   2.960  -0.884  0.4179 -0.6018  0.5961
    72IDQ   C41 1985   4.820   2.834  -0.683 -1.4209 -0.5731 -0.0975
    62IDT   C42 1986   4.773   2.845  -0.830 -0.0803 -0.5587  0.1934
    72IDQ   C43 1987   4.702   2.857  -0.582 -0.1818 -1.2125  0.3496
    72IDQ   C44 1988   4.882   2.684  -0.647  0.0169  0.4443 -0.1195
    62IDT    S5 1989   4.766   2.992  -1.050  0.8147  0.0620  0.5735
    62IDT   C45 1990   4.666   2.841  -1.037  0.2592  0.3783 -0.0066
    62IDT   C46 1991   4.682   2.778  -0.917 -0.1709 -0.0043 -0.1476
    82BTZ   C47 1992   4.558   2.810  -1.125  0.0009  0.0714 -0.4143
    82BTZ   C48 1993   4.487   2.917  -1.171  0.1712  0.0676 -0.6900
    82BTZ   C49 1994   4.372   2.901  -1.258  0.3037  0.0424 -0.8616
    82BTZ   C50 1995   4.329   2.778  -1.298  0.2661  0.0211 -0.7571
    82BTZ   C51 1996   4.517   2.678  -1.165 -0.0448  0.0497 -0.2954
    82BTZ   C52 1997   4.401   2.662  -1.253  0.0901  0.0242 -0.4697
    92RH    C53 1998   4.242   2.774  -1.426  0.1239  0.1485  0.1137
    82BTZ    N4 1999   4.578   2.566  -1.127 -0.2060  0.0510 -0.0296
    82BTZ    N5 2000   4.368   2.536  -1.285  0.0374  0.0049 -0.3440
    82BTZ    S6 2001   4.488   2.432  -1.203 -0.1918  0.0191  0.0098
    92RH    C54 2002   4.203   2.874  -1.506  0.0646  0.2184  0.2284
    92RH     S7 2003   4.234   3.053  -1.482 -0.2319  0.2276  0.5495
    92RH    C55 2004   4.126   2.853  -1.631  0.2365  0.3012  0.1080
    92RH     O2 2005   4.089   2.743  -1.676  0.4516  0.3160 -0.1085
    92RH     N6 2006   4.099   2.975  -1.696  0.1256  0.3637  0.2721
    92RH    C56 2007   4.144   3.091  -1.639 -0.1142  0.3408  0.5093
    92RH    C57 2008   4.024   2.986  -1.831  0.0297 -0.4632 -0.4093
    92RH    C58 2009   3.870   3.007  -1.810 -0.0713 -0.5236  0.0479
    92RH     S8 2010   4.125   3.249  -1.695 -0.2878  0.4025  0.7391
    72IDQ   C59 2011   4.966   2.614  -0.744 -0.0295  0.4172 -1.3385
    72IDQ   C60 2012   5.052   2.496  -0.670 -0.1714 -0.3925 -0.2167
    72IDQ   C61 2013   5.182   2.564  -0.588 -0.9882  0.8482  0.2512
    72IDQ   C62 2014   5.253   2.454  -0.500 -0.7536 -0.6347  0.0804
    72IDQ   C63 2015   5.352   2.518  -0.400 -1.3922 -0.8085  0.3746
    72IDQ   C64 2016   5.291   2.611  -0.294 -0.4880  0.5939 -0.7704
    72IDQ   C65 2017   5.269   2.539  -0.154  0.0565  1.0346  0.9602
    72IDQ   C66 2018   4.729   2.906  -0.443 -0.6203 -0.7384  1.1715
    72IDQ   C67 2019   4.654   3.049  -0.421  1.8571  0.4948  0.5674
    72IDQ   C68 2020   4.640   3.103  -0.282 -0.1827 -0.5470 -0.7201
    72IDQ   C69 2021   4.579   3.246  -0.265  0.0005  0.9143 -1.0383
    72IDQ   C70 2022   4.580   3.265  -0.113 -1.6060 -1.1463  0.2499
    72IDQ   C71 2023   4.461   3.224  -0.014  0.3185 -0.2107 -0.7485
    72IDQ   C72 2024   4.465   3.207   0.135  0.0561 -0.7418  0.3087
    11RH     C1 2025   5.201   1.766   1.940 -0.4122  0.4379 -0.0607
    11RH     C2 2026   5.145   1.841   2.055 -0.0927  0.2438  0.2204
    11RH     N1 2027   5.306   1.837   1.877 -0.5990  0.5524 -0.2468
    11RH     S1 2028   5.235   2.000   2.074 -0.0589  0.2247  0.2218
    11RH     C3 2029   5.341   1.960   1.929 -0.4685  0.4738 -0.1492
    11RH     C4 2030   5.404   1.778   1.782 -0.5561  0.8591  0.2115
    11RH     S2 2031   5.462   2.064   1.874 -0.6394  0.5790 -0.3267
    11RH     O1 2032   5.162   1.655   1.900 -0.5095  0.4962 -0.1298
    11RH     C5 2033   5.045   1.796   2.131  0.1308  0.1074  0.4352
    21BTZ    C6 2034   5.002   1.825   2.261  0.1019 -1.3551 -0.0226
    21BTZ    C7 2035   5.043   1.933   2.334  0.2275 -1.2147 -0.3021
    21BTZ    C8 2036   4.877   1.764   2.295 -0.1974 -0.8309 -0.1684
    21BTZ    C9 2037   4.965   1.987   2.442  0.0670 -0.5569 -0.7361
    21BTZ   C10 2038   4.844   1.932   2.478 -0.2191 -0.0405 -0.8898
    21BTZ   C11 2039   4.797   1.818   2.405 -0.3603 -0.1622 -0.6095
    21BTZ    N2 2040   4.826   1.658   2.231 -0.3433 -0.9061  0.0734
    21BTZ    N3 2041   4.681   1.755   2.430 -0.6375  0.3000 -0.7223
    21BTZ    S3 2042   4.670   1.622   2.311 -0.7030 -0.1085 -0.2594
    31IDT   C12 2043   4.763   2.007   2.565 -0.4498 -0.2028  0.5549
    31IDT   C13 2044   4.647   2.073   2.533  0.3185  1.1748  0.5378
    31IDT   C14 2045   4.588   2.139   2.645  1.1134  1.9596  0.5106
    31IDT   C15 2046   4.658   2.123   2.763  0.9570  1.1877  0.5073
    31IDT    S4 2047   4.805   2.023   2.741 -0.2204 -0.6097  0.5383
    4IDB    C16 2048   4.579   2.186   2.870 -0.4350 -0.8453  0.2217
    4IDB    C17 2049   4.463   2.251   2.819  0.2003 -0.1162 -0.3300
    51IDQ   C18 2050   4.455   2.215   2.666 -0.5830  0.1279  0.4523
    4IDB    C19 2051   4.370   2.310   2.905  0.2997  0.7169 -0.7795
    51IDQ   C20 2052   4.345   2.104   2.625 -0.0541  0.6842  0.5368
    51IDQ   C21 2053   4.414   2.354   2.598 -1.6316 -0.2791 -0.6675
    51IDQ   C22 2054   4.474   2.384   2.468 -0.1768  0.7006  2.2310
    51IDQ   C23 2055   4.241   2.041   2.737 -0.1141  0.5426 -0.0293
    51IDQ   C24 2056   4.503   2.522   2.431  0.2616  0.6248 -0.4638
    51IDQ   C25 2057   4.580   2.527   2.300  0.8739 -0.0494  0.4417
    51IDQ   C26 2058   4.641   2.675   2.312 -0.8988 -0.1828 -0.8234
    51IDQ   C27 2059   4.682   2.737   2.185 -0.2966  0.6395 -0.5741
    51IDQ   C28 2060   4.654   2.888   2.184  0.3439  0.2103  0.2009
    51IDQ   C29 2061   4.503   2.922   2.161 -0.4973  0.5842  0.1313
    51IDQ   C30 2062   4.182   1.913   2.684  0.2054  0.7657 -0.4939
    51IDQ   C31 2063   4.164   1.815   2.803 -0.3411 -1.0070 -0.9116
    51IDQ   C32 2064   4.016   1.808   2.813 -0.5818 -0.4929 -0.1037
    51IDQ   C33 2065   3.955   1.733   2.930  0.3090 -0.2840 -0.1109
    51IDQ   C34 2066   3.802   1.685   2.917  1.1336 -0.5989  0.3594
    51IDQ   C35 2067   3.781   1.587   2.794  0.6590  1.1598 -0.8347
    4IDB    C36 2068   4.604   2.180   3.008 -0.9773 -0.7442  0.3271
    4IDB    C37 2069   4.509   2.240   3.094 -0.8662  0.1119 -0.1377
    11RH    C38 2070   5.538   1.723   1.839 -0.8433  1.3388 -2.0355
    4IDB    C39 2071   4.395   2.303   3.043 -0.2426  0.8178 -0.6744
    62IDT   C40 2072   4.331   2.373   3.150 -0.5095 -0.4934 -0.5379
    72IDQ   C41 2073   4.520   2.268   3.244 -0.4307 -0.7303  0.0403
    62IDT   C42 2074   4.394   2.355   3.272  0.3674 -0.3402 -0.9574
    72IDQ   C43 2075   4.657   2.315   3.286 -0.2303  1.3231  0.3114
    72IDQ   C44 2076   4.472   2.136   3.323 -1.3293  0.8613 -1.5681
    62IDT    S5 2077   4.178   2.465   3.166 -0.4952 -0.6330  0.4746
    62IDT   C45 2078   4.207   2.475   3.345  0.7576 -0.4691  0.2672
    62IDT   C46 2079   4.324   2.413   3.383  1.0855 -0.3263 -0.5028
    82BTZ   C47 2080   4.102   2.534   3.431  0.0049  0.1877  0.3992
    82BTZ   C48 2081   4.151   2.603   3.539 -0.2453  0.1608  0.5330
    82BTZ   C49 2082   4.068   2.690   3.618 -0.4716  0.0029  0.4685
    82BTZ   C50 2083   3.935   2.707   3.590 -0.4472 -0.1277  0.2703
    82BTZ   C51 2084   3.963   2.548   3.398  0.0407  0.0548  0.1900
    82BTZ   C52 2085   3.878   2.637   3.479 -0.1893 -0.1056  0.1245
    92RH    C53 2086   3.860   2.803   3.662 -0.0539 -0.1247  0.2335
    82BTZ    N4 2087   3.903   2.486   3.296  0.2747  0.0659  0.0455
    82BTZ    N5 2088   3.750   2.645   3.441 -0.1403 -0.2235 -0.0726
    82BTZ    S6 2089   3.732   2.539   3.299  0.2090 -0.1324 -0.1852
    92RH    C54 2090   3.882   2.882   3.767  0.0997  0.0558  0.0670
    92RH     S7 2091   4.021   2.871   3.887  0.2337  0.2145 -0.0734
    92RH    C55 2092   3.793   2.995   3.804  0.1873  0.1574 -0.0316
    92RH     O2 2093   3.690   3.029   3.744  0.1303  0.0894  0.0263
    92RH     N6 2094   3.840   3.061   3.920  0.3474  0.3459 -0.2041
    92RH    C56 2095   3.955   3.015   3.980  0.3986  0.4075 -0.2556
    92RH    C57 2096   3.753   3.158   4.002 -0.6715  0.3904  0.6577
    92RH    C58 2097   3.696   3.291   3.939  0.5860 -0.0906 -0.0008
    92RH     S8 2098   4.031   3.077   4.117  0.5820  0.6236 -0.4523
    72IDQ   C59 2099   4.571   2.016   3.364  0.0401 -0.7056  0.1955
    72IDQ   C60 2100   4.513   1.877   3.328 -0.8874 -0.7395  0.7346
    72IDQ   C61 2101   4.595   1.757   3.371  0.4444 -0.4085  0.3450
    72IDQ   C62 2102   4.592   1.685   3.504 -0.0420 -0.2890 -0.2032
    72IDQ   C63 2103   4.486   1.716   3.605  0.1347  1.9151 -0.4685
    72IDQ   C64 2104   4.510   1.704   3.754  0.5566  0.0999 -1.0878
    72IDQ   C65 2105   4.592   1.815   3.809  0.7860 -0.7627 -0.3965
    72IDQ   C66 2106   4.684   2.474   3.264  1.4342  0.1816  0.8055
    72IDQ   C67 2107   4.822   2.502   3.200  0.8373  1.9548  0.0999
    72IDQ   C68 2108   4.800   2.475   3.039 -0.3637  2.1867 -0.3789
    72IDQ   C69 2109   4.902   2.516   2.941 -1.3886  1.1113 -0.5126
    72IDQ   C70 2110   4.946   2.401   2.847 -0.0982  1.0267 -1.3985
    72IDQ   C71 2111   5.045   2.474   2.766 -1.1577  1.1217 -0.6236
    72IDQ   C72 2112   5.073   2.432   2.621 -0.3110 -0.6974  0.0147
    11RH     C1 2113   6.671   3.665   0.469 -0.2353  0.1179 -0.1152
    11RH     C2 2114   6.656   3.670   0.322  0.1893  0.3409 -0.1519
    11RH     N1 2115   6.717   3.538   0.511 -0.0678  0.1481 -0.2037
    11RH     S1 2116   6.703   3.509   0.248  0.7813  0.5760 -0.3003
    11RH     C3 2117   6.740   3.441   0.416  0.4389  0.3681 -0.3067
    11RH     C4 2118   6.763   3.517   0.657  0.8138  0.0776 -1.1109
    11RH     S2 2119   6.794   3.283   0.440  0.7331  0.4505 -0.4250
    11RH     O1 2120   6.648   3.758   0.548 -0.6843 -0.0738 -0.0196
    11RH     C5 2121   6.614   3.779   0.256  0.1330  0.3604 -0.0843
    21BTZ    C6 2122   6.599   3.798   0.113  0.7109  0.0063 -0.1300
    21BTZ    C7 2123   6.652   3.715   0.019  0.6423 -0.1082 -0.0668
    21BTZ    C8 2124   6.545   3.924   0.071  0.6256 -0.0712 -0.2518
    21BTZ    C9 2125   6.655   3.750  -0.121  0.4876 -0.3033 -0.1194
    21BTZ   C10 2126   6.605   3.869  -0.166  0.4016 -0.3835 -0.2356
    21BTZ   C11 2127   6.548   3.960  -0.071  0.4683 -0.2695 -0.3052
    21BTZ    N2 2128   6.491   4.015   0.153  0.6797  0.0260 -0.3223
    21BTZ    N3 2129   6.496   4.079  -0.103  0.3960 -0.3316 -0.4191
    21BTZ    S3 2130   6.440   4.152   0.050  0.5288 -0.1350 -0.4635
    31IDT   C12 2131   6.615   3.898  -0.307 -0.1698  0.8337  0.0733
    31IDT   C13 2132   6.724   3.938  -0.380  0.1242 -0.0957 -0.0083
    31IDT   C14 2133   6.704   3.923  -0.521  0.2251 -0.7389  0.0422
    31IDT   C15 2134   6.581   3.872  -0.556  0.0086 -0.3050  0.1631
    31IDT    S4 2135   6.479   3.838  -0.412 -0.3421  0.9633  0.2226
    4IDB    C16 2136   6.588   3.859  -0.700  0.4946 -0.3911  0.1261
    4IDB    C17 2137   6.719   3.876  -0.752  0.2301  0.0393 -0.4051
    51IDQ   C18 2138   6.806   3.933  -0.637  2.8696  0.4515  1.0735
    4IDB    C19 2139   6.751   3.835  -0.881 -0.1156  0.0196 -0.4850
    51IDQ   C20 2140   6.937   3.863  -0.602  0.6758  0.1572 -0.4995
    51IDQ   C21 2141   6.861   4.083  -0.671 -0.2950  2.0117  0.7805
    51IDQ   C22 2142   6.795   4.173  -0.772  0.6137 -0.1710  0.4874
    51IDQ   C23 2143   6.964   3.765  -0.498 -0.6739 -2.3022 -0.3085
    51IDQ   C24 2144   6.891   4.272  -0.826  0.2678  0.6003 -1.2205
    51IDQ   C25 2145   6.983   4.202  -0.926 -0.4335  0.3714  0.6055
    51IDQ   C26 2146   7.084   4.295  -1.004 -0.4138  0.4322  0.0776
    51IDQ   C27 2147   7.013   4.398  -1.098  0.0690 -0.1934 -0.7489
    51IDQ   C28 2148   6.978   4.351  -1.247  0.0806  0.4298 -0.7923
    51IDQ   C29 2149   7.091   4.401  -1.322 -0.4627 -0.0879  1.0286
    51IDQ   C30 2150   6.906   3.622  -0.530  1.0966  0.7148  0.2737
    51IDQ   C31 2151   6.930   3.485  -0.460 -1.3932 -1.3015 -0.1161
    51IDQ   C32 2152   6.877   3.353  -0.536 -0.3220 -0.0397 -1.3625
    51IDQ   C33 2153   6.730   3.298  -0.565 -0.2661 -0.0658 -0.3991
    51IDQ   C34 2154   6.612   3.341  -0.491 -0.0540  0.0005  0.0045
    51IDQ   C35 2155   6.592   3.336  -0.340 -0.1778  0.3319  0.3068
    4IDB    C36 2156   6.486   3.799  -0.776  0.4146 -0.8469  0.5829
    4IDB    C37 2157   6.521   3.757  -0.908  0.0601 -0.8602  0.4933
    11RH    C38 2158   6.901   3.580   0.681  0.3321  0.2587  1.1634
    4IDB    C39 2159   6.650   3.775  -0.958 -0.1954 -0.4363 -0.0279
    62IDT   C40 2160   6.654   3.736  -1.100  0.1801 -1.0761  0.1969
    72IDQ   C41 2161   6.427   3.724  -1.035 -0.6522  0.4580 -0.0858
    62IDT   C42 2162   6.530   3.689  -1.138  0.2258 -0.9967 -0.0489
    72IDQ   C43 2163   6.342   3.855  -1.075  0.6491 -1.1982 -0.8005
    72IDQ   C44 2164   6.354   3.592  -1.044  0.6259  1.8557 -0.6573
    62IDT    S5 2165   6.773   3.729  -1.234  0.1123 -0.0014  0.0728
    62IDT   C45 2166   6.643   3.659  -1.340  0.1510  0.5246 -0.3247
    62IDT   C46 2167   6.524   3.645  -1.274  0.2091 -0.0916 -0.3440
    82BTZ   C47 2168   6.663   3.648  -1.480  0.3875  0.2597  0.0840
    82BTZ   C48 2169   6.791   3.671  -1.522  0.3543  0.0421 -0.1318
    82BTZ   C49 2170   6.829   3.652  -1.660  0.1388 -0.2201 -0.1564
    82BTZ   C50 2171   6.740   3.611  -1.755 -0.0433 -0.2639  0.0343
    82BTZ   C51 2172   6.565   3.605  -1.575  0.2019  0.2244  0.2897
    82BTZ   C52 2173   6.604   3.586  -1.715 -0.0172 -0.0421  0.2644
    92RH    C53 2174   6.775   3.597  -1.886 -0.2113  0.6973  0.4638
    82BTZ    N4 2175   6.437   3.580  -1.545  0.2134  0.4208  0.5093
    82BTZ    N5 2176   6.508   3.545  -1.798 -0.1817 -0.0597  0.4637
    82BTZ    S6 2177   6.360   3.529  -1.698 -0.0607  0.2703  0.6966
    92RH    C54 2178   6.890   3.597  -1.954 -0.2253  0.2743  0.4344
    92RH     S7 2179   7.059   3.595  -1.882 -0.2127 -0.1119  0.3952
    92RH    C55 2180   6.899   3.600  -2.102 -0.2544  0.0477  0.4289
    92RH     O2 2181   6.802   3.601  -2.179 -0.2689  0.2186  0.4506
    92RH     N6 2182   7.033   3.600  -2.146 -0.2642 -0.3968  0.3952
    92RH    C56 2183   7.133   3.597  -2.051 -0.2460 -0.5540  0.3734
    92RH    C57 2184   7.058   3.628  -2.295 -1.1323 -0.6458  0.6721
    92RH    C58 2185   7.069   3.497  -2.372  0.8220  0.1710 -0.3016
    92RH     S8 2186   7.299   3.597  -2.078 -0.2525 -1.0663  0.3319
    72IDQ   C59 2187   6.246   3.541  -0.946 -0.6354 -0.5378  0.6846
    72IDQ   C60 2188   6.321   3.447  -0.849 -0.0358  0.3592 -0.0127
    72IDQ   C61 2189   6.219   3.360  -0.770 -1.9307  0.4165 -1.3686
    72IDQ   C62 2190   6.189   3.415  -0.627  0.3349 -1.0278 -0.7540
    72IDQ   C63 2191   6.192   3.574  -0.573 -1.2477  0.2681 -0.9957
    72IDQ   C64 2192   6.106   3.617  -0.457 -0.1907  0.4515 -0.9657
    72IDQ   C65 2193   6.125   3.772  -0.441  0.2394 -0.4708 -0.3209
    72IDQ   C66 2194   6.232   3.880  -0.982 -0.0654  0.0322  0.8010
    72IDQ   C67 2195   6.198   4.015  -0.942 -0.0108 -0.8177 -0.2889
    72IDQ   C68 2196   6.289   4.086  -0.824 -0.5205  0.6055  0.2499
    72IDQ   C69 2197   6.226   4.065  -0.684  0.8148 -0.1615  1.0704
    72IDQ   C70 2198   6.296   4.131  -0.569 -1.1950 -1.3202 -0.1298
    72IDQ   C71 2199   6.230   4.186  -0.430  1.0308  0.8824  0.1718
    72IDQ   C72 2200   6.330   4.225  -0.326 -0.1141 -0.8607 -0.6867
    11RH     C1 2201   2.933   0.475   4.017  0.4478  0.1178 -0.2685
    11RH     C2 2202   2.831   0.478   4.124  0.3675 -0.0618 -0.3386
    11RH     N1 2203   2.958   0.604   3.965  0.3120  0.1718 -0.1996
    11RH     S1 2204   2.774   0.651   4.149  0.1188 -0.1480 -0.3100
    11RH     C3 2205   2.888   0.710   4.017  0.1328  0.0574 -0.2062
    11RH     C4 2206   3.072   0.615   3.872  1.1203  0.4571 -0.4741
    11RH     S2 2207   2.898   0.872   3.973 -0.0535  0.0895 -0.1338
    11RH     O1 2208   2.991   0.373   3.976  0.6129  0.2117 -0.2683
    11RH     C5 2209   2.789   0.369   4.189  0.4665 -0.1440 -0.4114
    21BTZ    C6 2210   2.698   0.337   4.308 -0.3856 -0.0069  0.0672
    21BTZ    C7 2211   2.646   0.444   4.378 -0.7291 -0.0914 -0.0548
    21BTZ    C8 2212   2.670   0.205   4.355  0.0015 -0.0460  0.1915
    21BTZ    C9 2213   2.566   0.425   4.496 -0.7098 -0.2177 -0.0618
    21BTZ   C10 2214   2.536   0.300   4.544 -0.3471 -0.2594  0.0544
    21BTZ   C11 2215   2.588   0.186   4.475  0.0212 -0.1744  0.1845
    21BTZ    N2 2216   2.714   0.093   4.295  0.3572  0.0276  0.3169
    21BTZ    N3 2217   2.566   0.059   4.512  0.3927 -0.2040  0.3042
    21BTZ    S3 2218   2.652  -0.043   4.393  0.7400 -0.0660  0.4334
    31IDT   C12 2219   2.450   0.287   4.659  1.1472 -1.4448  1.1081
    31IDT   C13 2220   2.379   0.176   4.696  1.6444 -1.4725  2.0077
    31IDT   C14 2221   2.305   0.195   4.817  0.8768 -0.5261  1.4057
    31IDT   C15 2222   2.319   0.320   4.873 -0.2081  0.2274  0.0467
    31IDT    S4 2223   2.428   0.425   4.776 -0.3429 -0.2070 -0.5815
    4IDB    C16 2224   2.231   0.351   4.995 -0.3554 -0.5207  0.0829
    4IDB    C17 2225   2.180   0.222   5.029 -0.8600 -0.3859 -0.1607
    51IDQ   C18 2226   2.235   0.116   4.918 -0.4465  1.1986 -1.0160
    4IDB    C19 2227   2.110   0.202   5.147 -0.6901 -0.3943 -0.0606
    51IDQ   C20 2228   2.324   0.007   5.006 -0.7195  0.5969 -0.2747
    51IDQ   C21 2229   2.130   0.025   4.846  0.0010 -0.0096 -1.0760
    51IDQ   C22 2230   1.994   0.010   4.888  0.8523  0.3153  1.1652
    51IDQ   C23 2231   2.478  -0.011   4.990  0.2924  0.7334 -0.5407
    51IDQ   C24 2232   1.944  -0.132   4.865 -0.3232  0.3696  0.1501
    51IDQ   C25 2233   1.851  -0.156   4.748 -0.3082  1.1419 -0.4771
    51IDQ   C26 2234   1.808  -0.305   4.744 -1.5836 -0.6258 -0.3833
    51IDQ   C27 2235   1.753  -0.370   4.619  0.6210 -0.2393 -0.3520
    51IDQ   C28 2236   1.849  -0.396   4.496 -1.1548  0.6082  0.0030
    51IDQ   C29 2237   1.798  -0.332   4.363 -0.3595 -0.6218 -0.2103
    51IDQ   C30 2238   2.549   0.113   5.019 -0.6044 -0.5975  0.1869
    51IDQ   C31 2239   2.668   0.125   4.920  0.3447 -0.2752 -0.0995
    51IDQ   C32 2240   2.794   0.231   4.930  1.5076  0.2385  0.0602
    51IDQ   C33 2241   2.737   0.369   4.932  0.1147  1.9608 -0.9628
    51IDQ   C34 2242   2.834   0.454   5.006 -0.4266  1.0209  1.0896
    51IDQ   C35 2243   2.922   0.558   4.939 -0.0812 -0.3578  0.1279
    4IDB    C36 2244   2.212   0.461   5.080  0.3264 -0.6655  0.4301
    4IDB    C37 2245   2.140   0.439   5.200  0.4908 -0.6719  0.5279
    11RH    C38 2246   3.040   0.647   3.723 -1.4336 -1.2974 -0.9571
    4IDB    C39 2247   2.091   0.312   5.232 -0.0085 -0.5392  0.2867
    62IDT   C40 2248   2.009   0.326   5.350  0.6442 -1.2451  0.0025
    72IDQ   C41 2249   2.107   0.546   5.307 -0.2468  1.7582 -1.0929
    62IDT   C42 2250   2.018   0.454   5.400  1.5665 -1.1828 -0.2956
    72IDQ   C43 2251   2.011   0.677   5.269 -0.1660 -0.0524  0.0742
    72IDQ   C44 2252   2.253   0.584   5.372  0.0185 -0.0088  0.2975
    62IDT    S5 2253   1.956   0.209   5.475 -0.4410 -0.5391  0.2135
    62IDT   C45 2254   1.947   0.346   5.594  0.4531 -0.1794 -0.1295
    62IDT   C46 2255   1.983   0.466   5.538  1.4598 -0.5803 -0.3705
    82BTZ   C47 2256   1.902   0.320   5.731  0.2080  0.0465  0.2332
    82BTZ   C48 2257   1.933   0.197   5.782  0.1113  0.0014  0.1841
    82BTZ   C49 2258   1.893   0.157   5.915 -0.1264 -0.1100  0.0796
    82BTZ   C50 2259   1.822   0.241   5.997 -0.2669 -0.1760  0.0250
    82BTZ   C51 2260   1.827   0.411   5.813  0.0678 -0.0194  0.1791
    82BTZ   C52 2261   1.786   0.371   5.948 -0.1738 -0.1325  0.0727
    92RH    C53 2262   1.790   0.198   6.136 -0.1122 -0.0240 -0.3741
    82BTZ    N4 2263   1.790   0.534   5.775  0.1423  0.0154  0.2184
    82BTZ    N5 2264   1.717   0.461   6.018 -0.2934 -0.1888  0.0277
    82BTZ    S6 2265   1.701   0.605   5.912 -0.0982 -0.0976  0.1198
    92RH    C54 2266   1.839   0.101   6.213 -0.1183  0.1060 -0.2055
    92RH     S7 2267   1.917  -0.055   6.156 -0.4331 -0.1503  0.0684
    92RH    C55 2268   1.839   0.106   6.361  0.1388  0.4915 -0.2158
    92RH     O2 2269   1.794   0.198   6.431  0.3853  0.7351 -0.3784
    92RH     N6 2270   1.898  -0.010   6.417  0.0704  0.5528 -0.0145
    92RH    C56 2271   1.945  -0.107   6.331 -0.2100  0.2639  0.1562
    92RH    C57 2272   1.899  -0.018   6.566 -0.9831 -0.5512 -1.4357
    92RH    C58 2273   2.018   0.060   6.639 -0.1903 -0.0776  0.9032
    92RH     S8 2274   2.019  -0.253   6.371 -0.3470  0.2642  0.4108
    72IDQ   C59 2275   2.368   0.485   5.411  0.3198  0.5430 -0.7310
    72IDQ   C60 2276   2.357   0.390   5.526  0.0979  0.6455  0.2621
    72IDQ   C61 2277   2.361   0.494   5.656 -0.1410  0.0745  0.5920
    72IDQ   C62 2278   2.308   0.436   5.783  0.5934  0.5458  0.0908
    72IDQ   C63 2279   2.379   0.321   5.868  1.0375 -0.0616 -1.7022
    72IDQ   C64 2280   2.420   0.197   5.794  0.9245  1.9207  1.0858
    72IDQ   C65 2281   2.546   0.134   5.859 -0.1030  0.6877 -1.0742
    72IDQ   C66 2282   2.032   0.819   5.312 -1.1203  0.4468  0.2174
    72IDQ   C67 2283   1.957   0.951   5.274  0.2577  0.0453  0.7334
    72IDQ   C68 2284   1.983   1.025   5.133 -0.5267  0.2638 -1.2484
    72IDQ   C69 2285   1.884   1.039   5.023 -0.0462 -0.5768 -0.6318
    72IDQ   C70 2286   1.755   1.107   5.041 -0.3420 -0.0941 -1.0353
    72IDQ   C71 2287   1.687   1.165   4.920  0.5968  1.3179 -0.3958
    72IDQ   C72 2288   1.761   1.274   4.848  1.3371  0.1758  0.7497
    11RH     C1 2289   4.155   0.781   0.682  0.7005  0.2682 -0.3293
    11RH     C2 2290   4.182   0.902   0.762  0.1354  0.0719  0.1625
    11RH     N1 2291   4.233   0.671   0.726  0.8627  0.3276 -0.4667
    11RH     S1 2292   4.308   0.865   0.891 -0.1460 -0.0219  0.4122
    11RH     C3 2293   4.319   0.691   0.832  0.4964  0.2029 -0.1450
    11RH     C4 2294   4.289   0.587   0.616 -0.4853  0.2136  0.1518
    11RH     S2 2295   4.422   0.578   0.903  0.5870  0.2383 -0.2194
    11RH     O1 2296   4.075   0.773   0.587  1.0021  0.3707 -0.5947
    11RH     C5 2297   4.121   1.020   0.741 -0.1163 -0.0183  0.3785
    21BTZ    C6 2298   4.121   1.155   0.797 -0.3964 -0.4254  0.1985
    21BTZ    C7 2299   4.186   1.168   0.917 -0.2356 -0.4259  0.1112
    21BTZ    C8 2300   4.042   1.265   0.750 -0.2306 -0.3180  0.1696
    21BTZ    C9 2301   4.177   1.288   0.996  0.0944 -0.3218 -0.0080
    21BTZ   C10 2302   4.103   1.396   0.954  0.2629 -0.2173 -0.0397
    21BTZ   C11 2303   4.033   1.387   0.830  0.1047 -0.2122  0.0485
    21BTZ    N2 2304   3.974   1.264   0.635 -0.3616 -0.3064  0.2468
    21BTZ    N3 2305   3.957   1.485   0.779  0.2433 -0.1155  0.0283
    21BTZ    S3 2306   3.893   1.424   0.624 -0.0553 -0.1567  0.1662
    31IDT   C12 2307   4.117   1.516   1.038 -0.2946  0.2200 -0.4662
    31IDT   C13 2308   4.112   1.646   0.997 -1.3247  0.2463 -0.2725
    31IDT   C14 2309   4.162   1.738   1.094 -1.8764  0.4858 -0.2094
    31IDT   C15 2310   4.206   1.678   1.210 -1.2721  0.6433 -0.3541
    31IDT    S4 2311   4.187   1.499   1.206  0.0543  0.4990 -0.5837
    4IDB    C16 2312   4.257   1.776   1.306  0.1050 -0.3836  0.5770
    4IDB    C17 2313   4.220   1.905   1.257  0.8237 -0.3765  0.0308
    51IDQ   C18 2314   4.184   1.884   1.104  2.2319 -0.3079 -1.7098
    4IDB    C19 2315   4.205   2.013   1.343  0.2116 -0.2238 -0.2622
    51IDQ   C20 2316   4.053   1.976   1.091  1.5893 -0.2740 -0.7229
    51IDQ   C21 2317   4.299   1.926   1.009 -1.2586 -1.1698  0.8512
    51IDQ   C22 2318   4.437   1.969   1.059  1.0474  0.6063 -1.0699
    51IDQ   C23 2319   3.908   1.921   1.078 -1.3640 -0.2518 -0.0931
    51IDQ   C24 2320   4.472   2.117   1.012  1.0043 -0.7163 -1.4484
    51IDQ   C25 2321   4.357   2.228   1.013  1.0642  0.2950  0.2441
    51IDQ   C26 2322   4.313   2.303   1.129 -1.0506 -1.2859 -0.6990
    51IDQ   C27 2323   4.171   2.368   1.103 -0.3958  0.5761 -0.5859
    51IDQ   C28 2324   4.048   2.299   1.168 -0.2252  0.0441 -0.6610
    51IDQ   C29 2325   3.996   2.405   1.266  1.1599  0.4779  0.0189
    51IDQ   C30 2326   3.776   2.014   1.093  0.1312 -0.0029 -0.3900
    51IDQ   C31 2327   3.754   2.075   1.228 -0.3879 -0.1712  0.3902
    51IDQ   C32 2328   3.642   2.168   1.242  0.8416  0.1953 -0.4338
    51IDQ   C33 2329   3.633   2.241   1.377  0.5713  0.1698  0.9189
    51IDQ   C34 2330   3.586   2.388   1.382 -0.5916 -0.0688 -0.4086
    51IDQ   C35 2331   3.615   2.435   1.528  0.1673  0.1265 -0.3116
    4IDB    C36 2332   4.280   1.755   1.443 -1.2398 -0.2372  0.8346
    4IDB    C37 2333   4.264   1.866   1.530 -1.8489 -0.0823  0.5289
    11RH    C38 2334   4.206   0.463   0.590 -1.3872 -0.3144  1.2863
    4IDB    C39 2335   4.227   1.991   1.480 -1.1330 -0.0773 -0.0047
    62IDT   C40 2336   4.207   2.085   1.579  0.0185  0.0611 -0.2371
    72IDQ   C41 2337   4.283   1.875   1.684  0.9435 -0.6646  1.5734
    62IDT   C42 2338   4.233   2.025   1.701 -1.1036 -0.2723 -0.1502
    72IDQ   C43 2339   4.427   1.836   1.714 -0.2031 -0.2139  0.9183
    72IDQ   C44 2340   4.174   1.788   1.751 -0.6308 -0.0316  0.0434
    62IDT    S5 2341   4.152   2.255   1.599  1.0280  0.4121 -0.3608
    62IDT   C45 2342   4.167   2.235   1.779 -0.1786  0.0728 -0.2848
    62IDT   C46 2343   4.211   2.110   1.814 -1.2169 -0.2662 -0.1771
    82BTZ   C47 2344   4.133   2.354   1.859 -0.0696 -0.3146 -0.0624
    82BTZ   C48 2345   4.062   2.324   1.972 -0.0274 -0.2313 -0.0136
    82BTZ   C49 2346   4.075   2.401   2.093 -0.0694 -0.0709 -0.1112
    82BTZ   C50 2347   4.160   2.509   2.101 -0.1535  0.0058 -0.2578
    82BTZ   C51 2348   4.223   2.466   1.862 -0.1576 -0.2395 -0.2149
    82BTZ   C52 2349   4.236   2.544   1.985 -0.2005 -0.0765 -0.3142
    92RH    C53 2350   4.189   2.588   2.224  0.2194  0.5252  0.0587
    82BTZ    N4 2351   4.298   2.505   1.758 -0.2053 -0.3084 -0.2755
    82BTZ    N5 2352   4.322   2.647   1.980 -0.2825 -0.0145 -0.4547
    82BTZ    S6 2353   4.390   2.647   1.815 -0.3088 -0.1649 -0.4660
    92RH    C54 2354   4.150   2.563   2.350  0.1569  0.4594  0.0259
    92RH     S7 2355   4.093   2.401   2.416 -0.1521  0.4930 -0.1581
    92RH    C55 2356   4.148   2.665   2.457  0.3350  0.3455  0.1379
    92RH     O2 2357   4.181   2.784   2.445  0.5586  0.2981  0.2726
    92RH     N6 2358   4.103   2.610   2.579  0.2187  0.2953  0.0726
    92RH    C56 2359   4.069   2.476   2.583 -0.0310  0.3549 -0.0781
    92RH    C57 2360   4.122   2.666   2.715  0.1567  0.5907  0.7164
    92RH    C58 2361   4.035   2.752   2.805 -0.0880 -0.5713  0.6268
    92RH     S8 2362   4.012   2.387   2.714 -0.2124  0.3146 -0.1825
    72IDQ   C59 2363   4.203   1.750   1.911  0.1701  0.3617  0.8581
    72IDQ   C60 2364   4.093   1.668   1.973  0.6547 -0.3590 -0.0684
    72IDQ   C61 2365   3.982   1.780   2.008  1.6728 -0.3738  0.7309
    72IDQ   C62 2366   3.829   1.757   1.980 -0.9143 -0.1311  0.3987
    72IDQ   C63 2367   3.738   1.859   2.033 -0.1950  0.0677 -0.0235
    72IDQ   C64 2368   3.607   1.796   2.061  0.8543 -0.5079  0.0365
    72IDQ   C65 2369   3.485   1.889   2.094  0.7063 -0.6498 -0.5795
    72IDQ   C66 2370   4.530   1.904   1.774 -0.3134 -1.1500 -1.4167
    72IDQ   C67 2371   4.618   2.005   1.687 -0.0481 -1.1015 -0.2735
    72IDQ   C68 2372   4.692   1.913   1.590  0.0124 -0.4853  0.8059
    72IDQ   C69 2373   4.831   1.948   1.567  1.3894 -0.4564 -1.0019
    72IDQ   C70 2374   4.967   1.887   1.601  0.5839  0.3944  0.4030
    72IDQ   C71 2375   4.953   1.728   1.576  0.0204 -0.6123 -0.3144
    72IDQ   C72 2376   5.103   1.684   1.577  0.0708 -0.5987  1.2055
    11RH     C1 2377   3.194   5.911   0.648 -0.2508 -0.1347 -0.2937
    11RH     C2 2378   3.173   6.038   0.722  0.0167 -0.1025 -0.2728
    11RH     N1 2379   3.073   5.864   0.591 -0.3466  0.1348 -0.3129
    11RH     S1 2380   2.997   6.088   0.710  0.1248  0.2789 -0.2798
    11RH     C3 2381   2.959   5.938   0.609 -0.1886  0.3779 -0.3100
    11RH     C4 2382   3.075   5.743   0.502 -0.7711 -0.8301 -1.2261
    11RH     S2 2383   2.804   5.905   0.552 -0.2555  0.7219 -0.3300
    11RH     O1 2384   3.302   5.850   0.637 -0.3792 -0.3653 -0.2947
    11RH     C5 2385   3.271   6.103   0.785  0.1520 -0.3247 -0.2521
    21BTZ    C6 2386   3.282   6.232   0.873 -0.0869 -0.1212  0.0001
    21BTZ    C7 2387   3.165   6.298   0.897 -0.2048 -0.3719  0.1207
    21BTZ    C8 2388   3.394   6.258   0.958 -0.0600  0.1056 -0.1045
    21BTZ    C9 2389   3.152   6.393   1.005 -0.3016 -0.4122  0.1445
    21BTZ   C10 2390   3.256   6.421   1.089 -0.2803 -0.2019  0.0479
    21BTZ   C11 2391   3.381   6.354   1.068 -0.1583  0.0646 -0.0802
    21BTZ    N2 2392   3.514   6.200   0.945  0.0511  0.3600 -0.2261
    21BTZ    N3 2393   3.490   6.373   1.143 -0.1262  0.2856 -0.1822
    21BTZ    S3 2394   3.617   6.267   1.075  0.0346  0.5614 -0.3166
    31IDT   C12 2395   3.246   6.507   1.212  0.8885 -0.9865  0.4512
    31IDT   C13 2396   3.337   6.598   1.259  0.3875 -0.5255  0.5385
    31IDT   C14 2397   3.306   6.647   1.390 -0.4197 -0.0672  0.1834
    31IDT   C15 2398   3.191   6.593   1.444 -0.5391 -0.1754 -0.1761
    31IDT    S4 2399   3.113   6.476   1.332  0.3696 -0.8729 -0.0921
    4IDB    C16 2400   3.164   6.657   1.570  0.1200  0.9728 -0.4282
    4IDB    C17 2401   3.268   6.749   1.604  0.1824  0.6404  0.2897
    51IDQ   C18 2402   3.373   6.737   1.493  0.1253  0.9029 -0.0368
    4IDB    C19 2403   3.266   6.818   1.725 -0.0896  0.1602  0.5614
    51IDQ   C20 2404   3.403   6.877   1.422  0.8020 -0.5224  0.2624
    51IDQ   C21 2405   3.507   6.665   1.523  0.3428 -0.0119 -0.2688
    51IDQ   C22 2406   3.571   6.673   1.659 -0.2941  0.8261 -0.5601
    51IDQ   C23 2407   3.377   6.910   1.276 -0.8493  0.2767 -0.6132
    51IDQ   C24 2408   3.647   6.801   1.705  0.9679  0.4631  0.1731
    51IDQ   C25 2409   3.716   6.781   1.837 -0.8340 -0.0614  0.9186
    51IDQ   C26 2410   3.765   6.910   1.919  0.4557  0.5140  0.3551
    51IDQ   C27 2411   3.672   7.019   1.957  0.3725 -0.0785  0.7527
    51IDQ   C28 2412   3.588   7.110   1.866 -0.5595 -0.5304 -0.1521
    51IDQ   C29 2413   3.589   7.264   1.889 -1.4241  0.1974 -1.1159
    51IDQ   C30 2414   3.517   6.934   1.205  0.1623  1.3580  1.2310
    51IDQ   C31 2415   3.529   7.008   1.071  0.5060  0.3704 -0.0739
    51IDQ   C32 2416   3.600   6.920   0.957 -0.6199 -0.7863 -1.0032
    51IDQ   C33 2417   3.531   6.779   0.919 -0.5612 -0.3448  0.0289
    51IDQ   C34 2418   3.624   6.737   0.809 -0.1210 -0.2169 -0.9938
    51IDQ   C35 2419   3.619   6.593   0.758  0.9941 -0.2574 -0.7645
    4IDB    C36 2420   3.056   6.634   1.657 -0.2171  0.8256 -0.8810
    4IDB    C37 2421   3.056   6.705   1.780 -0.4920  0.3333 -0.5941
    11RH    C38 2422   3.118   5.752   0.365  0.7870 -0.3581  1.3393
    4IDB    C39 2423   3.158   6.794   1.812 -0.4267  0.0130  0.1087
    62IDT   C40 2424   3.122   6.844   1.948 -0.3237  0.4465 -0.7441
    72IDQ   C41 2425   2.946   6.705   1.890 -1.4086 -0.6328  0.2246
    62IDT   C42 2426   3.018   6.774   2.006 -0.2130  0.1030 -0.9583
    72IDQ   C43 2427   2.924   6.555   1.954 -0.7980 -0.1918 -0.8609
    72IDQ   C44 2428   2.808   6.751   1.836 -0.6440 -0.8361 -0.0606
    62IDT    S5 2429   3.212   6.943   2.068 -0.3643  0.0767 -0.4078
    62IDT   C45 2430   3.099   6.881   2.197 -0.2225 -0.5539 -0.5830
    62IDT   C46 2431   3.005   6.795   2.147 -0.1556 -0.4632 -0.8674
    82BTZ   C47 2432   3.115   6.904   2.342 -0.0973  0.2060 -0.3079
    82BTZ   C48 2433   3.015   6.863   2.426  0.0032 -0.0618 -0.3189
    82BTZ   C49 2434   3.034   6.853   2.569  0.0906 -0.2537 -0.3442
    82BTZ   C50 2435   3.154   6.884   2.627  0.0777 -0.1769 -0.3584
    82BTZ   C51 2436   3.242   6.938   2.399 -0.1148  0.2964 -0.3222
    82BTZ   C52 2437   3.262   6.928   2.544 -0.0259  0.1013 -0.3479
    92RH    C53 2438   3.178   6.868   2.770  0.1974 -0.2527 -0.1329
    82BTZ    N4 2439   3.347   6.979   2.328 -0.2087  0.5519 -0.3135
    82BTZ    N5 2440   3.383   6.961   2.589 -0.0483  0.2003 -0.3599
    82BTZ    S6 2441   3.479   7.008   2.445 -0.1872  0.5540 -0.3385
    92RH    C54 2442   3.121   6.793   2.865  0.0864 -0.1597 -0.1261
    92RH     S7 2443   2.975   6.684   2.847 -0.0056 -0.0345 -0.1442
    92RH    C55 2444   3.170   6.789   3.005  0.0191 -0.1435 -0.1018
    92RH     O2 2445   3.267   6.852   3.050  0.0564 -0.2127 -0.0855
    92RH     N6 2446   3.092   6.702   3.085 -0.0955 -0.0374 -0.0996
    92RH    C56 2447   2.986   6.637   3.025 -0.1286  0.0329 -0.1187
    92RH    C57 2448   3.111   6.669   3.234 -1.1849 -0.8682 -0.9110
    92RH    C58 2449   3.056   6.772   3.327  0.1175 -0.2866 -0.2737
    92RH     S8 2450   2.878   6.529   3.097 -0.2590  0.1628 -0.1209
    72IDQ   C59 2451   2.770   6.825   1.696 -0.8090 -0.7187 -0.2068
    72IDQ   C60 2452   2.825   6.973   1.674 -1.5949  0.6629  0.6802
    72IDQ   C61 2453   2.765   7.015   1.543 -0.5785  0.5915  1.5210
    72IDQ   C62 2454   2.843   7.118   1.458  0.4026 -0.7824 -0.2466
    72IDQ   C63 2455   2.999   7.098   1.467  0.8143  0.7254 -0.0460
    72IDQ   C64 2456   3.042   6.987   1.382 -0.7581  0.5843  0.4561
    72IDQ   C65 2457   3.019   6.974   1.230 -0.9067  0.4427 -0.7376
    72IDQ   C66 2458   2.886   6.423   1.879  0.5754  0.4751  0.1423
    72IDQ   C67 2459   2.741   6.410   1.875  2.1551 -1.4537  0.5668
    72IDQ   C68 2460   2.672   6.327   1.762  0.4581 -0.3073  0.2943
    72IDQ   C69 2461   2.518   6.337   1.776 -0.2360 -0.4778 -0.6283
    72IDQ   C70 2462   2.456   6.239   1.675  0.0245  0.0005 -0.3185
    72IDQ   C71 2463   2.308   6.250   1.642  0.2245  0.2884 -0.3877
    72IDQ   C72 2464   2.241   6.147   1.548 -0.4295 -0.6472 -1.7065
    11RH     C1 2465   5.035   1.629   3.330  0.2775 -0.2447  0.0018
    11RH     C2 2466   5.160   1.587   3.262  0.3979 -0.0708  0.1153
    11RH     N1 2467   5.061   1.681   3.458  0.0867 -0.2152  0.0292
    11RH     S1 2468   5.304   1.620   3.371  0.2525  0.1201  0.2503
    11RH     C3 2469   5.192   1.687   3.501  0.0396 -0.0390  0.1506
    11RH     C4 2470   4.937   1.722   3.550  0.2182 -0.4453  1.2054
    11RH     S2 2471   5.250   1.745   3.649 -0.1757  0.0325  0.2075
    11RH     O1 2472   4.920   1.620   3.283  0.3335 -0.3985 -0.1048
    11RH     C5 2473   5.163   1.534   3.139  0.5842 -0.0606  0.1149
    21BTZ    C6 2474   5.272   1.515   3.054 -0.1002 -0.4982  0.1038
    21BTZ    C7 2475   5.394   1.572   3.077 -0.0324 -0.7898  0.4736
    21BTZ    C8 2476   5.255   1.433   2.937 -0.0153 -0.2522 -0.0827
    21BTZ    C9 2477   5.505   1.551   2.987  0.1214 -0.8537  0.6777
    21BTZ   C10 2478   5.494   1.474   2.874  0.2070 -0.6262  0.5115
    21BTZ   C11 2479   5.367   1.413   2.846  0.1411 -0.3172  0.1247
    21BTZ    N2 2480   5.140   1.373   2.904 -0.0689  0.0410 -0.4420
    21BTZ    N3 2481   5.344   1.335   2.740  0.2127 -0.0762 -0.0678
    21BTZ    S3 2482   5.172   1.285   2.752  0.0813  0.2508 -0.5319
    31IDT   C12 2483   5.626   1.452   2.809  0.2216  0.0293 -0.2662
    31IDT   C13 2484   5.656   1.419   2.679  0.1748 -0.5035 -0.1459
    31IDT   C14 2485   5.796   1.401   2.658  0.1266 -1.0386 -0.0247
    31IDT   C15 2486   5.873   1.420   2.770  0.1366 -0.9176 -0.0514
    31IDT    S4 2487   5.774   1.462   2.914  0.2082 -0.1091 -0.2340
    4IDB    C16 2488   6.004   1.378   2.749  0.3798 -0.6817 -0.4068
    4IDB    C17 2489   6.016   1.322   2.618  0.5851 -1.0532 -0.2296
    51IDQ   C18 2490   5.885   1.356   2.541 -0.2613  0.2201  0.5492
    4IDB    C19 2491   6.133   1.258   2.578  0.6166 -1.2430  0.1635
    51IDQ   C20 2492   5.953   1.477   2.457  0.7185  1.4536  0.5267
    51IDQ   C21 2493   5.835   1.232   2.447 -0.3655  0.0897 -0.5681
    51IDQ   C22 2494   5.744   1.127   2.523  0.4906  1.2107  0.1482
    51IDQ   C23 2495   5.925   1.628   2.454  0.6935  0.6110 -1.2313
    51IDQ   C24 2496   5.817   1.003   2.586  1.5273 -0.4584 -0.2352
    51IDQ   C25 2497   5.723   0.885   2.629  1.2364  1.3344  0.7745
    51IDQ   C26 2498   5.768   0.798   2.766  0.9708  0.1045  1.7526
    51IDQ   C27 2499   5.868   0.863   2.868 -0.9996 -0.2989  1.4981
    51IDQ   C28 2500   5.822   0.850   3.015  0.1347 -0.0357 -0.0733
    51IDQ   C29 2501   5.912   0.912   3.125 -0.0248  0.7021 -0.0842
    51IDQ   C30 2502   5.782   1.676   2.410  0.3162  0.3366 -0.4659
    51IDQ   C31 2503   5.778   1.803   2.345  0.5864 -1.0443 -0.5362
    51IDQ   C32 2504   5.717   1.929   2.418  0.2268 -0.1040 -0.0404
    51IDQ   C33 2505   5.594   1.932   2.515  0.4555  1.1335 -1.2023
    51IDQ   C34 2506   5.529   1.835   2.596 -0.2214  0.3216 -0.1437
    51IDQ   C35 2507   5.437   1.858   2.714 -1.7411  0.5984  0.6359
    4IDB    C36 2508   6.109   1.370   2.841  0.2036 -0.4970 -0.1901
    4IDB    C37 2509   6.228   1.305   2.799  0.2387 -0.6955  0.2112
    11RH    C38 2510   4.936   1.641   3.679 -0.4166  0.8615 -0.2265
    4IDB    C39 2511   6.238   1.251   2.671  0.4405 -1.0584  0.3801
    62IDT   C40 2512   6.352   1.165   2.661  0.4178  0.2192  0.5777
    72IDQ   C41 2513   6.359   1.253   2.874  3.0578 -0.5136 -1.2714
    62IDT   C42 2514   6.429   1.169   2.775  0.6886 -0.1541  0.4104
    72IDQ   C43 2515   6.339   1.183   3.014 -1.2228  1.7468 -0.2397
    72IDQ   C44 2516   6.454   1.375   2.889 -1.2180  0.0265  0.0367
    62IDT    S5 2517   6.418   1.050   2.540 -0.0424  0.3814  0.1715
    62IDT   C45 2518   6.553   1.011   2.656  0.1657 -0.0872 -0.2223
    62IDT   C46 2519   6.543   1.082   2.773  0.5465 -0.3280 -0.0421
    82BTZ   C47 2520   6.683   0.979   2.606 -0.0923 -0.1171  0.4931
    82BTZ   C48 2521   6.721   1.054   2.498 -0.0191  0.0305  0.6210
    82BTZ   C49 2522   6.844   1.028   2.427  0.0374  0.1382  0.6790
    82BTZ   C50 2523   6.928   0.927   2.464  0.0202  0.0982  0.6089
    82BTZ   C51 2524   6.768   0.872   2.649 -0.1130 -0.1645  0.4154
    82BTZ   C52 2525   6.893   0.846   2.577 -0.0553 -0.0550  0.4745
    92RH    C53 2526   7.027   0.888   2.375  0.3192  0.3790  0.2440
    82BTZ    N4 2527   6.741   0.792   2.753 -0.1822 -0.3051  0.2900
    82BTZ    N5 2528   6.967   0.744   2.623 -0.0787 -0.1076  0.3965
    82BTZ    S6 2529   6.878   0.677   2.763 -0.1768 -0.3034  0.2407
    92RH    C54 2530   7.078   0.923   2.257  0.2439  0.2713  0.1801
    92RH     S7 2531   7.030   1.068   2.155  0.0351  0.0642 -0.0163
    92RH    C55 2532   7.184   0.846   2.188  0.3214  0.3052  0.2624
    92RH     O2 2533   7.238   0.743   2.231  0.4622  0.4344  0.3972
    92RH     N6 2534   7.219   0.906   2.064  0.2142  0.1702  0.1676
    92RH    C56 2535   7.153   1.020   2.026  0.0603  0.0324  0.0196
    92RH    C57 2536   7.326   0.855   1.989 -0.1586  0.6294 -0.6298
    92RH    C58 2537   7.451   0.950   1.995  1.2334 -0.8066  0.6695
    92RH     S8 2538   7.175   1.109   1.885 -0.0896 -0.1436 -0.1156
    72IDQ   C59 2539   6.539   1.468   2.802  0.3059  0.6917  0.9539
    72IDQ   C60 2540   6.552   1.440   2.646 -0.5674 -0.0085 -0.1246
    72IDQ   C61 2541   6.642   1.532   2.554  0.1770 -0.5392  0.3721
    72IDQ   C62 2542   6.791   1.507   2.541  0.8372 -1.0486  0.2624
    72IDQ   C63 2543   6.879   1.483   2.667  0.8425  0.5547  0.4790
    72IDQ   C64 2544   7.026   1.453   2.653  0.4070  0.3631  0.4334
    72IDQ   C65 2545   7.043   1.305   2.608  0.2039 -0.0769  0.2890
    72IDQ   C66 2546   6.311   1.249   3.150 -0.2682  0.2871 -0.7774
    72IDQ   C67 2547   6.203   1.362   3.153 -0.1530 -0.3208 -0.5376
    72IDQ   C68 2548   6.102   1.334   3.267 -0.3783  2.0562  0.9522
    72IDQ   C69 2549   5.976   1.419   3.271  0.3331 -0.0276  0.1435
    72IDQ   C70 2550   5.991   1.571   3.226 -1.2888 -0.5965 -0.0234
    72IDQ   C71 2551   5.870   1.651   3.269  0.3048 -0.0163 -0.1164
    72IDQ   C72 2552   5.908   1.794   3.316 -1.8549  0.5347  0.2448
    11RH     C1 2553   4.706   3.920   3.974  0.2029 -0.0288  0.1310
    11RH     C2 2554   4.687   3.904   4.120  0.2754  0.3630  0.1843
    11RH     N1 2555   4.836   3.881   3.934  0.0909 -0.4028  0.1282
    11RH     S1 2556   4.841   3.839   4.196  0.1915  0.2139  0.2270
    11RH     C3 2557   4.923   3.835   4.031  0.0646 -0.3587  0.1729
    11RH     C4 2558   4.874   3.893   3.793 -0.5354 -0.0232 -0.9545
    11RH     S2 2559   5.082   3.783   4.010 -0.0615 -0.7498  0.1795
    11RH     O1 2560   4.621   3.962   3.894  0.2346 -0.0370  0.0935
    11RH     C5 2561   4.573   3.934   4.183  0.3854  0.7594  0.1973
    21BTZ    C6 2562   4.534   3.894   4.320 -0.0775 -0.1646  0.1814
    21BTZ    C7 2563   4.610   3.806   4.392 -0.0880 -0.1107  0.2589
    21BTZ    C8 2564   4.420   3.954   4.384  0.0684  0.0877  0.2062
    21BTZ    C9 2565   4.579   3.772   4.529  0.0434  0.1916  0.3643
    21BTZ   C10 2566   4.472   3.827   4.594  0.1847  0.4395  0.3920
    21BTZ   C11 2567   4.388   3.920   4.523  0.2017  0.3949  0.3133
    21BTZ    N2 2568   4.338   4.041   4.325  0.0930  0.0644  0.1376
    21BTZ    N3 2569   4.281   3.980   4.575  0.3338  0.6183  0.3307
    21BTZ    S3 2570   4.214   4.084   4.447  0.2919  0.4419  0.2081
    31IDT   C12 2571   4.460   3.788   4.735 -0.5483 -0.0286  0.4345
    31IDT   C13 2572   4.490   3.666   4.788  0.0408  0.1724  0.5701
    31IDT   C14 2573   4.430   3.645   4.916  0.5083  0.1984  0.7966
    31IDT   C15 2574   4.354   3.751   4.961  0.2792  0.0179  0.8349
    31IDT    S4 2575   4.352   3.887   4.843 -0.5542 -0.2012  0.5852
    4IDB    C16 2576   4.297   3.723   5.087  0.3439 -0.1433  0.3667
    4IDB    C17 2577   4.335   3.592   5.126  1.5767  0.3616  0.9229
    51IDQ   C18 2578   4.423   3.531   5.019 -0.9704  1.0506  0.0623
    4IDB    C19 2579   4.294   3.539   5.248  1.2396  0.1456  0.7189
    51IDQ   C20 2580   4.575   3.480   5.055  1.1131  0.0198  0.3658
    51IDQ   C21 2581   4.365   3.407   4.943  0.7789  0.8470 -0.1084
    51IDQ   C22 2582   4.218   3.350   4.958 -0.7863  1.1733  0.3461
    51IDQ   C23 2583   4.654   3.589   5.136 -0.2272 -0.3513  0.3148
    51IDQ   C24 2584   4.108   3.399   4.868 -0.1947 -0.5944 -0.7309
    51IDQ   C25 2585   4.056   3.295   4.762  0.5888 -0.9554 -0.2445
    51IDQ   C26 2586   3.908   3.250   4.758 -0.6941 -0.4275  0.0050
    51IDQ   C27 2587   3.863   3.198   4.619  0.0803  0.0104  0.0285
    51IDQ   C28 2588   3.927   3.080   4.559 -0.2382  0.5665 -0.1845
    51IDQ   C29 2589   4.014   3.126   4.455 -0.5688  1.4396  0.0215
    51IDQ   C30 2590   4.758   3.565   5.248 -0.9474 -0.5836 -0.1631
    51IDQ   C31 2591   4.704   3.536   5.384 -0.6039 -1.4858  0.4064
    51IDQ   C32 2592   4.603   3.426   5.421 -0.6841 -0.3705  0.0194
    51IDQ   C33 2593   4.552   3.450   5.561 -1.0869 -0.5307  0.5598
    51IDQ   C34 2594   4.527   3.327   5.643  0.9405 -0.1653  0.5145
    51IDQ   C35 2595   4.543   3.187   5.574  0.7713 -0.0871  1.2360
    4IDB    C36 2596   4.218   3.804   5.170 -1.2429 -0.8715 -0.4020
    4IDB    C37 2597   4.177   3.748   5.294 -1.5647 -1.0823 -0.6001
    11RH    C38 2598   4.830   3.788   3.672 -0.9963  0.8250 -0.4075
    4IDB    C39 2599   4.215   3.619   5.331 -0.3467 -0.5826 -0.0498
    62IDT   C40 2600   4.165   3.584   5.467  0.3113 -0.1185 -0.1043
    72IDQ   C41 2601   4.110   3.812   5.429  0.4183 -1.0823  0.4119
    62IDT   C42 2602   4.109   3.693   5.530  0.4549  0.1519 -0.4425
    72IDQ   C43 2603   3.968   3.873   5.394 -0.2967  1.1247  0.5341
    72IDQ   C44 2604   4.209   3.918   5.504 -0.0470 -0.3815 -0.3834
    62IDT    S5 2605   4.148   3.434   5.565 -0.2554  0.1240  0.1718
    62IDT   C45 2606   4.061   3.532   5.691 -0.2686  0.6013 -0.2030
    62IDT   C46 2607   4.050   3.664   5.656  0.1276  0.5591 -0.4988
    82BTZ   C47 2608   4.023   3.472   5.822  0.2252  0.2737  0.1212
    82BTZ   C48 2609   4.050   3.340   5.849  0.4323  0.3295  0.1862
    82BTZ   C49 2610   4.005   3.277   5.970  0.5965  0.3384  0.2522
    82BTZ   C50 2611   3.933   3.345   6.065  0.5531  0.2918  0.2529
    82BTZ   C51 2612   3.947   3.547   5.918  0.1717  0.2234  0.1190
    82BTZ   C52 2613   3.902   3.483   6.042  0.3386  0.2326  0.1862
    92RH    C53 2614   3.872   3.268   6.174  0.3235  0.1796 -0.1931
    82BTZ    N4 2615   3.915   3.676   5.904 -0.0244  0.1669  0.0589
    82BTZ    N5 2616   3.832   3.559   6.126  0.2764  0.1835  0.1798
    82BTZ    S6 2617   3.822   3.721   6.050 -0.0039  0.1222  0.0861
    92RH    C54 2618   3.888   3.138   6.202  0.1861  0.1794 -0.1137
    92RH     S7 2619   4.016   3.026   6.133  0.0633  0.0003 -0.0509
    92RH    C55 2620   3.802   3.063   6.296  0.1107  0.3299 -0.0632
    92RH     O2 2621   3.706   3.110   6.360  0.1640  0.4711 -0.0875
    92RH     N6 2622   3.842   2.928   6.307 -0.0329  0.2936  0.0180
    92RH    C56 2623   3.949   2.885   6.232 -0.0817  0.1326  0.0389
    92RH    C57 2624   3.768   2.834   6.414 -0.3666  0.2299  0.0930
    92RH    C58 2625   3.641   2.772   6.349  1.2084  1.2412  0.1561
    92RH     S8 2626   4.016   2.731   6.227 -0.2470  0.0573  0.1307
    72IDQ   C59 2627   4.331   3.973   5.447 -1.5077 -0.0004  1.0197
    72IDQ   C60 2628   4.457   3.925   5.492 -0.9731 -1.9371 -0.6521
    72IDQ   C61 2629   4.582   3.990   5.422 -0.6801  0.4143 -0.2351
    72IDQ   C62 2630   4.603   3.947   5.274 -1.5219  1.4563 -0.6861
    72IDQ   C63 2631   4.545   4.008   5.143 -0.3481 -0.9634 -0.1184
    72IDQ   C64 2632   4.642   3.941   5.043  0.2161 -0.1281 -0.5495
    72IDQ   C65 2633   4.689   4.045   4.942  0.0976 -1.1170  0.3972
    72IDQ   C66 2634   3.861   3.925   5.492  1.1552  0.4258 -0.6492
    72IDQ   C67 2635   3.762   3.804   5.522 -0.2148 -0.1300  0.1190
    72IDQ   C68 2636   3.619   3.851   5.560 -0.1985 -0.3292 -1.0816
    72IDQ   C69 2637   3.555   3.753   5.661  1.2559  0.5888  0.1565
    72IDQ   C70 2638   3.451   3.647   5.615 -0.3207  1.2482  0.8774
    72IDQ   C71 2639   3.488   3.571   5.476  0.6291 -0.2001  0.0574
    72IDQ   C72 2640   3.370   3.476   5.466  1.2344  0.5846 -0.8613
    11RH     C1 2641   3.014   5.143   3.579  0.0422  0.1867  0.1178
    11RH     C2 2642   2.916   5.183   3.682  0.0247  0.3657  0.0323
    11RH     N1 2643   3.114   5.057   3.632 -0.1007  0.0884  0.2278
    11RH     S1 2644   2.960   5.106   3.843 -0.1783  0.3936  0.1021
    11RH     C3 2645   3.107   5.024   3.765 -0.2304  0.1671  0.2408
    11RH     C4 2646   3.196   4.975   3.534 -1.2115 -1.7719  0.1694
    11RH     S2 2647   3.212   4.925   3.853 -0.4132  0.0794  0.3617
    11RH     O1 2648   3.012   5.178   3.460  0.1651  0.1268  0.0975
    11RH     C5 2649   2.812   5.263   3.658  0.1424  0.4854 -0.0783
    21BTZ    C6 2650   2.716   5.326   3.759  0.8250  0.4195 -0.3924
    21BTZ    C7 2651   2.702   5.302   3.893  0.7174 -0.0315 -0.4824
    21BTZ    C8 2652   2.619   5.410   3.694  0.6815  0.3574 -0.2583
    21BTZ    C9 2653   2.594   5.358   3.969  0.4652 -0.5624 -0.4455
    21BTZ   C10 2654   2.499   5.439   3.912  0.3210 -0.6415 -0.3187
    21BTZ   C11 2655   2.509   5.467   3.772  0.4252 -0.1822 -0.2209
    21BTZ    N2 2656   2.621   5.440   3.564  0.7656  0.7653 -0.1618
    21BTZ    N3 2657   2.422   5.543   3.704  0.3030 -0.2081 -0.0942
    21BTZ    S3 2658   2.479   5.546   3.535  0.5154  0.4708 -0.0160
    31IDT   C12 2659   2.444   5.537   4.015 -0.3486  0.4794  0.1111
    31IDT   C13 2660   2.342   5.624   3.991 -0.3898  0.4947  0.3425
    31IDT   C14 2661   2.305   5.700   4.107 -0.1215  0.4973  0.4258
    31IDT   C15 2662   2.380   5.671   4.219  0.1254  0.4842  0.2591
    31IDT    S4 2663   2.503   5.544   4.187  0.0366  0.4674 -0.0192
    4IDB    C16 2664   2.320   5.760   4.328 -0.0337 -0.0940  0.2869
    4IDB    C17 2665   2.213   5.842   4.279  0.6086  0.8030  0.3691
    51IDQ   C18 2666   2.211   5.833   4.129 -0.4531  1.5262  0.1305
    4IDB    C19 2667   2.132   5.914   4.366  0.5946  0.6214  0.5060
    51IDQ   C20 2668   2.064   5.797   4.081 -0.3307  0.3010  0.9702
    51IDQ   C21 2669   2.271   5.947   4.039 -2.0278  0.7643 -0.4443
    51IDQ   C22 2670   2.415   5.989   4.069  0.9819 -0.9495 -0.3498
    51IDQ   C23 2671   2.023   5.730   3.954 -0.0522  1.0792  0.8845
    51IDQ   C24 2672   2.458   6.105   4.172 -0.2288  0.8500  0.1736
    51IDQ   C25 2673   2.611   6.092   4.178 -0.2594  0.0267 -0.9201
    51IDQ   C26 2674   2.711   6.113   4.055  1.4177 -0.3362 -1.6060
    51IDQ   C27 2675   2.726   6.260   3.999 -0.7547  0.3537  0.6705
    51IDQ   C28 2676   2.852   6.269   3.914 -0.4364  0.3391 -0.8005
    51IDQ   C29 2677   2.980   6.306   3.990  0.1855  0.1947 -0.4315
    51IDQ   C30 2678   1.996   5.826   3.827  0.5364 -0.4469  1.2785
    51IDQ   C31 2679   1.997   5.750   3.691  0.0971  0.2836 -1.4085
    51IDQ   C32 2680   2.122   5.712   3.616  0.2099  0.4697 -0.4925
    51IDQ   C33 2681   2.187   5.837   3.545  0.1126 -0.3753 -0.2147
    51IDQ   C34 2682   2.231   5.955   3.639 -0.5547  0.2609  0.6507
    51IDQ   C35 2683   2.334   6.049   3.579 -0.2757  0.9268 -0.4415
    4IDB    C36 2684   2.346   5.750   4.465 -0.6976 -1.1852  0.3417
    4IDB    C37 2685   2.262   5.824   4.553 -0.7015 -1.3554  0.4816
    11RH    C38 2686   3.123   4.845   3.498  0.9391  0.1270 -0.4013
    4IDB    C39 2687   2.159   5.903   4.504 -0.0694 -0.4701  0.5605
    62IDT   C40 2688   2.088   5.962   4.607 -0.0840 -0.6233  0.0666
    72IDQ   C41 2689   2.281   5.864   4.692  0.3101 -0.2203 -0.5752
    62IDT   C42 2690   2.176   5.979   4.712  0.0043 -0.7153  0.0086
    72IDQ   C43 2691   2.433   5.926   4.699 -0.9163 -0.3546  0.0375
    72IDQ   C44 2692   2.266   5.759   4.813  1.0671 -0.5992  0.6533
    62IDT    S5 2693   1.930   6.042   4.637  0.1045 -0.2490  0.0675
    62IDT   C45 2694   1.994   6.097   4.798  0.3023 -0.2360 -0.0149
    62IDT   C46 2695   2.122   6.055   4.821  0.2227 -0.4961 -0.0377
    82BTZ   C47 2696   1.914   6.178   4.885 -0.3204  0.5820 -0.1623
    82BTZ   C48 2697   1.828   6.268   4.829 -0.5010  0.5736  0.0989
    82BTZ   C49 2698   1.749   6.358   4.910 -0.5058  0.3450  0.3507
    82BTZ   C50 2699   1.757   6.357   5.047 -0.3301  0.1247  0.3408
    82BTZ   C51 2700   1.925   6.173   5.028 -0.1323  0.3564 -0.1838
    82BTZ   C52 2701   1.845   6.264   5.110 -0.1372  0.1237  0.0720
    92RH    C53 2702   1.694   6.447   5.145  0.3151 -0.5937  0.5254
    82BTZ    N4 2703   2.006   6.089   5.095  0.0532  0.3409 -0.4263
    82BTZ    N5 2704   1.861   6.254   5.243  0.0442 -0.0784  0.0350
    82BTZ    S6 2705   1.982   6.125   5.268  0.2329  0.0213 -0.3360
    92RH    C54 2706   1.635   6.567   5.137  0.2708 -0.6213  0.4377
    92RH     S7 2707   1.623   6.673   4.988  0.0368 -0.8338  0.3034
    92RH    C55 2708   1.568   6.633   5.251  0.4101 -0.4787  0.4368
    92RH     O2 2709   1.558   6.587   5.366  0.5805 -0.3202  0.5150
    92RH     N6 2710   1.514   6.758   5.214  0.3248 -0.5452  0.3339
    92RH    C56 2711   1.530   6.800   5.084  0.1343 -0.7238  0.2522
    92RH    C57 2712   1.424   6.832   5.308 -1.1281 -0.0952  0.3640
    92RH    C58 2713   1.491   6.907   5.422  0.8602 -0.3223 -0.4693
    92RH     S8 2714   1.477   6.944   5.015 -0.0004 -0.8361  0.1230
    72IDQ   C59 2715   2.132   5.686   4.806  0.4687  0.0478  0.3133
    72IDQ   C60 2716   2.064   5.656   4.947 -0.3566 -0.0822 -0.5365
    72IDQ   C61 2717   2.096   5.528   5.007 -0.0196 -0.9956 -0.7302
    72IDQ   C62 2718   2.243   5.475   5.014  0.8603  0.0203 -0.7741
    72IDQ   C63 2719   2.270   5.439   5.155 -0.2264  1.1235  0.6276
    72IDQ   C64 2720   2.224   5.527   5.280  0.4802 -0.3833 -1.9409
    72IDQ   C65 2721   2.256   5.681   5.270  0.9418  0.2051 -1.0090
    72IDQ   C66 2722   2.467   6.059   4.747  0.2789 -0.4831  0.7968
    72IDQ   C67 2723   2.413   6.175   4.661 -0.8528  0.4010 -1.3844
    72IDQ   C68 2724   2.489   6.292   4.688  0.9173 -0.6449 -0.6633
    72IDQ   C69 2725   2.492   6.398   4.583  0.3346 -1.0776  0.7867
    72IDQ   C70 2726   2.627   6.494   4.585  1.8116 -0.0729 -1.1527
    72IDQ   C71 2727   2.673   6.597   4.687 -1.1736  0.0720 -0.8630
    72IDQ   C72 2728   2.569   6.689   4.769 -1.5354  0.1002  0.4526
    11RH     C1 2729   0.738   0.622   6.890 -0.4233  0.3267 -0.4263
    11RH     C2 2730   0.787   0.761   6.873 -0.1551  0.2527 -0.2713
    11RH     N1 2731   0.796   0.535   6.794 -0.2020  0.2272 -0.2042
    11RH     S1 2732   0.905   0.769   6.733  0.3703  0.0571  0.1560
    11RH     C3 2733   0.884   0.588   6.703  0.2105  0.0825  0.1094
    11RH     C4 2734   0.768   0.396   6.805  1.0556 -0.4419 -0.2614
    11RH     S2 2735   0.966   0.507   6.580  0.5412 -0.0570  0.4189
    11RH     O1 2736   0.657   0.583   6.976 -0.7955  0.4590 -0.7138
    11RH     C5 2737   0.747   0.862   6.951 -0.2886  0.3222 -0.4285
    21BTZ    C6 2738   0.801   0.985   6.973  0.2713  0.2942 -0.2657
    21BTZ    C7 2739   0.924   1.032   6.935  0.1690  0.4367 -0.4194
    21BTZ    C8 2740   0.717   1.068   7.055  0.2817  0.1921 -0.1504
    21BTZ    C9 2741   0.970   1.163   6.975  0.0724  0.4858 -0.4677
    21BTZ   C10 2742   0.894   1.246   7.053  0.0782  0.3924 -0.3619
    21BTZ   C11 2743   0.765   1.201   7.095  0.1836  0.2421 -0.1994
    21BTZ    N2 2744   0.596   1.033   7.098  0.3769  0.0507  0.0029
    21BTZ    N3 2745   0.681   1.273   7.171  0.1997  0.1407 -0.0854
    21BTZ    S3 2746   0.536   1.171   7.195  0.3442 -0.0264  0.0930
    31IDT   C12 2747   0.976   1.334   7.139  0.1884  0.2276  0.3934
    31IDT   C13 2748   0.933   1.450   7.197  0.4642  0.0185  1.0309
    31IDT   C14 2749   1.040   1.532   7.244  0.6929 -0.1341  0.7766
    31IDT   C15 2750   1.166   1.479   7.222  0.5933 -0.0425 -0.0542
    31IDT    S4 2751   1.158   1.319   7.140  0.1985  0.2467 -0.5840
    4IDB    C16 2752   1.260   1.576   7.264  0.8866 -0.5942  1.1456
    4IDB    C17 2753   1.197   1.690   7.320  0.6772 -0.2712  0.2725
    51IDQ   C18 2754   1.041   1.661   7.312 -1.3712 -0.6980 -0.7810
    4IDB    C19 2755   1.271   1.791   7.380  0.4280 -0.1713  0.4163
    51IDQ   C20 2756   0.987   1.660   7.455 -0.5665 -0.2023  0.4604
    51IDQ   C21 2757   0.941   1.772   7.230  0.2271  0.2921  0.5279
    51IDQ   C22 2758   1.002   1.897   7.170 -0.5699  0.3789 -0.8101
    51IDQ   C23 2759   0.963   1.524   7.524  0.0469  0.3235  0.3540
    51IDQ   C24 2760   0.919   1.960   7.069 -0.9770  0.9935 -0.3272
    51IDQ   C25 2761   0.970   1.967   6.928 -0.6040 -0.7323 -0.3239
    51IDQ   C26 2762   0.862   1.892   6.837 -0.8533  0.8147 -1.3681
    51IDQ   C27 2763   0.714   1.918   6.819  1.2792 -0.3467  0.7414
    51IDQ   C28 2764   0.623   1.814   6.750  0.1596  0.3058 -0.8741
    51IDQ   C29 2765   0.634   1.684   6.844  0.1320 -0.1846 -0.0018
    51IDQ   C30 2766   1.075   1.483   7.614 -0.6388 -0.8140 -1.5157
    51IDQ   C31 2767   1.051   1.366   7.713 -1.0302 -0.3155 -1.2016
    51IDQ   C32 2768   0.951   1.360   7.819  0.7641 -0.2591  0.1888
    51IDQ   C33 2769   0.900   1.485   7.889 -0.0508  0.9533 -0.0590
    51IDQ   C34 2770   0.896   1.470   8.033 -0.2114  0.1710  0.5656
    51IDQ   C35 2771   0.830   1.573   8.132  0.1745  1.3463  0.8526
    4IDB    C36 2772   1.400   1.561   7.267  0.8475 -0.8207  2.1738
    4IDB    C37 2773   1.475   1.665   7.329  0.5915 -0.7143  2.3055
    11RH    C38 2774   0.635   0.360   6.735  0.0636  1.3782 -2.6905
    4IDB    C39 2775   1.411   1.776   7.383  0.3890 -0.3978  1.4444
    62IDT   C40 2776   1.513   1.874   7.442  1.0225 -0.2750 -0.1655
    72IDQ   C41 2777   1.627   1.680   7.366 -0.4084 -0.0282 -1.8537
    62IDT   C42 2778   1.638   1.815   7.438  1.2780  0.3077 -0.8562
    72IDQ   C43 2779   1.716   1.675   7.247 -0.1541  0.1133  0.3247
    72IDQ   C44 2780   1.672   1.555   7.464  1.2061  0.2531  0.8452
    62IDT    S5 2781   1.520   2.044   7.499  0.4995 -0.3332  0.0876
    62IDT   C45 2782   1.701   2.027   7.514  0.6618  0.4728 -0.7969
    62IDT   C46 2783   1.744   1.902   7.478  1.0744  0.7314 -1.2141
    82BTZ   C47 2784   1.787   2.133   7.564  0.3131  0.3654  0.0511
    82BTZ   C48 2785   1.733   2.259   7.563  0.0669  0.2602  0.1232
    82BTZ   C49 2786   1.811   2.375   7.598 -0.1917  0.3797  0.3001
    82BTZ   C50 2787   1.942   2.366   7.635 -0.2036  0.6038  0.4046
    82BTZ   C51 2788   1.925   2.118   7.601  0.3115  0.6001  0.1553
    82BTZ   C52 2789   2.004   2.236   7.637  0.0488  0.7215  0.3351
    92RH    C53 2790   2.030   2.487   7.639  0.0135 -0.4917  0.0302
    82BTZ    N4 2791   1.989   2.001   7.606  0.5378  0.7207  0.0998
    82BTZ    N5 2792   2.131   2.214   7.671  0.0638  0.9398  0.4241
    82BTZ    S6 2793   2.156   2.037   7.658  0.4220  1.0007  0.2788
    92RH    C54 2794   2.009   2.613   7.602  0.1030 -0.4437  0.1418
    92RH     S7 2795   1.866   2.678   7.507  0.3453 -0.3278 -0.1472
    92RH    C55 2796   2.102   2.724   7.634  0.0160 -0.4789  0.5306
    92RH     O2 2797   2.209   2.714   7.697 -0.1469 -0.5552  0.7939
    92RH     N6 2798   2.055   2.847   7.582  0.1421 -0.4141  0.5694
    92RH    C56 2799   1.936   2.848   7.514  0.3197 -0.3312  0.2594
    92RH    C57 2800   2.153   2.967   7.588  0.7123  0.8424  0.1423
    92RH    C58 2801   2.243   2.989   7.465 -0.8155  0.9868 -0.2411
    92RH     S8 2802   1.858   2.980   7.443  0.4954 -0.2428  0.2308
    72IDQ   C59 2803   1.606   1.555   7.604 -2.0613 -0.7606 -1.6473
    72IDQ   C60 2804   1.714   1.513   7.708  0.9904  0.2173 -1.2514
    72IDQ   C61 2805   1.785   1.646   7.756 -0.1183  0.2974 -0.3662
    72IDQ   C62 2806   1.728   1.672   7.890  0.8480 -0.7762  0.6249
    72IDQ   C63 2807   1.782   1.800   7.954  0.0634 -0.5145 -0.5428
    72IDQ   C64 2808   1.767   1.925   7.888  0.7399 -0.2974  0.3627
    72IDQ   C65 2809   1.651   2.016   7.887  1.3693 -0.6676  1.6328
    72IDQ   C66 2810   1.661   1.685   7.104 -2.4760  0.0917 -0.0921
    72IDQ   C67 2811   1.601   1.820   7.054 -0.4925  1.1365 -0.1630
    72IDQ   C68 2812   1.564   1.824   6.915  0.0151 -0.4564  0.7647
    72IDQ   C69 2813   1.482   1.950   6.889 -1.0427  0.3696  0.6592
    72IDQ   C70 2814   1.419   1.946   6.760  0.2215  1.4817  1.4031
    72IDQ   C71 2815   1.274   2.000   6.755  0.0520 -2.0019  1.1080
    72IDQ   C72 2816   1.230   2.035   6.614 -0.1902 -0.0410 -0.0269
    11RH     C1 2817   2.679   0.767   2.087 -0.0306  0.3362  0.0585
    11RH     C2 2818   2.602   0.751   2.213 -0.1081  0.0710 -0.0211
    11RH     N1 2819   2.603   0.830   1.987 -0.0446  0.3456  0.0750
    11RH     S1 2820   2.434   0.822   2.191 -0.1939 -0.1487 -0.0692
    11RH     C3 2821   2.474   0.868   2.017 -0.1234  0.1204  0.0180
    11RH     C4 2822   2.673   0.880   1.874  0.6870  0.7576 -0.2972
    11RH     S2 2823   2.363   0.945   1.916 -0.1562  0.0795  0.0228
    11RH     O1 2824   2.797   0.729   2.069  0.0383  0.5291  0.1061
    11RH     C5 2825   2.651   0.694   2.323 -0.1119  0.0093 -0.0510
    21BTZ    C6 2826   2.584   0.649   2.449 -0.3271  0.0889  0.1502
    21BTZ    C7 2827   2.452   0.670   2.480 -0.4427 -0.2766 -0.0898
    21BTZ    C8 2828   2.664   0.569   2.537 -0.2842  0.2497  0.2574
    21BTZ    C9 2829   2.392   0.614   2.599 -0.5214 -0.5011 -0.2354
    21BTZ   C10 2830   2.465   0.537   2.686 -0.4845 -0.3598 -0.1412
    21BTZ   C11 2831   2.603   0.512   2.658 -0.3642  0.0215  0.1092
    21BTZ    N2 2832   2.793   0.542   2.518 -0.1736  0.6022  0.4890
    21BTZ    N3 2833   2.684   0.439   2.735 -0.3179  0.1906  0.2218
    21BTZ    S3 2834   2.844   0.440   2.656 -0.1668  0.6585  0.5283
    31IDT   C12 2835   2.402   0.495   2.818  0.8274  0.3067  0.2747
    31IDT   C13 2836   2.376   0.365   2.856  1.2317  0.2867  0.4907
    31IDT   C14 2837   2.291   0.357   2.970  1.1977  0.2097  0.4593
    31IDT   C15 2838   2.251   0.479   3.020  0.7683  0.1706  0.2199
    31IDT    S4 2839   2.319   0.616   2.926  0.3699  0.2287  0.0134
    4IDB    C16 2840   2.140   0.469   3.120  1.1692 -0.9623 -0.3117
    4IDB    C17 2841   2.107   0.331   3.134 -0.1395 -0.6833 -0.4548
    51IDQ   C18 2842   2.221   0.251   3.057  2.7290 -0.7514 -1.7959
    4IDB    C19 2843   2.001   0.290   3.214 -0.2730  0.2096 -0.1656
    51IDQ   C20 2844   2.296   0.178   3.159 -0.0084 -1.3666 -0.0901
    51IDQ   C21 2845   2.162   0.128   2.958  0.2156  0.2032  0.3750
    51IDQ   C22 2846   2.035   0.043   2.961 -0.3853  1.1976  0.3218
    51IDQ   C23 2847   2.453   0.207   3.156 -0.7118 -0.1877 -1.1305
    51IDQ   C24 2848   2.033  -0.070   3.060  1.7100 -0.4075 -1.3108
    51IDQ   C25 2849   1.933  -0.183   3.023 -0.2448 -1.1737  0.9627
    51IDQ   C26 2850   1.891  -0.288   3.130 -1.2287 -0.0840  0.6814
    51IDQ   C27 2851   1.815  -0.237   3.253  0.3399 -0.1470 -0.2108
    51IDQ   C28 2852   1.720  -0.111   3.233 -0.2701  0.0356  2.0090
    51IDQ   C29 2853   1.602  -0.100   3.331 -0.4078 -0.7571 -0.0024
    51IDQ   C30 2854   2.563   0.171   3.059  0.6655  1.8227  0.4233
    51IDQ   C31 2855   2.687   0.102   3.121  0.1750 -0.2127  0.1287
    51IDQ   C32 2856   2.811   0.188   3.155 -0.1921 -0.5418  0.2131
    51IDQ   C33 2857   2.895   0.257   3.046 -1.1770  0.6450 -0.1543
    51IDQ   C34 2858   2.977   0.144   2.990  1.0475 -0.5848  0.6933
    51IDQ   C35 2859   3.000   0.159   2.847  0.4476 -0.7377 -1.0127
    4IDB    C36 2860   2.066   0.568   3.187  2.3589 -0.3454  0.1241
    4IDB    C37 2861   1.958   0.524   3.268  2.2025  0.5642  0.4148
    11RH    C38 2862   2.797   0.964   1.863 -0.3700 -0.8205  1.7214
    4IDB    C39 2863   1.927   0.389   3.281  0.9166  0.8265  0.2700
    62IDT   C40 2864   1.817   0.370   3.368  0.1051  0.5702  0.2298
    72IDQ   C41 2865   1.829   0.602   3.314  0.5462 -0.5036 -1.1284
    62IDT   C42 2866   1.754   0.491   3.390  0.3417  0.6020  0.7536
    72IDQ   C43 2867   1.748   0.656   3.185 -0.6057 -0.5689 -0.2580
    72IDQ   C44 2868   1.852   0.720   3.417 -0.7244  0.7199  0.4791
    62IDT    S5 2869   1.749   0.239   3.471 -0.4154  0.1624 -0.6178
    62IDT   C45 2870   1.634   0.361   3.542 -0.2790  0.0509 -0.1988
    62IDT   C46 2871   1.650   0.486   3.488  0.1249  0.3085  0.5121
    82BTZ   C47 2872   1.524   0.291   3.621  0.5079 -0.1507  0.2933
    82BTZ   C48 2873   1.486   0.163   3.592  0.5171 -0.1511  0.2828
    82BTZ   C49 2874   1.383   0.096   3.669  0.4292 -0.1181  0.1936
    82BTZ   C50 2875   1.320   0.158   3.774  0.3320 -0.0846  0.1153
    82BTZ   C51 2876   1.461   0.360   3.730  0.4077 -0.1162  0.2133
    82BTZ   C52 2877   1.357   0.292   3.807  0.3183 -0.0826  0.1227
    92RH    C53 2878   1.218   0.106   3.859 -0.7362  0.2610  0.0681
    82BTZ    N4 2879   1.490   0.485   3.767  0.3889 -0.1122  0.2146
    82BTZ    N5 2880   1.302   0.363   3.907  0.2276 -0.0516  0.0513
    82BTZ    S6 2881   1.384   0.522   3.906  0.2532 -0.0643  0.0980
    92RH    C54 2882   1.162  -0.015   3.860 -0.6868  0.2370 -0.0873
    92RH     S7 2883   1.217  -0.163   3.766 -0.6887  0.4074 -0.3579
    92RH    C55 2884   1.042  -0.049   3.940 -0.6211  0.0620 -0.0622
    92RH     O2 2885   0.980   0.029   4.014 -0.6041 -0.0804  0.1023
    92RH     N6 2886   1.004  -0.184   3.922 -0.5787  0.0752 -0.2514
    92RH    C56 2887   1.079  -0.262   3.837 -0.6024  0.2391 -0.4250
    92RH    C57 2888   0.877  -0.229   3.972  0.2357 -1.0098 -0.9179
    92RH    C58 2889   0.886  -0.272   4.120  0.4057 -0.3351  0.4955
    92RH     S8 2890   1.056  -0.425   3.799 -0.5622  0.2906 -0.6675
    72IDQ   C59 2891   1.994   0.781   3.438 -0.3668  1.5074  0.1349
    72IDQ   C60 2892   2.041   0.900   3.349  1.3205  0.4911 -0.5828
    72IDQ   C61 2893   2.160   0.962   3.419  0.2086  0.4584  0.3740
    72IDQ   C62 2894   2.233   1.090   3.374 -0.4744  1.0487  0.6536
    72IDQ   C63 2895   2.308   1.164   3.481 -0.1039  0.5468 -0.5363
    72IDQ   C64 2896   2.323   1.314   3.493 -0.4191 -0.2377 -0.0143
    72IDQ   C65 2897   2.390   1.363   3.624 -0.5594 -0.2444 -0.3110
    72IDQ   C66 2898   1.724   0.585   3.054  0.8301  0.3996 -1.8745
    72IDQ   C67 2899   1.610   0.464   3.075 -0.3922  0.2229  0.5254
    72IDQ   C68 2900   1.599   0.348   2.989 -0.5799 -0.3322 -0.3713
    72IDQ   C69 2901   1.621   0.369   2.833  0.5883 -0.3243 -0.1851
    72IDQ   C70 2902   1.758   0.401   2.764  0.4580  0.1065  0.9603
    72IDQ   C71 2903   1.757   0.469   2.630  1.2163  1.3784  0.3837
    72IDQ   C72 2904   1.702   0.383   2.517 -0.4229  1.1733  0.2812
    11RH     C1 2905   5.870   3.011   0.588 -0.5929 -0.5058  0.1473
    11RH     C2 2906   6.014   2.989   0.611 -0.5348 -0.1720  0.0987
    11RH     N1 2907   5.812   2.903   0.517 -0.3488 -0.5974  0.0888
    11RH     S1 2908   6.066   2.829   0.539 -0.1630  0.0001 -0.0207
    11RH     C3 2909   5.894   2.798   0.481 -0.1025 -0.3775 -0.0006
    11RH     C4 2910   5.663   2.890   0.496  2.2762  0.8123  0.8856
    11RH     S2 2911   5.851   2.658   0.397  0.2151 -0.4261 -0.0837
    11RH     O1 2912   5.804   3.110   0.624 -0.8240 -0.6875  0.2289
    11RH     C5 2913   6.092   3.077   0.676 -0.7299 -0.0266  0.1385
    21BTZ    C6 2914   6.235   3.092   0.703  0.5499  0.0541 -0.2345
    21BTZ    C7 2915   6.336   3.012   0.656  0.6475 -0.0061  0.0782
    21BTZ    C8 2916   6.267   3.199   0.792  0.3722  0.2170 -0.3636
    21BTZ    C9 2917   6.473   3.034   0.695  0.5763  0.0899  0.2785
    21BTZ   C10 2918   6.509   3.135   0.780  0.4076  0.2460  0.1658
    21BTZ   C11 2919   6.407   3.221   0.832  0.2997  0.3145 -0.1600
    21BTZ    N2 2920   6.177   3.283   0.844  0.2642  0.2891 -0.6644
    21BTZ    N3 2921   6.429   3.322   0.916  0.1335  0.4652 -0.2971
    21BTZ    S3 2922   6.269   3.396   0.948  0.0613  0.4889 -0.7008
    31IDT   C12 2923   6.633   3.114   0.847 -0.4630 -0.0611  0.3422
    31IDT   C13 2924   6.691   2.991   0.862 -0.4189 -0.0430  0.3221
    31IDT   C14 2925   6.830   2.999   0.891 -0.4110  0.0011  0.2745
    31IDT   C15 2926   6.880   3.127   0.899 -0.4488  0.0165  0.2581
    31IDT    S4 2927   6.752   3.250   0.870 -0.4978 -0.0237  0.3020
    4IDB    C16 2928   7.025   3.120   0.918 -0.0015 -0.2230 -0.2783
    4IDB    C17 2929   7.069   2.985   0.931  0.1937 -0.1117  0.2649
    51IDQ   C18 2930   6.949   2.901   0.902  0.7579 -1.2875  0.0175
    4IDB    C19 2931   7.202   2.955   0.956  0.3051  0.1717  0.0148
    51IDQ   C20 2932   6.975   2.803   0.777 -0.5448  0.2080 -0.3951
    51IDQ   C21 2933   6.908   2.800   1.025 -0.8481 -0.7800  1.0159
    51IDQ   C22 2934   6.995   2.755   1.135  0.5898 -0.3596  0.6871
    51IDQ   C23 2935   6.904   2.795   0.642  0.4645  0.8581 -0.4832
    51IDQ   C24 2936   7.090   2.647   1.096 -0.6565 -0.1047  0.0930
    51IDQ   C25 2937   7.145   2.531   1.185 -1.2050 -0.1337 -0.4921
    51IDQ   C26 2938   7.153   2.531   1.338 -1.1605  0.1001 -0.5130
    51IDQ   C27 2939   7.032   2.520   1.433  1.6935  0.5857 -0.0440
    51IDQ   C28 2940   6.904   2.456   1.380  0.4356  0.1202  0.5066
    51IDQ   C29 2941   6.810   2.393   1.481 -0.3823 -0.8371  0.1053
    51IDQ   C30 2942   6.928   2.922   0.561  0.5728 -1.0072 -0.7504
    51IDQ   C31 2943   7.081   2.963   0.546  1.0652 -0.3779  0.3929
    51IDQ   C32 2944   7.098   3.042   0.419 -0.4459 -0.5283  1.2615
    51IDQ   C33 2945   7.039   2.993   0.287 -1.0899  0.2489 -0.4257
    51IDQ   C34 2946   7.116   2.948   0.161  0.4969 -0.3105  0.2497
    51IDQ   C35 2947   7.236   3.037   0.116  0.3432 -0.8889  0.3905
    4IDB    C36 2948   7.115   3.227   0.931 -0.0868 -0.0505 -1.0797
    4IDB    C37 2949   7.251   3.195   0.956  0.0293  0.2385 -1.3245
    11RH    C38 2950   5.583   2.984   0.395 -0.6218 -0.8927  0.6167
    4IDB    C39 2951   7.292   3.062   0.969  0.2198  0.3442 -0.7866
    62IDT   C40 2952   7.430   3.059   1.006  0.1885 -0.2415 -0.7471
    72IDQ   C41 2953   7.385   3.289   0.969  1.2933  0.4818  0.1482
    62IDT   C42 2954   7.490   3.183   0.995  0.4929 -0.4712 -1.7936
    72IDQ   C43 2955   7.374   3.384   1.089  0.5136 -0.1350  0.4345
    72IDQ   C44 2956   7.460   3.351   0.839  0.8196  1.0246 -0.6182
    62IDT    S5 2957   7.538   2.938   1.083 -0.1929  0.1857  0.4901
    62IDT   C45 2958   7.665   3.067   1.097  0.0933  0.0232 -0.5220
    62IDT   C46 2959   7.623   3.188   1.046  0.4395 -0.3220 -1.6679
    82BTZ   C47 2960   7.797   3.023   1.139  0.5173 -0.1152 -0.0660
    82BTZ   C48 2961   7.822   3.003   1.272  0.6458 -0.2807 -0.1146
    82BTZ   C49 2962   7.955   2.974   1.321  0.7104 -0.2418 -0.2665
    82BTZ   C50 2963   8.062   2.966   1.237  0.6463 -0.0372 -0.3696
    82BTZ   C51 2964   7.906   3.015   1.047  0.4461  0.1020 -0.1696
    82BTZ   C52 2965   8.041   2.986   1.096  0.5116  0.1417 -0.3240
    92RH    C53 2966   8.199   2.937   1.267  0.0270  0.0220  0.1186
    82BTZ    N4 2967   7.895   3.033   0.915  0.3206  0.2766 -0.1355
    82BTZ    N5 2968   8.138   2.980   1.004  0.4389  0.3481 -0.4140
    82BTZ    S6 2969   8.059   3.012   0.847  0.2802  0.5039 -0.3029
    92RH    C54 2970   8.274   2.904   1.372  0.0392 -0.0938  0.0729
    92RH     S7 2971   8.220   2.894   1.547  0.1409  0.0265  0.1109
    92RH    C55 2972   8.417   2.867   1.362 -0.0305 -0.3455 -0.0185
    92RH     O2 2973   8.484   2.864   1.258 -0.1068 -0.4770 -0.0629
    92RH     N6 2974   8.472   2.836   1.489  0.0006 -0.4217 -0.0505
    92RH    C56 2975   8.389   2.843   1.599  0.0864 -0.2618  0.0041
    92RH    C57 2976   8.609   2.787   1.525  0.6423 -0.2192  0.0550
    92RH    C58 2977   8.703   2.907   1.551  0.5600  1.0565 -0.5493
    92RH     S8 2978   8.429   2.811   1.760  0.1391 -0.3072 -0.0179
    72IDQ   C59 2979   7.368   3.451   0.772 -1.0296  0.2278  1.2731
    72IDQ   C60 2980   7.304   3.411   0.644  0.0280  1.1976  0.0804
    72IDQ   C61 2981   7.283   3.518   0.516  0.9356  0.4254 -0.8319
    72IDQ   C62 2982   7.215   3.440   0.391 -0.0059 -0.2501 -1.1575
    72IDQ   C63 2983   7.237   3.502   0.268 -1.3606  0.2307  1.1670
    72IDQ   C64 2984   7.164   3.445   0.151 -0.9987 -0.5365 -0.0310
    72IDQ   C65 2985   7.016   3.417   0.149  0.0146  0.5377 -0.0342
    72IDQ   C66 2986   7.317   3.339   1.230  0.3542 -0.5251  1.2300
    72IDQ   C67 2987   7.399   3.402   1.331 -0.2676 -0.3981 -0.1662
    72IDQ   C68 2988   7.553   3.368   1.331  0.9216  0.3014 -0.1819
    72IDQ   C69 2989   7.623   3.429   1.426 -1.4430  0.4965  1.3329
    72IDQ   C70 2990   7.757   3.383   1.411 -1.6294  0.3689  0.0013
    72IDQ   C71 2991   7.871   3.400   1.520  1.3647  0.7842  0.9654
    72IDQ   C72 2992   8.009   3.343   1.480 -1.2090 -0.8095 -1.0116
    11RH     C1 2993   0.588   5.875   3.171 -0.1195 -0.2527 -0.1055
    11RH     C2 2994   0.723   5.904   3.117 -0.1265  0.1340  0.0812
    11RH     N1 2995   0.487   5.934   3.093 -0.1748 -0.4204 -0.1621
    11RH     S1 2996   0.708   6.008   2.967 -0.2053  0.2524  0.1701
    11RH     C3 2997   0.525   6.008   2.983 -0.2252 -0.2148 -0.0435
    11RH     C4 2998   0.357   5.935   3.142 -0.3568 -1.3279  0.8875
    11RH     S2 2999   0.425   6.088   2.873 -0.2959 -0.3483 -0.0772
    11RH     O1 3000   0.564   5.807   3.273 -0.0717 -0.4156 -0.2029
    11RH     C5 3001   0.836   5.859   3.173 -0.0809  0.3543  0.1669
    21BTZ    C6 3002   0.972   5.854   3.140  0.0974  0.6120  0.8418
    21BTZ    C7 3003   1.015   5.901   3.019  0.0654  0.5658  0.8124
    21BTZ    C8 3004   1.069   5.798   3.230  0.0679  0.3057  0.6858
    21BTZ    C9 3005   1.154   5.896   2.980  0.0030  0.2189  0.6295
    21BTZ   C10 3006   1.250   5.844   3.063 -0.0271 -0.0815  0.4764
    21BTZ   C11 3007   1.210   5.793   3.191  0.0046 -0.0467  0.5001
    21BTZ    N2 3008   1.040   5.749   3.351  0.0944  0.3166  0.6967
    21BTZ    N3 3009   1.294   5.740   3.280 -0.0199 -0.3197  0.3617
    21BTZ    S3 3010   1.194   5.693   3.421  0.0383 -0.1325  0.4653
    31IDT   C12 3011   1.377   5.819   3.002 -0.1127  0.2775  0.6261
    31IDT   C13 3012   1.476   5.743   3.059 -0.3735 -0.0799  0.6031
    31IDT   C14 3013   1.584   5.716   2.970 -0.4496 -0.3965  0.6058
    31IDT   C15 3014   1.569   5.771   2.845 -0.2478 -0.2832  0.6309
    31IDT    S4 3015   1.415   5.862   2.829  0.0570  0.2384  0.6530
    4IDB    C16 3016   1.696   5.756   2.779 -0.1408 -0.5409  0.8113
    4IDB    C17 3017   1.792   5.689   2.861 -0.0467 -0.3791  0.8340
    51IDQ   C18 3018   1.722   5.639   2.984  0.0683  0.1086  0.7559
    4IDB    C19 3019   1.922   5.668   2.816 -0.0739 -0.3902  0.7608
    51IDQ   C20 3020   1.713   5.486   2.990  1.6210 -0.6904  0.7595
    51IDQ   C21 3021   1.806   5.677   3.112  1.1245  0.0255  1.0004
    51IDQ   C22 3022   1.946   5.721   3.137  0.9190  0.6083 -0.6591
    51IDQ   C23 3023   1.600   5.409   3.044  0.1162 -0.1914 -0.0620
    51IDQ   C24 3024   1.952   5.877   3.131  1.1710 -0.5983 -0.0927
    51IDQ   C25 3025   2.087   5.925   3.188 -1.2676 -0.7507  1.1418
    51IDQ   C26 3026   2.200   5.901   3.089 -0.5016  0.8320  1.1620
    51IDQ   C27 3027   2.319   5.836   3.162 -1.2257  0.1778 -0.7357
    51IDQ   C28 3028   2.438   5.774   3.080  0.6093 -0.5721  0.0619
    51IDQ   C29 3029   2.489   5.878   2.980 -0.4865  0.5626  0.6434
    51IDQ   C30 3030   1.653   5.289   3.127 -0.5386 -0.2641 -0.9098
    51IDQ   C31 3031   1.656   5.334   3.277 -0.3001  0.1333  0.5727
    51IDQ   C32 3032   1.541   5.289   3.361 -0.6415 -0.2874 -0.0260
    51IDQ   C33 3033   1.512   5.376   3.493 -0.5451 -0.0760 -0.7441
    51IDQ   C34 3034   1.568   5.312   3.627 -0.7577 -1.2620 -0.3387
    51IDQ   C35 3035   1.727   5.336   3.633  0.6224  0.2315  0.1183
    4IDB    C36 3036   1.729   5.803   2.651 -0.2635 -0.7164  0.7144
    4IDB    C37 3037   1.863   5.781   2.607 -0.2896 -0.7250  0.6405
    11RH    C38 3038   0.270   5.823   3.102  0.0074  1.1232  0.5060
    4IDB    C39 3039   1.955   5.715   2.688 -0.1966 -0.5657  0.6638
    62IDT   C40 3040   2.090   5.731   2.625 -0.3272  0.0345 -0.3639
    72IDQ   C41 3041   1.938   5.812   2.467  0.0206  0.1251  0.5147
    62IDT   C42 3042   2.082   5.760   2.490 -0.2365  0.3021 -0.3110
    72IDQ   C43 3043   1.945   5.959   2.433  0.2289  0.8631  0.2430
    72IDQ   C44 3044   1.866   5.751   2.347  0.7641  0.5645 -0.4479
    62IDT    S5 3045   2.254   5.674   2.672 -0.3344  0.0254 -0.3497
    62IDT   C45 3046   2.305   5.694   2.498 -0.2081  0.4029 -0.2693
    62IDT   C46 3047   2.204   5.740   2.419 -0.1689  0.5107 -0.2575
    82BTZ   C47 3048   2.445   5.655   2.461  0.4831  0.1385  0.7457
    82BTZ   C48 3049   2.492   5.529   2.486  0.4913  0.1321  0.6990
    82BTZ   C49 3050   2.632   5.496   2.474  0.4483  0.0646  0.3679
    82BTZ   C50 3051   2.725   5.590   2.437  0.3973  0.0032  0.0837
    82BTZ   C51 3052   2.539   5.757   2.422  0.4303  0.0756  0.4562
    82BTZ   C52 3053   2.681   5.723   2.410  0.3867  0.0069  0.1194
    92RH    C53 3054   2.862   5.560   2.405  0.3777 -0.0643  0.4296
    82BTZ    N4 3055   2.505   5.883   2.394  0.4176  0.0751  0.4693
    82BTZ    N5 3056   2.762   5.823   2.373  0.3388 -0.0486 -0.1379
    82BTZ    S6 3057   2.657   5.967   2.351  0.3476 -0.0149  0.0429
    92RH    C54 3058   2.931   5.447   2.427  0.3022 -0.1361  0.2990
    92RH     S7 3059   2.878   5.303   2.527  0.3293 -0.0936  0.3742
    92RH    C55 3060   3.066   5.422   2.371  0.1812 -0.2656  0.0652
    92RH     O2 3061   3.130   5.500   2.298  0.1360 -0.3216 -0.0355
    92RH     N6 3062   3.115   5.296   2.409  0.1211 -0.3193 -0.0330
    92RH    C56 3063   3.036   5.216   2.490  0.1793 -0.2489  0.0933
    92RH    C57 3064   3.244   5.256   2.355 -0.4879 -1.2049 -0.5531
    92RH    C58 3065   3.355   5.292   2.457  1.0756  0.3114 -0.4771
    92RH     S8 3066   3.072   5.063   2.550  0.1281 -0.2906  0.0165
    72IDQ   C59 3067   1.870   5.601   2.291 -0.1816  0.2736 -1.2389
    72IDQ   C60 3068   1.839   5.562   2.136  0.7171 -0.9125  0.6625
    72IDQ   C61 3069   1.706   5.538   2.085  0.5467  0.0921 -1.0337
    72IDQ   C62 3070   1.643   5.411   2.141  0.4207 -0.1049 -2.3534
    72IDQ   C63 3071   1.531   5.350   2.060  0.5525  0.3634 -1.2415
    72IDQ   C64 3072   1.406   5.328   2.150  0.6091  0.4814 -0.6426
    72IDQ   C65 3073   1.264   5.323   2.081 -0.6824  0.9352  0.5654
    72IDQ   C66 3074   2.040   6.070   2.500  0.4778 -0.5310  0.9713
    72IDQ   C67 3075   2.193   6.093   2.456  0.7019 -0.3797  0.5524
    72IDQ   C68 3076   2.207   6.168   2.331 -0.9455 -0.1318  0.5162
    72IDQ   C69 3077   2.322   6.255   2.307  1.0548 -0.0347 -1.0991
    72IDQ   C70 3078   2.354   6.313   2.170  0.1640  0.2014  0.0114
    72IDQ   C71 3079   2.260   6.430   2.152  0.6175  0.0199 -0.8065
    72IDQ   C72 3080   2.296   6.558   2.243 -0.1864  0.7397 -1.1418
    11RH     C1 3081   1.902   4.732   4.941  0.0352 -0.4110  0.4473
    11RH     C2 3082   2.022   4.657   4.899  0.0075 -0.2933  0.1495
    11RH     N1 3083   1.795   4.714   4.849 -0.0771 -0.2764  0.5502
    11RH     S1 3084   1.988   4.566   4.743 -0.1641 -0.0129  0.0231
    11RH     C3 3085   1.816   4.632   4.740 -0.1912 -0.0651  0.3707
    11RH     C4 3086   1.673   4.793   4.873 -0.2862 -0.8199  1.8906
    11RH     S2 3087   1.707   4.594   4.617 -0.3375  0.1273  0.4404
    11RH     O1 3088   1.892   4.803   5.042  0.1422 -0.6032  0.5937
    11RH     C5 3089   2.137   4.657   4.968  0.0973 -0.3838  0.0018
    21BTZ    C6 3090   2.272   4.601   4.946 -0.1773  0.3269 -0.6714
    21BTZ    C7 3091   2.309   4.518   4.844 -0.1912  0.2890 -0.6456
    21BTZ    C8 3092   2.369   4.634   5.047 -0.2567  0.1094 -0.5236
    21BTZ    C9 3093   2.442   4.463   4.835 -0.2829  0.0365 -0.4747
    21BTZ   C10 3094   2.538   4.492   4.929 -0.3607 -0.1772 -0.3295
    21BTZ   C11 3095   2.504   4.578   5.038 -0.3499 -0.1473 -0.3495
    21BTZ    N2 3096   2.345   4.714   5.152 -0.2522  0.1218 -0.5322
    21BTZ    N3 3097   2.589   4.613   5.135 -0.4203 -0.3409 -0.2184
    21BTZ    S3 3098   2.498   4.721   5.245 -0.3692 -0.2006 -0.3134
    31IDT   C12 3099   2.687   4.464   4.897  0.6108  0.4602 -0.0193
    31IDT   C13 3100   2.797   4.526   4.951  0.8303  0.4387 -0.4401
    31IDT   C14 3101   2.920   4.473   4.901  0.6341  0.3259 -0.8154
    31IDT   C15 3102   2.905   4.370   4.810  0.2645  0.2615 -0.6837
    31IDT    S4 3103   2.732   4.333   4.779  0.1352  0.3388 -0.0682
    4IDB    C16 3104   3.040   4.312   4.791  0.7997 -0.5591  0.2576
    4IDB    C17 3105   3.131   4.406   4.847  0.5742 -0.0889 -0.1564
    51IDQ   C18 3106   3.067   4.509   4.931 -0.3245  0.3585 -0.3623
    4IDB    C19 3107   3.267   4.400   4.817  0.5630  0.2255 -0.2793
    51IDQ   C20 3108   3.130   4.491   5.081  0.7813 -0.6227 -0.0669
    51IDQ   C21 3109   3.069   4.674   4.879  1.2729 -0.4429 -2.1189
    51IDQ   C22 3110   3.138   4.711   4.756 -0.2736 -0.3523  0.8170
    51IDQ   C23 3111   3.033   4.423   5.186  0.5666 -0.3888  0.1247
    51IDQ   C24 3112   3.124   4.645   4.627 -1.7235  0.3000  1.0488
    51IDQ   C25 3113   3.010   4.665   4.542 -0.2197 -0.6491  0.9354
    51IDQ   C26 3114   3.022   4.583   4.406  0.5909  1.0725  0.2010
    51IDQ   C27 3115   3.154   4.599   4.318 -0.1080  0.9326 -0.6593
    51IDQ   C28 3116   3.155   4.710   4.212  0.7857 -1.0177  0.9411
    51IDQ   C29 3117   3.288   4.709   4.142  0.2435 -0.3993 -0.6117
    51IDQ   C30 3118   3.052   4.484   5.329 -0.4189  0.6126  0.6198
    51IDQ   C31 3119   2.951   4.421   5.430 -0.0008 -0.1074 -0.6723
    51IDQ   C32 3120   2.812   4.479   5.477  1.3739 -1.6456 -0.5778
    51IDQ   C33 3121   2.847   4.568   5.586 -0.0568  0.1957 -0.2007
    51IDQ   C34 3122   2.725   4.581   5.680  0.9340  1.2496 -0.3781
    51IDQ   C35 3123   2.719   4.460   5.781 -0.5232 -0.4406  0.1340
    4IDB    C36 3124   3.083   4.211   4.705  1.0164 -0.7179  0.5534
    4IDB    C37 3125   3.223   4.206   4.676  1.0014 -0.3912  0.4220
    11RH    C38 3126   1.655   4.944   4.841  0.0586  0.2966  0.7263
    4IDB    C39 3127   3.311   4.299   4.731  0.7797  0.0665  0.0160
    62IDT   C40 3128   3.449   4.278   4.680 -0.1799  0.4186  0.7897
    72IDQ   C41 3129   3.307   4.120   4.577  1.1688  0.8174  1.3664
    62IDT   C42 3130   3.446   4.175   4.588 -0.7865  0.1688  1.0831
    72IDQ   C43 3131   3.242   4.171   4.447 -0.3760 -0.2981  1.6143
    72IDQ   C44 3132   3.310   3.951   4.618 -1.2578 -0.5071  0.7049
    62IDT    S5 3133   3.609   4.360   4.684  0.1965 -0.2816  0.3052
    62IDT   C45 3134   3.667   4.245   4.556 -0.5212 -0.9055  0.5361
    62IDT   C46 3135   3.569   4.156   4.518 -0.9803 -0.5798  0.9398
    82BTZ   C47 3136   3.795   4.269   4.475 -0.2879 -0.6286  0.4341
    82BTZ   C48 3137   3.876   4.370   4.519 -0.3266 -0.6857  0.6351
    82BTZ   C49 3138   3.992   4.413   4.444 -0.2650 -0.5846  0.7877
    82BTZ   C50 3139   4.026   4.354   4.325 -0.1647 -0.4273  0.7391
    82BTZ   C51 3140   3.827   4.204   4.351 -0.1833 -0.4649  0.3755
    82BTZ   C52 3141   3.944   4.248   4.274 -0.1208 -0.3622  0.5305
    92RH    C53 3142   4.124   4.395   4.224 -0.5629  0.6678  0.2059
    82BTZ    N4 3143   3.756   4.105   4.297 -0.1370 -0.3955  0.1848
    82BTZ    N5 3144   3.968   4.183   4.160 -0.0240 -0.2105  0.4642
    82BTZ    S6 3145   3.837   4.061   4.144 -0.0087 -0.1924  0.1951
    92RH    C54 3146   4.203   4.502   4.217 -0.2131  0.4084  0.1080
    92RH     S7 3147   4.220   4.634   4.345  0.0033  0.6140 -0.1317
    92RH    C55 3148   4.292   4.533   4.102  0.0608 -0.1028  0.1819
    92RH     O2 3149   4.303   4.463   4.000  0.0007 -0.3469  0.3395
    92RH     N6 3150   4.363   4.653   4.122  0.4079 -0.2861  0.0489
    92RH    C56 3151   4.343   4.722   4.240  0.4456  0.0148 -0.1225
    92RH    C57 3152   4.462   4.699   4.026  0.4514 -0.3071  0.3349
    92RH    C58 3153   4.600   4.652   4.053  0.7823  0.6673 -0.3071
    92RH     S8 3154   4.415   4.867   4.288  0.8266 -0.1140 -0.3037
    72IDQ   C59 3155   3.348   3.838   4.529  0.3648  0.7081  0.7228
    72IDQ   C60 3156   3.245   3.800   4.433  0.3352 -1.4438 -1.1561
    72IDQ   C61 3157   3.291   3.666   4.383 -1.4107  0.2044 -0.3477
    72IDQ   C62 3158   3.174   3.576   4.332 -0.3835  0.5547  0.8045
    72IDQ   C63 3159   3.225   3.438   4.315  0.5370 -0.9303 -1.0047
    72IDQ   C64 3160   3.105   3.341   4.297  0.2432 -0.3226 -0.1762
    72IDQ   C65 3161   3.002   3.368   4.180  0.8458  0.5373  0.3481
    72IDQ   C66 3162   3.129   4.099   4.369  1.3987  0.8549  1.0596
    72IDQ   C67 3163   3.062   4.174   4.251  1.1275  1.4984 -0.5839
    72IDQ   C68 3164   3.117   4.223   4.105 -0.9231  0.0470  0.7824
    72IDQ   C69 3165   3.190   4.124   4.003 -1.1635  0.0895  0.4210
    72IDQ   C70 3166   3.104   4.022   3.929  0.8962  1.0287  0.0857
    72IDQ   C71 3167   2.958   3.990   3.979 -0.0715  1.3644 -0.1086
    72IDQ   C72 3168   2.883   3.890   3.901  0.4284 -0.1006 -0.0278
    11RH     C1 3169   1.208   1.028   0.963  0.0294 -0.2827  0.0703
    11RH     C2 3170   1.164   1.124   1.067 -0.2982 -0.1092 -0.2277
    11RH     N1 3171   1.338   1.058   0.918  0.0239 -0.1281  0.1554
    11RH     S1 3172   1.296   1.247   1.098 -0.5920  0.2461 -0.3765
    11RH     C3 3173   1.404   1.166   0.973 -0.2679  0.1482 -0.0378
    11RH     C4 3174   1.417   0.950   0.838 -1.4603  0.1568 -0.4957
    11RH     S2 3175   1.558   1.222   0.936 -0.3397  0.3768  0.0098
    11RH     O1 3176   1.141   0.932   0.920  0.2806 -0.5325  0.2297
    11RH     C5 3177   1.044   1.118   1.127 -0.3599 -0.2054 -0.3602
    21BTZ    C6 3178   0.985   1.205   1.236 -0.1037 -0.2407  0.1086
    21BTZ    C7 3179   1.057   1.259   1.339 -0.1469  0.0492 -0.0097
    21BTZ    C8 3180   0.842   1.219   1.237 -0.0992 -0.1752 -0.0229
    21BTZ    C9 3181   0.993   1.327   1.449 -0.1874  0.4156 -0.2615
    21BTZ   C10 3182   0.857   1.343   1.455 -0.1848  0.4915 -0.3946
    21BTZ   C11 3183   0.777   1.289   1.349 -0.1405  0.1973 -0.2789
    21BTZ    N2 3184   0.761   1.171   1.142 -0.0590 -0.4348  0.0724
    21BTZ    N3 3185   0.644   1.297   1.343 -0.1335  0.2370 -0.3893
    21BTZ    S3 3186   0.595   1.214   1.192 -0.0727 -0.2095 -0.1661
    31IDT   C12 3187   0.801   1.431   1.555 -0.1257  0.3082 -0.6315
    31IDT   C13 3188   0.839   1.557   1.594  0.0457  0.1311 -0.2183
    31IDT   C14 3189   0.755   1.611   1.697  0.4655 -0.3163  0.3639
    31IDT   C15 3190   0.654   1.527   1.737  0.6165 -0.4828  0.3981
    31IDT    S4 3191   0.656   1.371   1.647  0.2353 -0.0823 -0.3106
    4IDB    C16 3192   0.568   1.590   1.835  0.0078  0.0962 -0.5861
    4IDB    C17 3193   0.614   1.723   1.858 -0.5181  0.3064 -0.7286
    51IDQ   C18 3194   0.736   1.748   1.764 -0.9254  0.4933  0.2595
    4IDB    C19 3195   0.555   1.803   1.954 -0.2962 -0.1164 -0.2374
    51IDQ   C20 3196   0.728   1.847   1.649  0.2768  0.7129 -0.2200
    51IDQ   C21 3197   0.882   1.759   1.836  1.3114 -0.9678 -0.0308
    51IDQ   C22 3198   0.907   1.710   1.967 -0.0980 -1.5647 -1.5523
    51IDQ   C23 3199   0.591   1.897   1.610 -0.1108  0.8232 -0.0135
    51IDQ   C24 3200   1.036   1.725   2.056 -0.5144 -0.0236  0.7403
    51IDQ   C25 3201   1.176   1.712   1.991  0.2476 -0.2488 -0.5900
    51IDQ   C26 3202   1.295   1.704   2.077 -0.1400 -1.3012 -0.4559
    51IDQ   C27 3203   1.358   1.840   2.036 -0.3505 -0.6624 -0.5372
    51IDQ   C28 3204   1.518   1.852   2.015  1.8040  0.6392  0.6728
    51IDQ   C29 3205   1.533   2.002   1.981 -0.3046  0.8223  0.0010
    51IDQ   C30 3206   0.476   1.818   1.548 -0.6903 -0.2344  0.3310
    51IDQ   C31 3207   0.511   1.772   1.409 -1.2121 -0.3287 -0.9157
    51IDQ   C32 3208   0.418   1.672   1.331 -0.8681 -0.9761 -0.4411
    51IDQ   C33 3209   0.465   1.628   1.189 -0.7949  0.5705  0.5414
    51IDQ   C34 3210   0.418   1.501   1.125 -1.6098 -0.5701  0.8209
    51IDQ   C35 3211   0.485   1.486   0.991 -0.7507  0.0379 -0.6661
    4IDB    C36 3212   0.461   1.536   1.909  0.7634 -0.5425  0.0529
    4IDB    C37 3213   0.402   1.620   2.007  0.9800 -0.9677  0.5486
    11RH    C38 3214   1.508   0.845   0.899 -0.3599 -0.4350 -0.4594
    4IDB    C39 3215   0.449   1.749   2.029  0.4594 -0.7550  0.4016
    62IDT   C40 3216   0.371   1.824   2.122  0.8520 -0.2282 -0.1479
    72IDQ   C41 3217   0.302   1.606   2.114  1.8500 -1.6147  0.5338
    62IDT   C42 3218   0.258   1.752   2.155  0.7519 -0.1349 -0.2891
    72IDQ   C43 3219   0.335   1.548   2.256  0.6483  1.3982  0.6251
    72IDQ   C44 3220   0.178   1.544   2.044 -0.4550 -0.2145 -0.7589
    62IDT    S5 3221   0.376   1.983   2.206  0.8047 -0.1682 -0.2596
    62IDT   C45 3222   0.217   1.942   2.284  0.6443 -0.0127 -0.5034
    62IDT   C46 3223   0.171   1.819   2.246  0.6344 -0.0130 -0.4903
    82BTZ   C47 3224   0.147   2.016   2.387  0.3188  0.0758 -0.4222
    82BTZ   C48 3225   0.014   2.046   2.377  0.2141 -0.3216 -0.2548
    82BTZ   C49 3226  -0.057   2.116   2.481  0.0937 -0.6889 -0.0889
    82BTZ   C50 3227   0.006   2.156   2.596  0.0778 -0.6583 -0.0908
    82BTZ   C51 3228   0.217   2.055   2.506  0.3071  0.1247 -0.4313
    82BTZ   C52 3229   0.145   2.126   2.612  0.1843 -0.2488 -0.2629
    92RH    C53 3230  -0.055   2.265   2.682 -0.0992 -0.2891 -0.2030
    82BTZ    N4 3231   0.347   2.032   2.528  0.4022  0.4951 -0.5864
    82BTZ    N5 3232   0.217   2.160   2.720  0.1810 -0.1785 -0.2824
    82BTZ    S6 3233   0.383   2.101   2.689  0.3374  0.3797 -0.5221
    92RH    C54 3234  -0.165   2.338   2.662 -0.0401 -0.1777 -0.1239
    92RH     S7 3235  -0.298   2.306   2.539  0.0133  0.1528 -0.2690
    92RH    C55 3236  -0.198   2.460   2.740 -0.0079 -0.3111  0.1014
    92RH     O2 3237  -0.128   2.509   2.830 -0.0310 -0.5369  0.2410
    92RH     N6 3238  -0.320   2.517   2.698  0.0544 -0.1485  0.1408
    92RH    C56 3239  -0.389   2.455   2.596  0.0753  0.0991 -0.0250
    92RH    C57 3240  -0.374   2.621   2.785  0.6856 -0.2160  1.4666
    92RH    C58 3241  -0.368   2.772   2.737  1.1860  0.5197  0.9605
    92RH     S8 3242  -0.536   2.502   2.528  0.1469  0.3299 -0.0203
    72IDQ   C59 3243   0.035   1.530   2.097  0.6277 -0.8956  1.4064
    72IDQ   C60 3244  -0.053   1.420   2.025  0.8747 -0.0099 -0.0274
    72IDQ   C61 3245  -0.202   1.448   2.049  1.0129 -0.5707  1.4103
    72IDQ   C62 3246  -0.291   1.494   1.937 -1.5196 -1.0673 -0.8142
    72IDQ   C63 3247  -0.237   1.603   1.842  0.1433 -0.7227  0.0814
    72IDQ   C64 3248  -0.319   1.645   1.725  1.4139 -1.2070 -1.1563
    72IDQ   C65 3249  -0.307   1.794   1.675  0.3181 -0.2396 -1.0493
    72IDQ   C66 3250   0.398   1.406   2.263  0.4149 -0.2691 -0.1020
    72IDQ   C67 3251   0.428   1.373   2.408 -0.5772  0.0647 -1.4957
    72IDQ   C68 3252   0.511   1.237   2.424  0.2478  0.0255 -0.4658
    72IDQ   C69 3253   0.650   1.231   2.358  0.3335 -0.7509  0.3439
    72IDQ   C70 3254   0.671   1.096   2.282 -1.5563  0.6106 -0.1043
    72IDQ   C71 3255   0.612   0.962   2.322 -0.0609  0.4343  1.4870
    72IDQ   C72 3256   0.713   0.843   2.279  1.3446 -0.1916  0.4712
    11RH     C1 3257   1.656   5.455   5.015  0.0300  0.0205 -0.1793
    11RH     C2 3258   1.682   5.561   5.116 -0.1220  0.1683 -0.2952
    11RH     N1 3259   1.612   5.510   4.893  0.0961 -0.1674 -0.2879
    11RH     S1 3260   1.646   5.726   5.043 -0.1679  0.0507 -0.5397
    11RH     C3 3261   1.599   5.647   4.883  0.0157 -0.1884 -0.4768
    11RH     C4 3262   1.603   5.432   4.774  1.1888  1.1751 -0.2935
    11RH     S2 3263   1.548   5.737   4.750  0.0685 -0.3941 -0.6361
    11RH     O1 3264   1.671   5.333   5.033  0.0937  0.0534 -0.0083
    11RH     C5 3265   1.725   5.536   5.240 -0.2088  0.3574 -0.2265
    21BTZ    C6 3266   1.760   5.632   5.351  0.2687 -0.1217  0.0025
    21BTZ    C7 3267   1.804   5.759   5.326  0.3694 -0.1857 -0.1466
    21BTZ    C8 3268   1.743   5.591   5.487  0.4081 -0.0081  0.0546
    21BTZ    C9 3269   1.834   5.851   5.432  0.6106 -0.1419 -0.2506
    21BTZ   C10 3270   1.819   5.816   5.564  0.7506 -0.0336 -0.2055
    21BTZ   C11 3271   1.773   5.684   5.595  0.6533  0.0367 -0.0508
    21BTZ    N2 3272   1.700   5.470   5.524  0.3298  0.0627  0.1969
    21BTZ    N3 3273   1.754   5.639   5.720  0.7719  0.1433  0.0064
    21BTZ    S3 3274   1.696   5.470   5.703  0.5712  0.1924  0.2017
    31IDT   C12 3275   1.822   5.923   5.673 -0.2244 -0.1788  0.4321
    31IDT   C13 3276   1.873   5.898   5.798  0.0973  0.6461  0.4730
    31IDT   C14 3277   1.926   6.015   5.861  0.2984  1.0598 -0.4492
    31IDT   C15 3278   1.916   6.130   5.784  0.1318  0.5547 -1.1969
    31IDT    S4 3279   1.838   6.098   5.626 -0.2965 -0.4934 -0.7879
    4IDB    C16 3280   1.991   6.237   5.845  0.1873  0.2317  0.1114
    4IDB    C17 3281   2.014   6.201   5.982  0.3480  0.2587  0.0923
    51IDQ   C18 3282   1.987   6.049   6.003  0.0281 -0.4582  2.0100
    4IDB    C19 3283   2.077   6.289   6.069 -0.0327  0.4877  0.1365
    51IDQ   C20 3284   2.133   5.989   6.012 -0.6652  0.3381  0.2504
    51IDQ   C21 3285   1.900   5.986   6.127  1.2775  0.0438  0.3365
    51IDQ   C22 3286   1.816   6.080   6.207  0.3381 -1.0148  0.2204
    51IDQ   C23 3287   2.182   5.861   5.957 -0.3797 -1.4523  0.4040
    51IDQ   C24 3288   1.671   6.105   6.157  0.8463  0.9211 -0.6272
    51IDQ   C25 3289   1.579   6.181   6.237  0.5464 -0.6402  0.2246
    51IDQ   C26 3290   1.441   6.134   6.187  0.4026 -0.6483  0.8723
    51IDQ   C27 3291   1.368   6.182   6.048 -1.0655  1.2388 -0.8997
    51IDQ   C28 3292   1.352   6.322   5.999 -0.4850 -0.5790  0.4915
    51IDQ   C29 3293   1.251   6.308   5.892  1.2701 -0.2729  0.3031
    51IDQ   C30 3294   2.269   5.767   6.041  0.4974 -0.5667  0.6942
    51IDQ   C31 3295   2.401   5.687   5.998 -0.1590  0.1051  1.0506
    51IDQ   C32 3296   2.492   5.801   5.953 -1.0204 -0.0405  0.1254
    51IDQ   C33 3297   2.626   5.736   5.933 -0.5476 -1.9400 -0.4521
    51IDQ   C34 3298   2.742   5.811   5.879 -0.6029  0.3248  0.3029
    51IDQ   C35 3299   2.778   5.933   5.959 -0.0243  0.7081 -0.6090
    4IDB    C36 3300   2.032   6.362   5.796 -0.3585  0.4361  0.1755
    4IDB    C37 3301   2.096   6.450   5.886 -0.7416  0.6688  0.2198
    11RH    C38 3302   1.729   5.396   4.707  0.2675  0.8736  0.4611
    4IDB    C39 3303   2.117   6.414   6.019 -0.5782  0.6922  0.2004
    62IDT   C40 3304   2.197   6.515   6.089 -0.5382  0.4018  0.3789
    72IDQ   C41 3305   2.146   6.594   5.861  0.5655 -0.0834 -1.0897
    62IDT   C42 3306   2.196   6.627   6.010  0.5364  0.2489  0.1295
    72IDQ   C43 3307   2.036   6.693   5.804 -1.0093 -0.8470  0.2944
    72IDQ   C44 3308   2.283   6.595   5.780 -0.9478 -1.0915 -1.0246
    62IDT    S5 3309   2.277   6.545   6.248 -0.2916  0.0131  0.3316
    62IDT   C45 3310   2.305   6.717   6.195  1.3305 -0.3532 -0.0415
    62IDT   C46 3311   2.257   6.742   6.070  1.5942 -0.1783 -0.1087
    82BTZ   C47 3312   2.379   6.804   6.281 -0.0719 -0.1576  0.2398
    82BTZ   C48 3313   2.439   6.752   6.393  0.0857 -0.0393  0.2112
    82BTZ   C49 3314   2.485   6.836   6.500  0.1097  0.0637  0.1204
    82BTZ   C50 3315   2.471   6.972   6.496 -0.0239  0.0484  0.0586
    82BTZ   C51 3316   2.362   6.946   6.271 -0.2159 -0.1783  0.1774
    82BTZ   C52 3317   2.409   7.031   6.381 -0.1916 -0.0739  0.0854
    92RH    C53 3318   2.506   7.048   6.608  1.0156  0.4020 -0.4725
    82BTZ    N4 3319   2.306   7.008   6.168 -0.3755 -0.2894  0.1972
    82BTZ    N5 3320   2.390   7.163   6.365 -0.3316 -0.1004  0.0308
    82BTZ    S6 3321   2.310   7.183   6.206 -0.5043 -0.2641  0.0970
    92RH    C54 3322   2.537   7.035   6.737  0.6140  0.1256 -0.4032
    92RH     S7 3323   2.543   6.879   6.834 -1.0223  0.0635 -0.3783
    92RH    C55 3324   2.572   7.149   6.825  1.4666 -0.1823 -0.3343
    92RH     O2 3325   2.577   7.268   6.790  2.6304 -0.2206 -0.3319
    92RH     N6 3326   2.600   7.106   6.957  0.7899 -0.4347 -0.2692
    92RH    C56 3327   2.591   6.972   6.985 -0.5007 -0.3662 -0.2775
    92RH    C57 3328   2.628   7.203   7.063 -0.3281  0.4771  2.0072
    92RH    C58 3329   2.521   7.276   7.139  0.7383  0.6212  0.4938
    92RH     S8 3330   2.619   6.896   7.133 -1.5192 -0.6218 -0.2098
    72IDQ   C59 3331   2.306   6.716   5.692 -1.7642 -0.3106  1.1131
    72IDQ   C60 3332   2.451   6.728   5.616 -0.8497  1.6980 -0.2081
    72IDQ   C61 3333   2.453   6.840   5.526 -0.6814 -0.2132 -0.8305
    72IDQ   C62 3334   2.583   6.880   5.470  0.1725  0.6104 -0.4415
    72IDQ   C63 3335   2.701   6.781   5.437 -0.2575 -0.8196 -0.8764
    72IDQ   C64 3336   2.668   6.705   5.324 -0.0923  0.4313  0.2521
    72IDQ   C65 3337   2.778   6.610   5.285  1.0823 -0.0404  0.3674
    72IDQ   C66 3338   1.895   6.694   5.857  0.2010  2.6393  0.0665
    72IDQ   C67 3339   1.822   6.796   5.798  0.4476 -1.0644  1.1936
    72IDQ   C68 3340   1.760   6.782   5.654 -1.0512  0.1230 -0.2722
    72IDQ   C69 3341   1.844   6.860   5.557  0.5713 -0.5717  0.3839
    72IDQ   C70 3342   1.927   6.776   5.473 -0.2778 -0.1478  1.7058
    72IDQ   C71 3343   2.046   6.852   5.390  0.9606  0.9483  0.1724
    72IDQ   C72 3344   2.010   6.822   5.246  0.6419 -0.5064  0.2090
    11RH     C1 3345   6.672   2.391   5.614  0.1984  0.7747 -0.3633
    11RH     C2 3346   6.787   2.387   5.520  0.3109  0.2805 -0.2086
    11RH     N1 3347   6.568   2.305   5.571  0.0845  0.8560 -0.2484
    11RH     S1 3348   6.751   2.271   5.382  0.2589 -0.0453  0.0776
    11RH     C3 3349   6.585   2.233   5.455  0.0913  0.4871 -0.0207
    11RH     C4 3350   6.447   2.282   5.649 -0.2359 -1.7008  0.5032
    11RH     S2 3351   6.478   2.125   5.383 -0.0293  0.4907  0.1543
    11RH     O1 3352   6.665   2.459   5.717  0.2017  1.0853 -0.5684
    11RH     C5 3353   6.898   2.459   5.537  0.4301  0.1114 -0.2748
    21BTZ    C6 3354   7.026   2.487   5.468  0.4197 -0.4902  0.5041
    21BTZ    C7 3355   7.049   2.426   5.348  0.4458 -0.4143  0.4702
    21BTZ    C8 3356   7.133   2.560   5.530  0.3355 -0.3211  0.4532
    21BTZ    C9 3357   7.178   2.433   5.283  0.3908 -0.1701  0.3855
    21BTZ   C10 3358   7.283   2.501   5.338  0.3098 -0.0022  0.3347
    21BTZ   C11 3359   7.264   2.566   5.464  0.2796 -0.0730  0.3672
    21BTZ    N2 3360   7.123   2.623   5.647  0.3029 -0.3735  0.4787
    21BTZ    N3 3361   7.359   2.636   5.528  0.2020  0.0743  0.3235
    21BTZ    S3 3362   7.283   2.696   5.678  0.1971 -0.1020  0.3922
    31IDT   C12 3363   7.405   2.521   5.254 -0.3093  0.1331 -0.1806
    31IDT   C13 3364   7.489   2.628   5.241  0.0437 -0.0972  0.1595
    31IDT   C14 3365   7.607   2.598   5.167  0.0940 -0.3327  0.3357
    31IDT   C15 3366   7.615   2.467   5.123 -0.2197 -0.2839  0.1322
    31IDT    S4 3367   7.471   2.372   5.173 -0.6065  0.0678 -0.3033
    4IDB    C16 3368   7.725   2.454   5.029 -1.1654  0.5728 -0.1384
    4IDB    C17 3369   7.785   2.583   5.018 -0.4524  0.2675  0.0906
    51IDQ   C18 3370   7.730   2.684   5.121  0.8894 -0.0688  0.8804
    4IDB    C19 3371   7.887   2.607   4.928 -0.1705 -0.1912  0.2870
    51IDQ   C20 3372   7.847   2.684   5.227 -0.3389  1.1901  1.1316
    51IDQ   C21 3373   7.695   2.838   5.062 -0.3642  0.6858 -0.9765
    51IDQ   C22 3374   7.691   2.871   4.910  1.2273 -0.1789 -0.0158
    51IDQ   C23 3375   7.833   2.620   5.363  0.3982 -1.0933  0.6078
    51IDQ   C24 3376   7.589   2.778   4.845 -0.9831 -0.2700  0.1065
    51IDQ   C25 3377   7.595   2.716   4.723  0.6423 -0.2792  1.0580
    51IDQ   C26 3378   7.501   2.595   4.711 -0.3967 -0.5561 -1.2646
    51IDQ   C27 3379   7.492   2.513   4.586  0.5295 -1.3575  0.5551
    51IDQ   C28 3380   7.527   2.590   4.448  0.3910  0.8437 -0.9372
    51IDQ   C29 3381   7.434   2.537   4.345 -0.6696 -0.1037  0.6145
    51IDQ   C30 3382   7.752   2.686   5.469  0.2953  0.4863  0.6895
    51IDQ   C31 3383   7.760   2.625   5.624 -0.1094  0.7409 -0.2135
    51IDQ   C32 3384   7.861   2.704   5.704 -0.0969 -0.5177 -1.0017
    51IDQ   C33 3385   7.903   2.619   5.835  0.0868  1.4134 -0.6186
    51IDQ   C34 3386   8.034   2.675   5.889 -0.2740  0.9544 -0.3564
    51IDQ   C35 3387   8.022   2.773   6.014 -0.6301 -0.7315 -0.3775
    4IDB    C36 3388   7.768   2.347   4.949 -1.6030  0.4202 -0.1726
    4IDB    C37 3389   7.873   2.373   4.857 -1.3058 -0.0497  0.0300
    11RH    C38 3390   6.481   2.185   5.767 -0.1678  0.0812  0.2439
    4IDB    C39 3391   7.930   2.500   4.848 -0.6080 -0.3438  0.2530
    62IDT   C40 3392   8.013   2.516   4.731 -0.3085 -0.0107  0.1955
    72IDQ   C41 3393   7.944   2.287   4.763  0.3782 -0.1749  0.5458
    62IDT   C42 3394   8.022   2.389   4.677  0.3116  0.0442  0.1681
    72IDQ   C43 3395   7.853   2.188   4.681 -0.9199 -0.7835 -0.8186
    72IDQ   C44 3396   8.049   2.181   4.813 -0.0615 -0.1656 -0.3941
    62IDT    S5 3397   8.107   2.636   4.637 -0.3277  0.3422  0.6233
    62IDT   C45 3398   8.157   2.502   4.524  0.5461  0.5559  0.7478
    62IDT   C46 3399   8.104   2.381   4.560  0.7956  0.3647  0.4799
    82BTZ   C47 3400   8.246   2.543   4.408  0.1036 -0.4287 -0.1439
    82BTZ   C48 3401   8.352   2.622   4.441 -0.1973  0.0250 -0.2573
    82BTZ   C49 3402   8.443   2.672   4.341 -0.4485  0.3203 -0.3409
    82BTZ   C50 3403   8.428   2.642   4.208 -0.3984  0.1615 -0.3114
    82BTZ   C51 3404   8.225   2.509   4.271  0.1680 -0.6114 -0.1085
    82BTZ   C52 3405   8.318   2.559   4.169 -0.0873 -0.3111 -0.1936
    92RH    C53 3406   8.527   2.662   4.101 -0.2864  0.3170  0.0360
    82BTZ    N4 3407   8.125   2.432   4.226  0.4513 -1.0475 -0.0005
    82BTZ    N5 3408   8.293   2.523   4.043 -0.0092 -0.5059 -0.1540
    82BTZ    S6 3409   8.146   2.421   4.049  0.4026 -1.0934 -0.0030
    92RH    C54 3410   8.657   2.692   4.092 -0.2244  0.0352 -0.0224
    92RH     S7 3411   8.780   2.691   4.229 -0.1127 -0.4685 -0.1257
    92RH    C55 3412   8.724   2.733   3.966 -0.2376  0.0918 -0.0112
    92RH     O2 3413   8.668   2.744   3.855 -0.3060  0.4001  0.0521
    92RH     N6 3414   8.861   2.759   3.986 -0.1613 -0.2537 -0.0827
    92RH    C56 3415   8.913   2.744   4.113 -0.0888 -0.5801 -0.1497
    92RH    C57 3416   8.944   2.817   3.874 -0.7821 -2.6366  1.2911
    92RH    C58 3417   8.917   2.972   3.879  0.5363 -1.4524 -0.4896
    92RH     S8 3418   9.072   2.768   4.163  0.0094 -1.0247 -0.2413
    72IDQ   C59 3419   7.999   2.068   4.911 -1.0525 -0.0144 -2.1139
    72IDQ   C60 3420   8.101   1.970   4.965 -0.0109  0.1676  0.9622
    72IDQ   C61 3421   8.175   1.900   4.848  0.9229  0.0324  0.4377
    72IDQ   C62 3422   8.238   1.759   4.864 -1.1502  0.0282  0.0362
    72IDQ   C63 3423   8.394   1.757   4.883  0.6363 -2.1751 -0.5711
    72IDQ   C64 3424   8.457   1.628   4.946 -0.3402 -0.2386 -0.5453
    72IDQ   C65 3425   8.388   1.546   5.050 -0.3067  1.6632  0.3174
    72IDQ   C66 3426   7.807   2.220   4.545 -0.0042 -0.0104 -0.0471
    72IDQ   C67 3427   7.845   2.125   4.421  1.8084  1.6034 -0.3387
    72IDQ   C68 3428   7.723   2.097   4.321  0.4089 -1.8487 -1.1861
    72IDQ   C69 3429   7.580   2.141   4.375  0.6187 -0.1248 -0.2580
    72IDQ   C70 3430   7.447   2.110   4.284 -1.3552 -0.6564  1.2077
    72IDQ   C71 3431   7.298   2.088   4.333 -0.2992 -0.3160 -0.6227
    72IDQ   C72 3432   7.229   2.003   4.249 -0.1612  0.2410 -0.0447
    11RH     C1 3433   4.286   2.461   4.296  0.0646 -0.5007  0.0927
    11RH     C2 3434   4.405   2.499   4.377  0.1755 -0.3492 -0.1400
    11RH     N1 3435   4.290   2.324   4.261  0.0390 -0.5565  0.3048
    11RH     S1 3436   4.513   2.352   4.402  0.2391 -0.2900 -0.0639
    11RH     C3 3437   4.396   2.248   4.304  0.1161 -0.4680  0.2713
    11RH     C4 3438   4.170   2.267   4.176 -0.9356  0.0282 -0.3242
    11RH     S2 3439   4.424   2.084   4.276  0.1061 -0.5077  0.4914
    11RH     O1 3440   4.195   2.537   4.262  0.0002 -0.5724  0.1044
    11RH     C5 3441   4.426   2.623   4.423  0.2195 -0.2713 -0.3673
    21BTZ    C6 3442   4.538   2.700   4.482  0.0452  0.3911 -0.1375
    21BTZ    C7 3443   4.667   2.656   4.496 -0.0348  0.2316  0.1018
    21BTZ    C8 3444   4.498   2.819   4.550  0.0541  0.4181 -0.1798
    21BTZ    C9 3445   4.763   2.727   4.578 -0.1097  0.0918  0.3104
    21BTZ   C10 3446   4.729   2.841   4.645 -0.1042  0.1116  0.2795
    21BTZ   C11 3447   4.595   2.891   4.634 -0.0219  0.2760  0.0324
    21BTZ    N2 3448   4.376   2.872   4.544  0.1290  0.5674 -0.4039
    21BTZ    N3 3449   4.551   3.001   4.694 -0.0086  0.3113 -0.0215
    21BTZ    S3 3450   4.379   3.018   4.647  0.1041  0.5320 -0.3525
    31IDT   C12 3451   4.838   2.895   4.743 -0.4738 -0.2834  0.3329
    31IDT   C13 3452   4.813   2.961   4.860 -0.2289  0.3930  0.0086
    31IDT   C14 3453   4.929   2.971   4.944 -0.0105  1.0281 -0.3576
    31IDT   C15 3454   5.042   2.912   4.891 -0.0873  0.8404 -0.3145
    31IDT    S4 3455   5.011   2.840   4.730 -0.4454 -0.1641  0.1973
    4IDB    C16 3456   5.149   2.923   4.983 -0.6116  0.9201 -0.1871
    4IDB    C17 3457   5.106   2.970   5.111 -0.3440  0.6291  0.0119
    51IDQ   C18 3458   4.959   3.019   5.093 -0.6290  1.6184  0.4061
    4IDB    C19 3459   5.192   2.970   5.220 -0.0766  0.4959 -0.1984
    51IDQ   C20 3460   4.838   2.957   5.196 -0.1255 -0.6195  0.2809
    51IDQ   C21 3461   4.932   3.160   5.116 -0.2772 -1.3203  0.7850
    51IDQ   C22 3462   5.032   3.277   5.144 -0.3787 -1.9773 -0.7514
    51IDQ   C23 3463   4.861   2.834   5.281  0.9616 -0.2016 -0.8520
    51IDQ   C24 3464   5.176   3.272   5.087 -0.1985  0.9521 -0.4997
    51IDQ   C25 3465   5.255   3.394   5.126 -0.9798 -0.2524 -0.9259
    51IDQ   C26 3466   5.310   3.394   5.269  1.2041 -0.2292  0.4976
    51IDQ   C27 3467   5.454   3.365   5.314  0.1426  0.1742 -0.9453
    51IDQ   C28 3468   5.547   3.325   5.195  0.4017 -0.8662  0.3491
    51IDQ   C29 3469   5.673   3.392   5.156 -0.5940 -0.0471 -0.1640
    51IDQ   C30 3470   4.733   2.820   5.379 -0.2000  0.1646  1.0338
    51IDQ   C31 3471   4.594   2.812   5.320  0.9674  1.3965 -0.5984
    51IDQ   C32 3472   4.542   2.660   5.360 -0.9985  0.7219 -0.5533
    51IDQ   C33 3473   4.443   2.596   5.269  0.9030  1.1894  1.2984
    51IDQ   C34 3474   4.442   2.441   5.292 -0.1651 -1.2362 -1.0917
    51IDQ   C35 3475   4.341   2.409   5.407 -0.6249 -0.8766  0.5736
    4IDB    C36 3476   5.279   2.875   4.963 -0.6135  1.0803 -0.6003
    4IDB    C37 3477   5.366   2.876   5.076 -0.3383  0.9406 -0.8104
    11RH    C38 3478   4.067   2.194   4.263  0.3623  0.3494 -0.2776
    4IDB    C39 3479   5.323   2.922   5.200 -0.0784  0.6561 -0.6116
    62IDT   C40 3480   5.436   2.942   5.294  0.5267 -0.5147 -0.2844
    72IDQ   C41 3481   5.519   2.850   5.082  0.0209 -0.2567  1.5372
    62IDT   C42 3482   5.552   2.906   5.228  0.5839 -1.3993  0.2804
    72IDQ   C43 3483   5.584   2.945   4.975  0.6212  1.2425 -0.4616
    72IDQ   C44 3484   5.530   2.699   5.030 -0.1843  0.1710 -0.0694
    62IDT    S5 3485   5.470   3.007   5.458  0.2834  0.1404 -0.4924
    62IDT   C45 3486   5.648   2.981   5.426  0.2712 -0.8655  0.2303
    62IDT   C46 3487   5.671   2.928   5.302  0.4392 -1.5988  0.5720
    82BTZ   C47 3488   5.738   2.978   5.541  0.1891  0.4175  0.0762
    82BTZ   C48 3489   5.684   2.990   5.667  0.1276  0.1392  0.0777
    82BTZ   C49 3490   5.767   2.996   5.785  0.0651 -0.2369  0.1421
    82BTZ   C50 3491   5.904   2.990   5.777  0.0642 -0.3341  0.2053
    82BTZ   C51 3492   5.881   2.971   5.528  0.1907  0.3297  0.1404
    82BTZ   C52 3493   5.965   2.977   5.648  0.1273 -0.0525  0.2060
    92RH    C53 3494   5.989   2.990   5.907 -0.1819 -0.7776  0.0272
    82BTZ    N4 3495   5.945   2.959   5.412  0.2475  0.5769  0.1457
    82BTZ    N5 3496   6.097   2.970   5.628  0.1328 -0.1127  0.2639
    82BTZ    S6 3497   6.120   2.955   5.451  0.2218  0.3258  0.2363
    92RH    C54 3498   5.970   2.992   6.039 -0.0708 -0.6108  0.0412
    92RH     S7 3499   5.812   3.022   6.127  0.1442  0.2547  0.1480
    92RH    C55 3500   6.079   2.970   6.138 -0.1070 -1.1214 -0.0305
    92RH     O2 3501   6.198   2.947   6.110 -0.2415 -1.7513 -0.1104
    92RH     N6 3502   6.031   2.978   6.270  0.0327 -0.8031  0.0026
    92RH    C56 3503   5.897   3.003   6.290  0.1760 -0.0999  0.0923
    92RH    C57 3504   6.134   2.956   6.374 -0.2470  0.3427  0.1963
    92RH    C58 3505   6.191   3.076   6.455 -0.4278 -0.6564  0.1054
    92RH     S8 3506   5.814   3.017   6.436  0.3581  0.4010  0.1483
    72IDQ   C59 3507   5.635   2.588   5.101 -1.5161  1.0280  0.4213
    72IDQ   C60 3508   5.769   2.629   5.162  1.1552 -0.4770 -0.3028
    72IDQ   C61 3509   5.805   2.504   5.243  0.9049 -0.5530 -0.7540
    72IDQ   C62 3510   5.946   2.526   5.266 -0.6227  0.7419 -0.8396
    72IDQ   C63 3511   6.036   2.435   5.166  0.0221  0.0376 -0.8291
    72IDQ   C64 3512   5.977   2.292   5.164  1.6310  1.0038  0.6230
    72IDQ   C65 3513   6.056   2.209   5.068 -0.7607 -0.1314  0.1358
    72IDQ   C66 3514   5.734   2.928   4.929  1.0562 -0.7827 -1.4138
    72IDQ   C67 3515   5.756   2.804   4.841  0.0987  0.0953  0.8859
    72IDQ   C68 3516   5.876   2.833   4.758  0.4566  1.0965 -1.2761
    72IDQ   C69 3517   5.919   2.756   4.629  0.1609  1.1848 -1.5510
    72IDQ   C70 3518   5.853   2.770   4.501 -0.3595  0.0166  0.2661
    72IDQ   C71 3519   5.874   2.681   4.386  0.7660 -0.1052 -0.1029
    72IDQ   C72 3520   5.829   2.539   4.379 -0.1734  0.5192 -0.4431
    11RH     C1 3521   1.409   3.271   1.861  0.0450  0.0439 -0.2119
    11RH     C2 3522   1.524   3.304   1.949 -0.1001 -0.2841  0.1050
    11RH     N1 3523   1.304   3.363   1.875  0.1320  0.1478 -0.2451
    11RH     S1 3524   1.485   3.456   2.045 -0.1129 -0.4343  0.3384
    11RH     C3 3525   1.320   3.468   1.964  0.0743 -0.0567  0.0062
    11RH     C4 3526   1.173   3.340   1.803  0.2263  0.8202  0.1716
    11RH     S2 3527   1.211   3.591   2.000  0.1546  0.0083  0.0275
    11RH     O1 3528   1.404   3.174   1.784  0.0877  0.2114 -0.4253
    11RH     C5 3529   1.636   3.232   1.955 -0.2034 -0.4387  0.1973
    21BTZ    C6 3530   1.772   3.267   2.012 -0.0787 -0.1209 -0.0079
    21BTZ    C7 3531   1.799   3.376   2.091 -0.0045 -0.1326 -0.0162
    21BTZ    C8 3532   1.881   3.181   1.975 -0.1152 -0.1227 -0.1120
    21BTZ    C9 3533   1.932   3.405   2.137  0.0374 -0.1464 -0.1268
    21BTZ   C10 3534   2.039   3.326   2.105  0.0052 -0.1486 -0.2289
    21BTZ   C11 3535   2.016   3.211   2.022 -0.0726 -0.1367 -0.2246
    21BTZ    N2 3536   1.868   3.072   1.899 -0.1872 -0.1123 -0.1149
    21BTZ    N3 3537   2.112   3.126   1.984 -0.1103 -0.1374 -0.3179
    21BTZ    S3 3538   2.032   3.002   1.884 -0.2040 -0.1198 -0.2645
    31IDT   C12 3539   2.171   3.376   2.146 -0.4742 -0.0227  0.6338
    31IDT   C13 3540   2.291   3.311   2.155 -0.5213 -0.0644  0.9619
    31IDT   C14 3541   2.398   3.396   2.196 -0.5193 -0.0043  0.8311
    31IDT   C15 3542   2.360   3.527   2.218 -0.4706  0.0833  0.4039
    31IDT    S4 3543   2.185   3.553   2.188 -0.4231  0.0964  0.1310
    4IDB    C16 3544   2.485   3.598   2.252  0.2494 -0.2132 -0.5636
    4IDB    C17 3545   2.598   3.510   2.257  0.2811 -0.1364  0.3639
    51IDQ   C18 3546   2.546   3.364   2.244  1.2047 -0.0686 -0.4049
    4IDB    C19 3547   2.726   3.560   2.277  0.1809  0.0498  0.5412
    51IDQ   C20 3548   2.636   3.268   2.145 -0.8270 -0.0651  0.9817
    51IDQ   C21 3549   2.546   3.283   2.394 -0.0160 -1.0480  0.0614
    51IDQ   C22 3550   2.535   3.361   2.531  0.1900 -0.8674 -0.4415
    51IDQ   C23 3551   2.612   3.249   1.995  0.1194 -0.5769 -1.0794
    51IDQ   C24 3552   2.474   3.268   2.630  0.6580 -1.2085  0.0040
    51IDQ   C25 3553   2.552   3.322   2.750  0.0862 -0.3869  0.5285
    51IDQ   C26 3554   2.517   3.298   2.900 -0.3628  0.6197  0.6897
    51IDQ   C27 3555   2.374   3.276   2.936  0.4794 -0.8519  0.0399
    51IDQ   C28 3556   2.350   3.261   3.083 -1.1989  0.0236  0.6366
    51IDQ   C29 3557   2.281   3.376   3.161  0.9496  1.0312 -0.2991
    51IDQ   C30 3558   2.665   3.161   1.898  0.8833  0.0725 -0.3990
    51IDQ   C31 3559   2.600   3.145   1.759 -0.5576  0.3183 -1.1703
    51IDQ   C32 3560   2.458   3.087   1.778 -1.0564  0.1176  1.0520
    51IDQ   C33 3561   2.410   2.972   1.674 -0.3114  0.3021  0.1261
    51IDQ   C34 3562   2.441   2.832   1.691 -0.0209 -1.1196 -0.5709
    51IDQ   C35 3563   2.382   2.736   1.603 -0.3795  0.5407 -0.8280
    4IDB    C36 3564   2.500   3.736   2.269  0.1165 -0.1031 -1.3238
    4IDB    C37 3565   2.632   3.785   2.290  0.0155  0.0869 -1.1294
    11RH    C38 3566   1.050   3.258   1.840 -0.5296  0.7626  0.6948
    4IDB    C39 3567   2.741   3.698   2.294  0.0479  0.1597 -0.2192
    62IDT   C40 3568   2.860   3.777   2.321  0.2851 -0.3113 -0.5493
    72IDQ   C41 3569   2.683   3.929   2.332 -0.6847  0.3924 -0.5315
    62IDT   C42 3570   2.831   3.911   2.335  0.0800 -0.3834 -0.2804
    72IDQ   C43 3571   2.617   3.992   2.462  1.1281 -1.6937  0.3960
    72IDQ   C44 3572   2.650   4.046   2.213 -0.3192  0.2536 -1.0859
    62IDT    S5 3573   3.037   3.745   2.328  0.3166 -0.0905 -0.3244
    62IDT   C45 3574   3.064   3.923   2.352  0.0373 -0.1080  0.1443
    62IDT   C46 3575   2.947   3.994   2.353 -0.0606 -0.2686  0.1123
    82BTZ   C47 3576   3.202   3.971   2.335 -0.0425  0.0984  0.3237
    82BTZ   C48 3577   3.303   3.883   2.307 -0.1488  0.0594  0.0703
    82BTZ   C49 3578   3.441   3.923   2.309 -0.1279  0.0079 -0.2871
    82BTZ   C50 3579   3.479   4.051   2.340 -0.0006 -0.0048 -0.3904
    82BTZ   C51 3580   3.236   4.107   2.368  0.0927  0.0875  0.2288
    82BTZ   C52 3581   3.377   4.147   2.371  0.1140  0.0350 -0.1345
    92RH    C53 3582   3.624   4.097   2.352 -0.1367 -0.1070 -0.0503
    82BTZ    N4 3583   3.147   4.202   2.398  0.2044  0.1223  0.4522
    82BTZ    N5 3584   3.402   4.275   2.402  0.2427  0.0279 -0.2030
    82BTZ    S6 3585   3.242   4.350   2.431  0.3442  0.0888  0.2023
    92RH    C54 3586   3.733   4.021   2.359 -0.0033  0.0913  0.0191
    92RH     S7 3587   3.740   3.837   2.363  0.3220  0.1042  0.0997
    92RH    C55 3588   3.871   4.076   2.365 -0.1032  0.3390  0.0416
    92RH     O2 3589   3.901   4.196   2.364 -0.3177  0.3920 -0.0001
    92RH     N6 3590   3.968   3.973   2.373  0.0776  0.5143  0.1180
    92RH    C56 3591   3.924   3.842   2.373  0.3103  0.4368  0.1594
    92RH    C57 3592   4.108   4.010   2.405  0.5774  0.3630 -0.2946
    92RH    C58 3593   4.150   4.061   2.543  0.3322 -0.3854 -0.1934
    92RH     S8 3594   4.018   3.702   2.381  0.5572  0.6068  0.2507
    72IDQ   C59 3595   2.674   4.200   2.213 -0.9136  0.2954  1.0738
    72IDQ   C60 3596   2.612   4.292   2.119 -0.2335 -0.7171  0.0630
    72IDQ   C61 3597   2.442   4.292   2.109  0.0056 -0.6478 -0.1984
    72IDQ   C62 3598   2.404   4.361   1.972 -0.9127  2.0621 -0.0888
    72IDQ   C63 3599   2.297   4.307   1.893 -0.3597  1.0492  0.0981
    72IDQ   C64 3600   2.186   4.400   1.861 -0.3414  0.4502 -0.6976
    72IDQ   C65 3601   2.067   4.362   1.785 -0.8431 -0.9162 -0.1520
    72IDQ   C66 3602   2.639   3.964   2.604  0.1833  0.2719  0.5917
    72IDQ   C67 3603   2.646   3.821   2.646 -0.7785  0.9980 -0.4244
    72IDQ   C68 3604   2.712   3.813   2.777 -0.9452 -2.1934  1.0750
    72IDQ   C69 3605   2.683   3.670   2.828 -0.4104 -0.8649  0.1738
    72IDQ   C70 3606   2.710   3.647   2.982 -1.2908 -0.2914 -1.1457
    72IDQ   C71 3607   2.769   3.510   2.994 -0.8278  1.1722 -0.7999
    72IDQ   C72 3608   2.835   3.470   3.130  1.8027 -0.1239 -0.0502
    11RH     C1 3609   6.071   2.761   6.756  0.2131 -0.2124 -0.6084
    11RH     C2 3610   5.958   2.676   6.711 -0.0024 -0.1301 -0.2265
    11RH     N1 3611   6.027   2.860   6.846  0.5081  0.1304 -0.8399
    11RH     S1 3612   5.803   2.731   6.792  0.1974  0.3928 -0.1972
    11RH     C3 3613   5.894   2.865   6.880  0.5553  0.4773 -0.6902
    11RH     C4 3614   6.120   2.969   6.894  0.8561 -0.4344  0.6388
    11RH     S2 3615   5.817   2.972   6.985  0.8824  0.9240 -0.9053
    11RH     O1 3616   6.189   2.750   6.720  0.1488 -0.5382 -0.7184
    11RH     C5 3617   5.972   2.574   6.626 -0.2965 -0.4043  0.0476
    21BTZ    C6 3618   5.888   2.495   6.545 -0.3614 -0.2951  0.0554
    21BTZ    C7 3619   5.752   2.512   6.535 -0.4077 -0.5867  0.1714
    21BTZ    C8 3620   5.950   2.392   6.468 -0.2103 -0.1873  0.0331
    21BTZ    C9 3621   5.672   2.429   6.449 -0.3085 -0.7858  0.2708
    21BTZ   C10 3622   5.727   2.329   6.373 -0.1631 -0.6932  0.2538
    21BTZ   C11 3623   5.869   2.307   6.381 -0.1094 -0.3897  0.1342
    21BTZ    N2 3624   6.081   2.365   6.470 -0.1519  0.0917 -0.0753
    21BTZ    N3 3625   5.934   2.213   6.312  0.0300 -0.2733  0.1066
    21BTZ    S3 3626   6.107   2.229   6.358  0.0382  0.1078 -0.0530
    31IDT   C12 3627   5.631   2.261   6.278  0.4410 -0.4674  0.1773
    31IDT   C13 3628   5.663   2.185   6.168  0.0794 -0.1727 -0.1323
    31IDT   C14 3629   5.551   2.163   6.082 -0.1049  0.4311 -0.0544
    31IDT   C15 3630   5.434   2.221   6.125  0.1148  0.6001  0.3145
    31IDT    S4 3631   5.456   2.310   6.280  0.5759  0.0022  0.5945
    4IDB    C16 3632   5.319   2.183   6.049  0.7277 -0.3635 -0.3898
    4IDB    C17 3633   5.370   2.132   5.926  0.3393 -0.4309 -0.5231
    51IDQ   C18 3634   5.528   2.107   5.939  0.5937 -1.3474  2.3537
    4IDB    C19 3635   5.284   2.097   5.822  0.0168 -0.4039 -0.2662
    51IDQ   C20 3636   5.558   1.947   5.927  0.9615  0.5062  0.9021
    51IDQ   C21 3637   5.613   2.185   5.824  0.0544 -1.1241  0.4505
    51IDQ   C22 3638   5.545   2.261   5.712  0.4957 -1.0474  0.3075
    51IDQ   C23 3639   5.672   1.886   6.030  0.0936 -0.6745 -0.0556
    51IDQ   C24 3640   5.631   2.311   5.590  1.7342  0.3799  0.6403
    51IDQ   C25 3641   5.625   2.199   5.472  1.0267  0.7995  0.1986
    51IDQ   C26 3642   5.666   2.064   5.476 -1.1044 -0.6532  0.0039
    51IDQ   C27 3643   5.820   2.040   5.477  0.4015  0.3736  0.4163
    51IDQ   C28 3644   5.938   2.138   5.519  0.0542  1.3954 -0.2643
    51IDQ   C29 3645   6.020   2.050   5.617  1.0493  0.4892  0.9174
    51IDQ   C30 3646   5.753   1.757   6.022  0.3937 -0.2451  0.9986
    51IDQ   C31 3647   5.844   1.711   6.135 -1.2580  0.5424 -0.4216
    51IDQ   C32 3648   5.912   1.587   6.103 -1.3886 -0.3242 -0.3414
    51IDQ   C33 3649   6.001   1.502   6.206  0.0111 -0.8749 -0.1519
    51IDQ   C34 3650   5.960   1.343   6.216  0.0350  0.2431  0.7452
    51IDQ   C35 3651   6.092   1.288   6.229 -0.5648 -0.4970  1.1243
    4IDB    C36 3652   5.181   2.199   6.070  0.7966 -0.2682  0.0031
    4IDB    C37 3653   5.095   2.163   5.963  0.4637 -0.2422  0.2608
    11RH    C38 3654   6.193   2.921   7.013 -0.0133 -0.4191  0.6561
    4IDB    C39 3655   5.146   2.114   5.843  0.0860 -0.3087  0.1266
    62IDT   C40 3656   5.038   2.070   5.762 -0.5794 -0.0890  0.0474
    72IDQ   C41 3657   4.946   2.191   5.956 -0.4336 -0.0689  0.6770
    62IDT   C42 3658   4.927   2.131   5.817 -0.4184  0.4144 -0.1767
    72IDQ   C43 3659   4.907   2.348   5.952 -0.5056  0.5564  0.7864
    72IDQ   C44 3660   4.884   2.143   6.094 -1.0178  0.4744  0.9742
    62IDT    S5 3661   4.997   1.974   5.616 -0.8115 -0.3955  0.3133
    62IDT   C45 3662   4.823   2.023   5.638 -0.6720  0.2020  0.0971
    62IDT   C46 3663   4.805   2.104   5.747 -0.4704  0.5796 -0.1490
    82BTZ   C47 3664   4.734   1.979   5.535  0.1302 -0.4971  0.4484
    82BTZ   C48 3665   4.799   1.943   5.420 -0.0079 -0.2379  0.2894
    82BTZ   C49 3666   4.736   1.860   5.320 -0.1886  0.1262  0.0989
    82BTZ   C50 3667   4.609   1.813   5.336 -0.2311  0.2309  0.0674
    82BTZ   C51 3668   4.601   1.932   5.556  0.0923 -0.4007  0.4232
    82BTZ   C52 3669   4.537   1.848   5.455 -0.0916 -0.0305  0.2296
    92RH    C53 3670   4.534   1.740   5.229 -0.3888  0.0313 -0.2433
    82BTZ    N4 3671   4.527   1.960   5.664  0.2153 -0.6290  0.5665
    82BTZ    N5 3672   4.412   1.808   5.481 -0.1161  0.0388  0.2172
    82BTZ    S6 3673   4.370   1.878   5.641  0.0990 -0.3749  0.4579
    92RH    C54 3674   4.572   1.700   5.107 -0.0796  0.1687 -0.1922
    92RH     S7 3675   4.734   1.731   5.027  0.1208  0.2704  0.2498
    92RH    C55 3676   4.486   1.621   5.016  0.1547  0.2626 -0.4981
    92RH     O2 3677   4.370   1.583   5.041  0.0944  0.2258 -0.8311
    92RH     N6 3678   4.552   1.592   4.895  0.4634  0.4021 -0.3655
    92RH    C56 3679   4.680   1.638   4.877  0.5047  0.4318  0.0093
    92RH    C57 3680   4.487   1.509   4.803  0.3759  0.5589  0.3624
    92RH    C58 3681   4.461   1.367   4.837  0.2659  1.3867  0.4565
    92RH     S8 3682   4.780   1.618   4.743  0.8450  0.5884  0.2367
    72IDQ   C59 3683   4.735   2.111   6.070 -0.5046  0.8258 -1.2419
    72IDQ   C60 3684   4.627   2.209   6.110 -0.2019 -0.7066 -1.6475
    72IDQ   C61 3685   4.651   2.258   6.249  1.1620  0.3688  0.4438
    72IDQ   C62 3686   4.552   2.363   6.303  1.2928 -1.1580 -0.5850
    72IDQ   C63 3687   4.534   2.360   6.459 -0.7842  0.4076 -0.8481
    72IDQ   C64 3688   4.554   2.507   6.530 -0.0085  0.9828 -0.5732
    72IDQ   C65 3689   4.456   2.616   6.499 -0.3786 -0.1890 -0.2721
    72IDQ   C66 3690   5.004   2.432   5.850  0.4996 -0.4452 -0.9796
    72IDQ   C67 3691   4.993   2.444   5.701  0.6472  0.5325  0.7091
    72IDQ   C68 3692   5.065   2.560   5.636  0.4885 -0.7927  0.4232
    72IDQ   C69 3693   5.128   2.544   5.505 -1.7960 -0.4235  0.3902
    72IDQ   C70 3694   5.279   2.500   5.473  0.2510  0.9547 -0.1284
    72IDQ   C71 3695   5.338   2.608   5.370  0.1287  1.2596 -0.0570
    72IDQ   C72 3696   5.481   2.610   5.418 -0.3029  1.2808 -0.4938
    11RH     C1 3697   5.117   3.659   6.588  0.6385  0.2521  0.1838
    11RH     C2 3698   5.030   3.772   6.547  0.4129 -0.0293 -0.1283
    11RH     N1 3699   5.099   3.626   6.724  0.3434  0.2728  0.1505
    11RH     S1 3700   4.931   3.828   6.691 -0.1719 -0.2486 -0.4450
    11RH     C3 3701   5.009   3.699   6.797 -0.0906  0.0424 -0.1502
    11RH     C4 3702   5.139   3.492   6.768  0.5588  0.5901 -1.4016
    11RH     S2 3703   4.969   3.680   6.960 -0.5052  0.0125 -0.2539
    11RH     O1 3704   5.196   3.599   6.513  1.0352  0.4486  0.4449
    11RH     C5 3705   5.028   3.823   6.424  0.6176 -0.1039 -0.1629
    21BTZ    C6 3706   4.953   3.937   6.365  0.4531 -0.0478  0.3787
    21BTZ    C7 3707   4.855   4.007   6.431  0.2582 -0.2058  0.2577
    21BTZ    C8 3708   5.019   4.000   6.254  0.1426 -0.1291  0.1471
    21BTZ    C9 3709   4.817   4.141   6.392 -0.2480 -0.4497 -0.0944
    21BTZ   C10 3710   4.877   4.204   6.286 -0.5584 -0.5354 -0.3253
    21BTZ   C11 3711   4.980   4.135   6.214 -0.3717 -0.3774 -0.2110
    21BTZ    N2 3712   5.115   3.942   6.182  0.2892  0.0074  0.2346
    21BTZ    N3 3713   5.046   4.187   6.110 -0.6385 -0.4401 -0.4115
    21BTZ    S3 3714   5.162   4.061   6.057 -0.2345 -0.1791 -0.1452
    31IDT   C12 3715   4.824   4.333   6.244 -0.2997  0.2766  0.7658
    31IDT   C13 3716   4.707   4.357   6.175 -0.0570  0.2275  0.3328
    31IDT   C14 3717   4.668   4.494   6.180  0.1857  0.3228 -0.3221
    31IDT   C15 3718   4.753   4.575   6.251  0.1300  0.4447 -0.3932
    31IDT    S4 3719   4.892   4.484   6.320 -0.2377  0.4486  0.3712
    4IDB    C16 3720   4.702   4.708   6.267  0.0513 -0.3144 -0.2805
    4IDB    C17 3721   4.593   4.724   6.176  0.1190 -0.5682 -0.4075
    51IDQ   C18 3722   4.556   4.588   6.115 -0.4198  1.2479  0.1140
    4IDB    C19 3723   4.539   4.850   6.151  0.0342 -0.6575 -0.6782
    51IDQ   C20 3724   4.407   4.580   6.166 -0.7708 -0.6599 -0.6170
    51IDQ   C21 3725   4.572   4.572   5.962  0.7296  0.6645  0.0391
    51IDQ   C22 3726   4.650   4.674   5.882  0.6197 -0.0224 -0.3806
    51IDQ   C23 3727   4.376   4.505   6.300  1.5959  0.4300  0.4373
    51IDQ   C24 3728   4.802   4.673   5.891 -1.5011 -0.0433 -1.3043
    51IDQ   C25 3729   4.873   4.537   5.870 -0.2892  0.0238  0.1696
    51IDQ   C26 3730   4.837   4.420   5.767  0.2620 -0.4585  0.7166
    51IDQ   C27 3731   4.803   4.460   5.620  0.2842  0.4155 -0.4584
    51IDQ   C28 3732   4.710   4.360   5.558  0.5778  1.6416 -1.4322
    51IDQ   C29 3733   4.693   4.412   5.413 -0.2415  0.3667 -0.4051
    51IDQ   C30 3734   4.232   4.525   6.301  1.8062 -1.1819  0.2471
    51IDQ   C31 3735   4.193   4.544   6.444 -0.3273 -1.0707 -1.1166
    51IDQ   C32 3736   4.230   4.452   6.578  0.5039 -1.2731 -0.4811
    51IDQ   C33 3737   4.378   4.476   6.618  0.3640  0.2922  1.0138
    51IDQ   C34 3738   4.400   4.619   6.674  0.2666 -0.2365 -0.0430
    51IDQ   C35 3739   4.541   4.651   6.711 -0.4704 -0.2229  0.2712
    4IDB    C36 3740   4.757   4.818   6.335 -0.1025 -0.1473 -0.4253
    4IDB    C37 3741   4.700   4.946   6.308 -0.1872 -0.2420 -0.7024
    11RH    C38 3742   5.038   3.376   6.742 -0.0766 -0.1392  0.5630
    4IDB    C39 3743   4.594   4.960   6.219 -0.1195 -0.4907 -0.8233
    62IDT   C40 3744   4.558   5.094   6.203 -0.0787 -0.2453  0.8280
    72IDQ   C41 3745   4.737   5.083   6.356  0.6718 -0.8281 -0.4906
    62IDT   C42 3746   4.627   5.170   6.295  0.6554  0.4642 -0.2825
    72IDQ   C43 3747   4.897   5.122   6.334 -0.3268 -0.3981 -0.6847
    72IDQ   C44 3748   4.726   5.059   6.512 -0.8501 -0.9011 -1.6968
    62IDT    S5 3749   4.421   5.185   6.130 -0.4656 -0.6946  0.9906
    62IDT   C45 3750   4.466   5.327   6.234  0.4294  0.1407 -0.5255
    62IDT   C46 3751   4.575   5.302   6.313  0.9439  0.6833 -1.0490
    82BTZ   C47 3752   4.381   5.448   6.243  0.1231  0.3305 -0.1052
    82BTZ   C48 3753   4.245   5.437   6.238  0.1230  0.2472  0.0925
    82BTZ   C49 3754   4.160   5.554   6.232  0.0396  0.1984  0.3004
    82BTZ   C50 3755   4.212   5.680   6.230 -0.0432  0.2327  0.3103
    82BTZ   C51 3756   4.441   5.578   6.241  0.0381  0.3693 -0.1037
    82BTZ   C52 3757   4.354   5.697   6.234 -0.0465  0.3197  0.1075
    92RH    C53 3758   4.124   5.798   6.230  0.0089 -0.4502 -0.3423
    82BTZ    N4 3759   4.572   5.601   6.245  0.0293  0.4497 -0.2851
    82BTZ    N5 3760   4.417   5.815   6.233 -0.1237  0.3603  0.0958
    82BTZ    S6 3761   4.592   5.779   6.240 -0.0898  0.4654 -0.1916
    92RH    C54 3762   3.993   5.818   6.251  0.0796 -0.1917 -0.1388
    92RH     S7 3763   3.879   5.710   6.345  0.1123  0.2856  0.4550
    92RH    C55 3764   3.920   5.935   6.198  0.1438 -0.2565 -0.3731
    92RH     O2 3765   3.969   6.027   6.130  0.1404 -0.5512 -0.7772
    92RH     N6 3766   3.783   5.931   6.234  0.2118  0.0636 -0.0775
    92RH    C56 3767   3.739   5.825   6.310  0.2095  0.3767  0.3650
    92RH    C57 3768   3.707   6.068   6.216 -0.2442  0.9679 -0.0626
    92RH    C58 3769   3.629   6.074   6.089  0.3310  0.3332 -0.7641
    92RH     S8 3770   3.582   5.796   6.366  0.2817  0.7908  0.7825
    72IDQ   C59 3771   4.615   5.100   6.608 -0.7048  1.4829 -0.3414
    72IDQ   C60 3772   4.463   5.065   6.568  0.3720 -0.1315 -0.5855
    72IDQ   C61 3773   4.395   4.982   6.656  0.4360  1.4484 -0.6386
    72IDQ   C62 3774   4.252   4.957   6.599 -0.8219 -0.3003 -0.1773
    72IDQ   C63 3775   4.155   4.944   6.719  0.3410  0.1003 -1.0912
    72IDQ   C64 3776   3.994   4.943   6.711  0.4519  0.3755 -1.1778
    72IDQ   C65 3777   3.926   4.890   6.595  0.9472  1.0477  0.1455
    72IDQ   C66 3778   4.937   5.189   6.205  0.4910 -0.5672  0.8519
    72IDQ   C67 3779   4.950   5.113   6.067  0.4093 -0.3677 -0.1623
    72IDQ   C68 3780   5.079   5.102   5.994 -0.7919 -0.4408 -0.3111
    72IDQ   C69 3781   5.147   4.960   6.028  0.4570 -0.4354  0.2639
    72IDQ   C70 3782   5.283   4.958   5.950 -0.6366  0.0342  0.0362
    72IDQ   C71 3783   5.284   4.985   5.793  0.2025 -0.4636  0.7362
    72IDQ   C72 3784   5.236   4.891   5.698 -0.7992  0.0352 -0.0652
    11RH     C1 3785   2.317   2.228   4.249 -0.0024  0.7025 -0.1366
    11RH     C2 3786   2.342   2.099   4.180 -0.1348  0.5721  0.0579
    11RH     N1 3787   2.436   2.281   4.304  0.0006  0.5209  0.0307
    11RH     S1 3788   2.520   2.056   4.192 -0.2466  0.2196  0.4481
    11RH     C3 3789   2.553   2.210   4.288 -0.1132  0.2612  0.3350
    11RH     C4 3790   2.458   2.414   4.342 -0.8370 -0.5289  1.2669
    11RH     S2 3791   2.707   2.250   4.343 -0.1358  0.0076  0.5832
    11RH     O1 3792   2.207   2.285   4.258  0.0951  0.9404 -0.4115
    11RH     C5 3793   2.246   2.029   4.119 -0.1641  0.6999 -0.0446
    21BTZ    C6 3794   2.228   1.901   4.052  0.2230  0.2689 -0.2155
    21BTZ    C7 3795   2.325   1.807   4.027  0.2096  0.2448 -0.1781
    21BTZ    C8 3796   2.090   1.864   4.035  0.2180  0.2846 -0.2091
    21BTZ    C9 3797   2.291   1.673   3.984  0.1905  0.2350 -0.1329
    21BTZ   C10 3798   2.161   1.634   3.966  0.1850  0.2492 -0.1249
    21BTZ   C11 3799   2.056   1.728   3.992  0.1987  0.2745 -0.1630
    21BTZ    N2 3800   1.987   1.946   4.057  0.2300  0.3083 -0.2425
    21BTZ    N3 3801   1.926   1.702   3.978  0.1951  0.2903 -0.1595
    21BTZ    S3 3802   1.840   1.852   4.021  0.2168  0.3191 -0.2161
    31IDT   C12 3803   2.144   1.485   3.949 -0.5169 -0.2633 -0.5477
    31IDT   C13 3804   2.021   1.430   3.927 -0.3451 -0.8415 -0.1036
    31IDT   C14 3805   2.025   1.288   3.912  0.2320 -0.8511  0.1136
    31IDT   C15 3806   2.151   1.234   3.922  0.5035 -0.2818 -0.1631
    31IDT    S4 3807   2.276   1.360   3.952  0.0450  0.3161 -0.7251
    4IDB    C16 3808   2.140   1.089   3.909  0.1037  0.5386 -0.1817
    4IDB    C17 3809   2.000   1.061   3.903  0.0066  1.1911 -1.3924
    51IDQ   C18 3810   1.914   1.189   3.898 -2.4114  1.0275  0.6231
    4IDB    C19 3811   1.954   0.933   3.874 -0.3263  1.2252 -1.0269
    51IDQ   C20 3812   1.829   1.191   3.765 -0.1688  0.5532 -0.1106
    51IDQ   C21 3813   1.823   1.214   4.024  0.5536 -0.1377  0.2164
    51IDQ   C22 3814   1.839   1.178   4.186  0.4546 -0.2690 -0.0025
    51IDQ   C23 3815   1.894   1.222   3.633 -0.7468  0.5206  0.1537
    51IDQ   C24 3816   1.870   1.037   4.247 -0.5505 -1.4564 -0.4450
    51IDQ   C25 3817   1.944   1.036   4.383  0.7239 -0.6034  1.2988
    51IDQ   C26 3818   1.982   0.893   4.439 -0.3256 -0.0283 -1.6528
    51IDQ   C27 3819   2.000   0.901   4.589 -0.2374 -1.4039 -1.0944
    51IDQ   C28 3820   2.047   0.768   4.656 -1.0623 -0.6711 -0.1702
    51IDQ   C29 3821   2.055   0.802   4.809 -1.5389 -0.0997 -0.0603
    51IDQ   C30 3822   1.861   1.359   3.582  0.1548  0.1079  0.5524
    51IDQ   C31 3823   1.962   1.442   3.507  1.9807  0.3379  0.8395
    51IDQ   C32 3824   1.959   1.382   3.356 -0.0682  0.8715 -0.4259
    51IDQ   C33 3825   1.833   1.389   3.276 -0.4226 -0.7552 -0.6166
    51IDQ   C34 3826   1.831   1.379   3.117  0.3672  0.0798 -0.8278
    51IDQ   C35 3827   1.682   1.396   3.078 -1.5773 -0.2963  1.6096
    4IDB    C36 3828   2.235   0.989   3.886 -0.1333 -0.0871  1.4114
    4IDB    C37 3829   2.187   0.859   3.856 -0.4725 -0.0421  1.7626
    11RH    C38 3830   2.451   2.528   4.245  0.6874 -0.6015 -0.5146
    4IDB    C39 3831   2.050   0.832   3.851 -0.5635  0.5994  0.5662
    62IDT   C40 3832   2.039   0.699   3.806 -0.6035  0.7679  0.1770
    72IDQ   C41 3833   2.272   0.747   3.797 -0.3366 -0.4830 -0.5396
    62IDT   C42 3834   2.163   0.641   3.788 -0.3405  1.3234  0.1744
    72IDQ   C43 3835   2.396   0.709   3.905  0.3469  0.0124  0.5470
    72IDQ   C44 3836   2.334   0.797   3.661  0.8550  0.7684 -0.1962
    62IDT    S5 3837   1.905   0.581   3.781 -0.0864  0.2311 -0.0912
    62IDT   C45 3838   2.030   0.453   3.746  0.4862  0.8145 -0.1980
    62IDT   C46 3839   2.158   0.502   3.754  0.2760  1.3506 -0.0374
    82BTZ   C47 3840   1.987   0.307   3.740 -0.4408 -0.1786  0.4493
    82BTZ   C48 3841   1.894   0.273   3.834 -0.4820 -0.3555  0.3430
    82BTZ   C49 3842   1.835   0.141   3.838 -0.3511 -0.4183  0.1810
    82BTZ   C50 3843   1.871   0.044   3.748 -0.1792 -0.3041  0.1256
    82BTZ   C51 3844   2.028   0.209   3.644 -0.2625 -0.0537  0.3970
    82BTZ   C52 3845   1.969   0.075   3.648 -0.1295 -0.1176  0.2323
    92RH    C53 3846   1.812  -0.097   3.763 -0.2906 -0.5188 -0.2780
    82BTZ    N4 3847   2.119   0.231   3.549 -0.2062  0.1218  0.4892
    82BTZ    N5 3848   2.013  -0.011   3.556  0.0337  0.0069  0.1923
    82BTZ    S6 3849   2.133   0.077   3.457  0.0239  0.2147  0.3673
    92RH    C54 3850   1.732  -0.155   3.853 -0.3453 -0.3307 -0.2064
    92RH     S7 3851   1.663  -0.077   4.004 -0.4624 -0.0060 -0.4263
    92RH    C55 3852   1.686  -0.296   3.844 -0.3185 -0.3586  0.0725
    92RH     O2 3853   1.715  -0.375   3.753 -0.2435 -0.5550  0.2688
    92RH     N6 3854   1.603  -0.330   3.953 -0.3895 -0.1299  0.0907
    92RH    C56 3855   1.576  -0.234   4.048 -0.4700  0.0772 -0.1392
    92RH    C57 3856   1.568  -0.475   3.982 -0.3429  0.3281 -0.5017
    92RH    C58 3857   1.659  -0.571   4.052 -0.7789 -0.3347 -0.8744
    92RH     S8 3858   1.481  -0.249   4.186 -0.5646  0.3695 -0.1719
    72IDQ   C59 3859   2.480   0.765   3.617  0.5433  0.0793  0.0252
    72IDQ   C60 3860   2.501   0.794   3.469 -1.0653 -0.0655 -0.9801
    72IDQ   C61 3861   2.594   0.920   3.457 -0.1794 -0.4208  1.7525
    72IDQ   C62 3862   2.742   0.916   3.493  0.3127 -0.0902 -1.4519
    72IDQ   C63 3863   2.808   1.045   3.541  0.7100 -0.5609  0.3786
    72IDQ   C64 3864   2.795   1.080   3.691  0.1881 -0.2976 -0.2616
    72IDQ   C65 3865   2.649   1.128   3.727  0.6422 -0.9469 -0.6228
    72IDQ   C66 3866   2.394   0.652   4.046  0.2704  0.5689  1.2454
    72IDQ   C67 3867   2.256   0.632   4.124  0.1680  0.3479  0.1968
    72IDQ   C68 3868   2.248   0.629   4.289 -1.1621 -0.1298 -0.5180
    72IDQ   C69 3869   2.356   0.705   4.364 -0.8828  0.7766 -0.4471
    72IDQ   C70 3870   2.375   0.849   4.332 -1.2112 -0.0045  0.1827
    72IDQ   C71 3871   2.500   0.896   4.402 -0.8299  0.0742  0.8304
    72IDQ   C72 3872   2.593   0.999   4.329  0.2582 -0.6317  0.2723
    11RH     C1 3873   0.311   1.604   4.557  0.0524  0.1045  0.0784
    11RH     C2 3874   0.286   1.546   4.691  0.0164  0.2901  0.1526
    11RH     N1 3875   0.418   1.696   4.560  0.2652 -0.1368 -0.0885
    11RH     S1 3876   0.405   1.615   4.812  0.2649  0.1351 -0.0010
    11RH     C3 3877   0.482   1.718   4.680  0.4042 -0.1674 -0.1562
    11RH     C4 3878   0.441   1.790   4.443  2.1244  0.7801 -1.1084
    11RH     S2 3879   0.612   1.822   4.711  0.6640 -0.4332 -0.3505
    11RH     O1 3880   0.248   1.578   4.454 -0.0841  0.1500  0.1500
    11RH     C5 3881   0.190   1.456   4.715 -0.1714  0.5324  0.3087
    21BTZ    C6 3882   0.148   1.402   4.843  0.5534 -0.3030  0.0297
    21BTZ    C7 3883   0.190   1.450   4.964  0.5586 -0.2765  0.0176
    21BTZ    C8 3884   0.057   1.292   4.840  0.3184 -0.1119  0.0646
    21BTZ    C9 3885   0.145   1.391   5.088  0.3349 -0.0623  0.0389
    21BTZ   C10 3886   0.058   1.285   5.090  0.1065  0.1249  0.0724
    21BTZ   C11 3887   0.011   1.232   4.966  0.0913  0.1057  0.0865
    21BTZ    N2 3888   0.009   1.237   4.728  0.2895 -0.1165  0.0796
    21BTZ    N3 3889  -0.073   1.129   4.955 -0.1204  0.2761  0.1187
    21BTZ    S3 3890  -0.099   1.104   4.780 -0.0363  0.1629  0.1229
    31IDT   C12 3891  -0.002   1.267   5.216  0.4042 -0.1128  0.3350
    31IDT   C13 3892  -0.029   1.140   5.262  0.5314  0.1267  1.0912
    31IDT   C14 3893  -0.143   1.135   5.347  0.4728  0.5014  1.0381
    31IDT   C15 3894  -0.205   1.257   5.366  0.3007  0.5500  0.2423
    31IDT    S4 3895  -0.121   1.389   5.278  0.1988  0.1210 -0.5078
    4IDB    C16 3896  -0.330   1.243   5.446 -0.1623  0.6536 -0.2024
    4IDB    C17 3897  -0.336   1.105   5.481  0.3490  0.7656  0.3364
    51IDQ   C18 3898  -0.226   1.022   5.413  0.8750  0.6340  1.1207
    4IDB    C19 3899  -0.446   1.054   5.548  0.5574  0.6272  0.5714
    51IDQ   C20 3900  -0.134   0.937   5.511  0.7866  0.4485 -0.6539
    51IDQ   C21 3901  -0.287   0.922   5.297 -1.2018  0.2292 -1.2431
    51IDQ   C22 3902  -0.437   0.906   5.252  0.5812  1.2595  0.1324
    51IDQ   C23 3903  -0.014   0.990   5.576 -0.6923  0.3449  0.1344
    51IDQ   C24 3904  -0.480   0.922   5.103  0.2649  0.4999 -0.2649
    51IDQ   C25 3905  -0.428   1.035   5.019 -1.5507 -0.1692  0.7992
    51IDQ   C26 3906  -0.498   1.162   5.051  0.3682  0.5770  1.2543
    51IDQ   C27 3907  -0.416   1.291   5.032  0.2521 -0.2783 -0.0298
    51IDQ   C28 3908  -0.407   1.358   4.895 -0.1133  1.8102 -0.5073
    51IDQ   C29 3909  -0.392   1.283   4.768  0.2943 -0.1748 -1.4315
    51IDQ   C30 3910   0.116   0.917   5.552  0.3670 -1.5140 -1.1044
    51IDQ   C31 3911   0.223   1.003   5.479 -0.0525  0.8124  0.8545
    51IDQ   C32 3912   0.242   1.155   5.481  0.7867 -2.2285 -0.7376
    51IDQ   C33 3913   0.247   1.259   5.582 -0.0375 -0.5867 -0.8369
    51IDQ   C34 3914   0.326   1.245   5.728  1.2443  0.6018  0.2875
    51IDQ   C35 3915   0.234   1.229   5.848  0.1103  1.6642  0.2920
    4IDB    C36 3916  -0.435   1.331   5.477 -0.4704  0.4010 -0.5109
    4IDB    C37 3917  -0.546   1.277   5.546 -0.2513  0.2625 -0.2639
    11RH    C38 3918   0.547   1.728   4.360 -1.0662  1.4900  1.9617
    4IDB    C39 3919  -0.551   1.141   5.580  0.2490  0.3746  0.2630
    62IDT   C40 3920  -0.662   1.105   5.659  0.3939  0.1831  0.7075
    72IDQ   C41 3921  -0.686   1.334   5.590 -0.2881  0.7383  0.1253
    62IDT   C42 3922  -0.753   1.209   5.661  1.0304  0.7343  1.7233
    72IDQ   C43 3923  -0.766   1.385   5.475 -0.2075 -0.4600  0.5892
    72IDQ   C44 3924  -0.675   1.461   5.686 -0.5481 -1.0519 -1.1327
    62IDT    S5 3925  -0.723   0.961   5.746 -0.2753 -0.1222 -0.2509
    62IDT   C45 3926  -0.876   1.053   5.783  0.3726  0.5440  0.8246
    62IDT   C46 3927  -0.873   1.180   5.731  1.0195  0.9391  1.7908
    82BTZ   C47 3928  -0.970   0.994   5.887 -0.4587 -0.6169  0.0949
    82BTZ   C48 3929  -0.942   0.870   5.936 -0.8175 -0.6132  0.3107
    82BTZ   C49 3930  -1.035   0.799   6.021 -0.9897 -0.1683  0.4935
    82BTZ   C50 3931  -1.155   0.854   6.057 -0.8025  0.2722  0.4595
    82BTZ   C51 3932  -1.095   1.055   5.921 -0.2513 -0.1650  0.0501
    82BTZ   C52 3933  -1.189   0.984   6.008 -0.4261  0.2872  0.2360
    92RH    C53 3934  -1.236   0.803   6.149  0.5877 -0.3551  0.2265
    82BTZ    N4 3935  -1.134   1.176   5.879  0.0999 -0.1221 -0.1531
    82BTZ    N5 3936  -1.304   1.047   6.036 -0.2153  0.6935  0.1819
    82BTZ    S6 3937  -1.295   1.204   5.950  0.2246  0.5115 -0.1150
    92RH    C54 3938  -1.227   0.702   6.237  0.2942 -0.3174  0.3030
    92RH     S7 3939  -1.073   0.616   6.289  0.0634 -0.6146  0.4950
    92RH    C55 3940  -1.343   0.644   6.307  0.1049 -0.0180  0.2410
    92RH     O2 3941  -1.461   0.680   6.294  0.1941  0.2285  0.1142
    92RH     N6 3942  -1.304   0.539   6.394 -0.1961 -0.0448  0.3458
    92RH    C56 3943  -1.170   0.507   6.402 -0.2716 -0.3290  0.4842
    92RH    C57 3944  -1.398   0.467   6.482 -1.3281 -0.1794 -0.5607
    92RH    C58 3945  -1.436   0.338   6.430 -0.4016 -1.0377  0.2321
    92RH     S8 3946  -1.098   0.388   6.496 -0.6118 -0.4221  0.6278
    72IDQ   C59 3947  -0.757   1.498   5.804  0.8521 -0.3790 -0.2124
    72IDQ   C60 3948  -0.907   1.517   5.816 -0.3144  0.6219 -0.4627
    72IDQ   C61 3949  -0.966   1.651   5.749 -0.3869  0.3947  0.2090
    72IDQ   C62 3950  -1.010   1.643   5.612  0.8235 -0.3402  0.2177
    72IDQ   C63 3951  -1.137   1.563   5.571 -0.8906  0.1935  0.3778
    72IDQ   C64 3952  -1.203   1.576   5.422 -0.7964 -0.2231  0.3708
    72IDQ   C65 3953  -1.315   1.486   5.390  0.6033  0.3455 -0.1980
    72IDQ   C66 3954  -0.738   1.311   5.340  0.2277 -0.5444  0.2489
    72IDQ   C67 3955  -0.838   1.328   5.218 -1.0516 -0.3784  0.7548
    72IDQ   C68 3956  -0.958   1.269   5.269  1.0040 -0.2581 -0.5699
    72IDQ   C69 3957  -1.098   1.283   5.196  0.0488  1.7787  0.6119
    72IDQ   C70 3958  -1.183   1.156   5.193  0.6993  0.4652  0.3971
    72IDQ   C71 3959  -1.299   1.148   5.093 -0.8859  0.0172  0.2232
    72IDQ   C72 3960  -1.275   1.060   4.974  1.0399  0.7605 -0.8340
    11RH     C1 3961   2.740   3.750   5.570 -0.3533 -0.1162 -0.1538
    11RH     C2 3962   2.695   3.796   5.703 -0.1385  0.0383 -0.1338
    11RH     N1 3963   2.871   3.695   5.576 -0.3073 -0.0248 -0.3174
    11RH     S1 3964   2.826   3.765   5.828  0.1097  0.2937 -0.3304
    11RH     C3 3965   2.935   3.692   5.698 -0.0820  0.1839 -0.4303
    11RH     C4 3966   2.911   3.613   5.452 -0.6421 -1.7780 -0.7699
    11RH     S2 3967   3.089   3.634   5.732  0.0184  0.3294 -0.6313
    11RH     O1 3968   2.675   3.756   5.465 -0.5506 -0.3029 -0.0439
    11RH     C5 3969   2.575   3.851   5.725 -0.1340 -0.0078  0.0091
    21BTZ    C6 3970   2.504   3.890   5.840  0.0564 -0.2895  0.1187
    21BTZ    C7 3971   2.550   3.873   5.968 -0.0597 -0.1580  0.1769
    21BTZ    C8 3972   2.376   3.951   5.820  0.0364 -0.3897 -0.0567
    21BTZ    C9 3973   2.472   3.916   6.082 -0.2003 -0.1185  0.0665
    21BTZ   C10 3974   2.349   3.974   6.068 -0.2246 -0.2107 -0.1021
    21BTZ   C11 3975   2.297   3.994   5.935 -0.1065 -0.3496 -0.1688
    21BTZ    N2 3976   2.322   3.972   5.700  0.1410 -0.5209 -0.1280
    21BTZ    N3 3977   2.179   4.050   5.908 -0.1166 -0.4485 -0.3307
    21BTZ    S3 3978   2.163   4.050   5.730  0.0598 -0.6004 -0.3468
    31IDT   C12 3979   2.277   4.024   6.191 -1.5317 -0.4286  0.9724
    31IDT   C13 3980   2.152   4.078   6.206 -1.6831 -1.0028  1.8117
    31IDT   C14 3981   2.129   4.126   6.339 -0.8465 -0.7124  1.8628
    31IDT   C15 3982   2.235   4.108   6.425 -0.0535  0.0828  1.0647
    31IDT    S4 3983   2.375   4.030   6.344 -0.3072  0.5300  0.1787
    4IDB    C16 3984   2.206   4.138   6.558 -0.8708  0.0965 -0.1118
    4IDB    C17 3985   2.084   4.213   6.557 -0.9794 -0.0792 -0.0203
    51IDQ   C18 3986   2.027   4.198   6.411  0.5591  0.1678  0.0031
    4IDB    C19 3987   2.032   4.265   6.675 -0.9451 -0.1198  0.0131
    51IDQ   C20 3988   1.877   4.129   6.408 -0.4231  0.5101 -0.2746
    51IDQ   C21 3989   2.015   4.331   6.344  1.5688  1.4702 -0.8916
    51IDQ   C22 3990   2.111   4.459   6.358  0.3354  0.6013  0.1868
    51IDQ   C23 3991   1.854   3.981   6.400 -0.3363  0.4200  0.8286
    51IDQ   C24 3992   2.254   4.439   6.363  1.6963  0.6583  0.4026
    51IDQ   C25 3993   2.350   4.546   6.352 -0.1021  0.0140 -0.2415
    51IDQ   C26 3994   2.486   4.483   6.326 -0.9984  0.1855  0.3632
    51IDQ   C27 3995   2.493   4.431   6.178 -1.2581  1.0508 -0.6786
    51IDQ   C28 3996   2.624   4.348   6.182  0.7530 -0.4233 -0.2177
    51IDQ   C29 3997   2.639   4.232   6.082  0.5673  0.0197  1.1236
    51IDQ   C30 3998   1.785   3.897   6.504  0.0107 -0.5884  0.3519
    51IDQ   C31 3999   1.843   3.860   6.641 -0.7577 -0.8583 -0.6714
    51IDQ   C32 4000   1.737   3.834   6.741 -0.0663 -0.0728 -1.3735
    51IDQ   C33 4001   1.753   3.944   6.851  0.7459  0.5879  0.1001
    51IDQ   C34 4002   1.714   3.894   6.978  0.0854 -0.2341 -0.0382
    51IDQ   C35 4003   1.754   3.993   7.085  0.7096 -0.0079 -0.2543
    4IDB    C36 4004   2.277   4.115   6.677 -0.7262  0.2332 -0.1709
    4IDB    C37 4005   2.222   4.169   6.796 -0.6933  0.1891 -0.1354
    11RH    C38 4006   3.018   3.678   5.382 -0.0456 -1.0528 -1.0543
    4IDB    C39 4007   2.103   4.242   6.794 -0.8007  0.0168 -0.0460
    62IDT   C40 4008   2.083   4.303   6.920  0.2361  0.5866  0.4988
    72IDQ   C41 4009   2.272   4.166   6.943 -1.1384 -0.6047 -0.1481
    62IDT   C42 4010   2.166   4.248   7.016  1.1563  1.6887  0.3490
    72IDQ   C43 4011   2.414   4.238   6.973 -0.6055  0.2948 -0.0516
    72IDQ   C44 4012   2.272   4.031   7.000  1.7888 -0.0175 -2.0800
    62IDT    S5 4013   1.962   4.416   6.991 -0.8602 -0.6567  0.6577
    62IDT   C45 4014   2.034   4.382   7.155  0.0268  0.4330  0.5070
    62IDT   C46 4015   2.138   4.293   7.149  1.0393  1.6038  0.3538
    82BTZ   C47 4016   1.974   4.457   7.274  0.5466  0.0498 -0.7279
    82BTZ   C48 4017   1.944   4.392   7.391  0.2954 -0.3417 -1.0110
    82BTZ   C49 4018   1.917   4.463   7.513 -0.0879 -0.7484 -0.8571
    82BTZ   C50 4019   1.920   4.600   7.519 -0.2194 -0.7633 -0.4202
    82BTZ   C51 4020   1.978   4.601   7.275  0.4225  0.0510 -0.2673
    82BTZ   C52 4021   1.950   4.673   7.400  0.0328 -0.3622 -0.1109
    92RH    C53 4022   1.898   4.674   7.634  0.1056  0.4414 -0.3515
    82BTZ    N4 4023   2.006   4.676   7.168  0.6407  0.4110  0.0402
    82BTZ    N5 4024   1.956   4.806   7.393 -0.0619 -0.3343  0.3224
    82BTZ    S6 4025   1.998   4.846   7.224  0.3513  0.2330  0.5536
    92RH    C54 4026   1.862   4.658   7.761 -0.0078  0.2954 -0.4004
    92RH     S7 4027   1.843   4.500   7.852 -0.4635  0.1751 -0.7040
    92RH    C55 4028   1.832   4.772   7.852  0.2277  0.2058 -0.2088
    92RH     O2 4029   1.835   4.892   7.822  0.5513  0.2539  0.0152
    92RH     N6 4030   1.797   4.726   7.981  0.0379  0.0547 -0.3122
    92RH    C56 4031   1.796   4.591   8.005 -0.3209  0.0124 -0.5633
    92RH    C57 4032   1.747   4.821   8.080 -0.0393 -0.5743  0.9833
    92RH    C58 4033   1.844   4.890   8.179  0.1612 -0.5712  0.3419
    92RH     S8 4034   1.758   4.511   8.149 -0.6058 -0.1593 -0.7311
    72IDQ   C59 4035   2.344   3.907   6.986 -1.1648  1.0276 -0.1690
    72IDQ   C60 4036   2.254   3.804   7.041 -0.8225  1.1235 -0.3319
    72IDQ   C61 4037   2.354   3.691   7.089 -0.8795  0.6221 -0.1366
    72IDQ   C62 4038   2.298   3.618   7.210 -1.5788 -0.7558  0.0858
    72IDQ   C63 4039   2.370   3.537   7.307 -0.7213  0.0385 -0.0467
    72IDQ   C64 4040   2.274   3.466   7.407  0.7255  0.8729  1.6422
    72IDQ   C65 4041   2.318   3.337   7.473 -0.4660 -0.7589 -0.4415
    72IDQ   C66 4042   2.544   4.192   6.900 -0.4417 -0.1377  0.2689
    72IDQ   C67 4043   2.690   4.235   6.935  0.0390  0.6333  0.0666
    72IDQ   C68 4044   2.721   4.387   6.959 -0.5183  0.2310  0.6516
    72IDQ   C69 4045   2.879   4.369   6.943  1.6551 -0.8385  0.0670
    72IDQ   C70 4046   2.951   4.515   6.944  0.7962 -0.2474  0.5682
    72IDQ   C71 4047   2.892   4.618   7.044 -0.5479 -0.4092 -1.6392
    72IDQ   C72 4048   3.000   4.724   7.028  1.1293 -0.0716 -0.6900
    11RH     C1 4049   0.924   2.281   5.491 -0.3740 -0.3247  0.2234
    11RH     C2 4050   0.893   2.258   5.634 -0.2677 -0.0439  0.2930
    11RH     N1 4051   1.062   2.298   5.470 -0.4361  0.1236  0.1602
    11RH     S1 4052   1.048   2.259   5.732 -0.2562  0.7912  0.2701
    11RH     C3 4053   1.146   2.290   5.579 -0.3924  0.7293  0.1700
    11RH     C4 4054   1.123   2.302   5.331  0.2083  2.8160  0.8713
    11RH     S2 4055   1.314   2.307   5.581 -0.4491  1.3477  0.1042
    11RH     O1 4056   0.840   2.286   5.399 -0.4066 -0.8812  0.2198
    11RH     C5 4057   0.769   2.239   5.681 -0.1935 -0.3678  0.3606
    21BTZ    C6 4058   0.697   2.220   5.820 -0.0955  0.5678 -0.1165
    21BTZ    C7 4059   0.754   2.234   5.944 -0.2376  0.4933 -0.0429
    21BTZ    C8 4060   0.554   2.215   5.810 -0.0762  0.3011 -0.2570
    21BTZ    C9 4061   0.674   2.243   6.063 -0.3674  0.1554 -0.1030
    21BTZ   C10 4062   0.537   2.238   6.059 -0.3546 -0.1074 -0.2365
    21BTZ   C11 4063   0.473   2.224   5.931 -0.2080 -0.0423 -0.3181
    21BTZ    N2 4064   0.487   2.202   5.695  0.0565  0.3422 -0.3393
    21BTZ    N3 4065   0.340   2.218   5.914 -0.1812 -0.2772 -0.4497
    21BTZ    S3 4066   0.314   2.200   5.738  0.0178 -0.0649 -0.5016
    31IDT   C12 4067   0.465   2.242   6.189  0.4986  0.1388 -0.5873
    31IDT   C13 4068   0.330   2.248   6.211  0.4589  0.1713 -0.8297
    31IDT   C14 4069   0.297   2.239   6.350  0.1984  0.0253 -0.9010
    31IDT   C15 4070   0.406   2.226   6.434  0.0383 -0.1194 -0.7142
    31IDT    S4 4071   0.560   2.224   6.343  0.2064 -0.0814 -0.4309
    4IDB    C16 4072   0.359   2.234   6.569  0.1957  0.2207  0.0932
    4IDB    C17 4073   0.219   2.206   6.573  0.1804  0.3082  0.1681
    51IDQ   C18 4074   0.172   2.226   6.432  1.0101  0.0078 -1.4323
    4IDB    C19 4075   0.150   2.204   6.694  0.3073  0.0346  0.2362
    51IDQ   C20 4076   0.054   2.129   6.382 -1.2957  0.1907 -0.9008
    51IDQ   C21 4077   0.116   2.370   6.410 -0.9159  0.8162  0.5616
    51IDQ   C22 4078   0.076   2.468   6.524  0.1321  0.1126 -0.0402
    51IDQ   C23 4079   0.035   2.050   6.245 -1.4704  0.6165  0.6531
    51IDQ   C24 4080   0.195   2.557   6.582 -0.7832 -0.7101  0.2872
    51IDQ   C25 4081   0.294   2.642   6.483  0.8298  0.8402  0.5876
    51IDQ   C26 4082   0.443   2.622   6.459 -0.6367  1.5293  1.5622
    51IDQ   C27 4083   0.459   2.587   6.299 -0.5051 -0.1857  0.0951
    51IDQ   C28 4084   0.611   2.626   6.259 -0.2534  0.6869 -0.5260
    51IDQ   C29 4085   0.632   2.593   6.119 -0.6636  1.3766  0.6204
    51IDQ   C30 4086   0.095   1.912   6.255 -0.4266 -0.8661  0.0026
    51IDQ   C31 4087   0.214   1.882   6.329 -0.3493 -0.3479  0.2978
    51IDQ   C32 4088   0.315   1.765   6.295  0.2568  0.6586  0.1676
    51IDQ   C33 4089   0.421   1.710   6.373 -0.6829 -1.0734 -0.0640
    51IDQ   C34 4090   0.536   1.801   6.418 -0.2692 -0.6296  1.0538
    51IDQ   C35 4091   0.680   1.741   6.398 -0.2279  0.6187 -0.1125
    4IDB    C36 4092   0.432   2.259   6.687  0.3389 -0.1435  0.0856
    4IDB    C37 4093   0.359   2.257   6.809  0.4673 -0.4193  0.1559
    11RH    C38 4094   1.178   2.160   5.295 -0.7018 -0.1761  0.1659
    4IDB    C39 4095   0.223   2.229   6.811  0.4506 -0.3293  0.2287
    62IDT   C40 4096   0.174   2.222   6.952  0.7166 -0.2378  0.8764
    72IDQ   C41 4097   0.406   2.281   6.952 -0.4527 -0.0123  1.0827
    62IDT   C42 4098   0.278   2.270   7.029  0.4140 -0.6344  1.5394
    72IDQ   C43 4099   0.457   2.424   6.982 -0.8549  0.1848  0.6909
    72IDQ   C44 4100   0.516   2.172   6.991  0.4917 -0.8308  0.8843
    62IDT    S5 4101   0.022   2.207   7.046  0.1455  0.0070 -0.0008
    62IDT   C45 4102   0.110   2.270   7.191 -0.5040 -0.4630  0.6052
    62IDT   C46 4103   0.242   2.297   7.165 -0.2765 -0.7625  1.3873
    82BTZ   C47 4104   0.053   2.272   7.328 -0.2819 -0.0270  0.1335
    82BTZ   C48 4105  -0.065   2.203   7.340 -0.3192  0.0646  0.2925
    82BTZ   C49 4106  -0.117   2.164   7.469 -0.1643  0.0873  0.3622
    82BTZ   C50 4107  -0.051   2.195   7.585  0.0283  0.0184  0.2727
    82BTZ   C51 4108   0.125   2.307   7.446 -0.0832 -0.1013  0.0348
    82BTZ   C52 4109   0.072   2.268   7.577  0.0744 -0.0784  0.1056
    92RH    C53 4110  -0.098   2.163   7.715 -0.3002  0.3503  0.2161
    82BTZ    N4 4111   0.241   2.374   7.447 -0.0281 -0.1932 -0.1216
    82BTZ    N5 4112   0.145   2.303   7.684  0.2563 -0.1518  0.0061
    82BTZ    S6 4113   0.287   2.390   7.619  0.2327 -0.2553 -0.1862
    92RH    C54 4114  -0.207   2.096   7.755 -0.2465  0.1959  0.1076
    92RH     S7 4115  -0.338   2.027   7.648 -0.3800  0.5916  0.0124
    92RH    C55 4116  -0.238   2.069   7.897 -0.0646 -0.3381  0.0462
    92RH     O2 4117  -0.169   2.103   7.994  0.0579 -0.6992  0.0869
    92RH     N6 4118  -0.359   1.997   7.910 -0.0448 -0.3926 -0.0671
    92RH    C56 4119  -0.429   1.964   7.796 -0.1891  0.0325 -0.1039
    92RH    C57 4120  -0.397   1.962   8.048  0.3650  0.4352 -0.6288
    92RH    C58 4121  -0.469   2.062   8.154  1.4349  0.4746  0.7421
    92RH     S8 4122  -0.574   1.880   7.784 -0.2007  0.0703 -0.2338
    72IDQ   C59 4123   0.513   2.110   7.135 -0.9860 -0.1957 -0.3826
    72IDQ   C60 4124   0.557   2.179   7.255 -0.7562  0.1262 -0.9276
    72IDQ   C61 4125   0.521   2.172   7.408  0.9414 -0.3338  0.9836
    72IDQ   C62 4126   0.652   2.163   7.485 -0.5276 -1.1886  0.5296
    72IDQ   C63 4127   0.648   2.066   7.611 -0.0618 -0.8604  0.1931
    72IDQ   C64 4128   0.624   1.919   7.563 -0.9524  0.6460 -1.2129
    72IDQ   C65 4129   0.608   1.830   7.683  0.1680  0.4219  0.3456
    72IDQ   C66 4130   0.419   2.557   6.919  0.0126  0.0821  1.0151
    72IDQ   C67 4131   0.461   2.683   6.991  0.6543  0.0497 -0.8555
    72IDQ   C68 4132   0.495   2.792   6.897  0.3456 -0.4790  1.0597
    72IDQ   C69 4133   0.623   2.755   6.818 -0.8794 -0.0951 -0.8639
    72IDQ   C70 4134   0.710   2.876   6.818  1.7153 -0.6810  0.7070
    72IDQ   C71 4135   0.861   2.847   6.792 -0.6901 -1.3949  0.6235
    72IDQ   C72 4136   0.882   2.846   6.640  0.4493 -0.0924 -1.3098
    11RH     C1 4137   5.248   4.449   1.926 -0.1860  0.1500 -0.5441
    11RH     C2 4138   5.312   4.486   1.797  0.2115 -0.0365 -0.4026
    11RH     N1 4139   5.151   4.348   1.908 -0.3060  0.2972 -0.7318
    11RH     S1 4140   5.241   4.386   1.661  0.4015 -0.0054 -0.5256
    11RH     C3 4141   5.130   4.300   1.780 -0.0532  0.2522 -0.7579
    11RH     C4 4142   5.068   4.325   2.024  0.9610  0.4412  0.3868
    11RH     S2 4143   5.021   4.180   1.732 -0.1245  0.4001 -0.9651
    11RH     O1 4144   5.274   4.498   2.037 -0.3941  0.1769 -0.5068
    11RH     C5 4145   5.407   4.580   1.787  0.3934 -0.1990 -0.2148
    21BTZ    C6 4146   5.474   4.636   1.664 -0.4289 -0.1732 -0.5000
    21BTZ    C7 4147   5.444   4.594   1.537 -0.2851 -0.1485 -0.5419
    21BTZ    C8 4148   5.571   4.740   1.681 -0.2532 -0.3574 -0.3574
    21BTZ    C9 4149   5.507   4.652   1.421  0.0360 -0.3033 -0.4464
    21BTZ   C10 4150   5.600   4.753   1.432  0.2131 -0.4823 -0.3092
    21BTZ   C11 4151   5.635   4.800   1.563  0.0734 -0.5147 -0.2603
    21BTZ    N2 4152   5.608   4.790   1.800 -0.3669 -0.3989 -0.3042
    21BTZ    N3 4153   5.723   4.897   1.587  0.2220 -0.6824 -0.1292
    21BTZ    S3 4154   5.729   4.917   1.765 -0.0553 -0.6454 -0.1241
    31IDT   C12 4155   5.658   4.802   1.300 -0.1053 -1.5083  0.4987
    31IDT   C13 4156   5.673   4.934   1.265  0.0842 -1.2627  1.4559
    31IDT   C14 4157   5.716   4.950   1.130  0.4022 -0.3443  1.6632
    31IDT   C15 4158   5.735   4.832   1.061  0.4570  0.1151  0.8674
    31IDT    S4 4159   5.699   4.689   1.164  0.1069 -0.5855 -0.2162
    4IDB    C16 4160   5.778   4.863   0.923 -0.4825 -0.9945 -0.0492
    4IDB    C17 4161   5.805   5.002   0.905  0.0360 -1.0498  0.2849
    51IDQ   C18 4162   5.761   5.072   1.028 -0.1604  0.5705 -1.1437
    4IDB    C19 4163   5.846   5.050   0.781  0.1212 -0.8882  0.3761
    51IDQ   C20 4164   5.856   5.168   1.095  0.1474 -0.0102 -0.9750
    51IDQ   C21 4165   5.640   5.161   1.001  0.1345  0.6007 -0.0315
    51IDQ   C22 4166   5.497   5.147   1.038  0.0942 -0.4584 -0.4354
    51IDQ   C23 4167   6.002   5.197   1.038  0.6505  0.2128  0.6856
    51IDQ   C24 4168   5.423   5.293   1.051  0.2553 -0.2450  1.1640
    51IDQ   C25 4169   5.417   5.317   1.192 -0.2731 -0.1823  1.0430
    51IDQ   C26 4170   5.308   5.420   1.235  0.3381  0.9257 -0.8776
    51IDQ   C27 4171   5.210   5.326   1.318  0.3687  0.2015  0.5980
    51IDQ   C28 4172   5.106   5.388   1.414 -0.8812  0.6240 -0.2108
    51IDQ   C29 4173   5.171   5.465   1.530  0.3011  0.9392  0.1048
    51IDQ   C30 4174   6.104   5.166   1.146 -0.1267  0.4489  0.1288
    51IDQ   C31 4175   6.180   5.034   1.182  0.2155 -0.1562 -0.1134
    51IDQ   C32 4176   6.289   4.997   1.083 -0.8336  0.3635 -0.6890
    51IDQ   C33 4177   6.225   4.918   0.969 -1.0445  0.8558  1.6387
    51IDQ   C34 4178   6.339   4.874   0.873 -0.2014  0.7502  0.5686
    51IDQ   C35 4179   6.290   4.897   0.725 -0.4752  0.6395  1.0247
    4IDB    C36 4180   5.791   4.771   0.818 -0.9210 -0.7768 -0.2954
    4IDB    C37 4181   5.832   4.823   0.692 -0.8266 -0.6142 -0.1976
    11RH    C38 4182   5.106   4.247   2.145 -0.3010 -0.3819  0.8585
    4IDB    C39 4183   5.859   4.959   0.675 -0.3175 -0.6704  0.1298
    62IDT   C40 4184   5.883   4.974   0.542  0.5787 -0.5994  0.2231
    72IDQ   C41 4185   5.864   4.733   0.569 -0.0139 -1.3219  2.0867
    62IDT   C42 4186   5.893   4.850   0.481 -0.0122 -0.4835 -0.1158
    72IDQ   C43 4187   5.736   4.647   0.541 -0.5583 -0.3848  0.0307
    72IDQ   C44 4188   6.002   4.662   0.613 -0.3073  0.3150  0.3797
    62IDT    S5 4189   5.910   5.108   0.426  0.1683 -0.3912  0.3668
    62IDT   C45 4190   5.935   4.984   0.295 -0.8288 -0.1465 -0.0598
    62IDT   C46 4191   5.922   4.856   0.341 -0.8085 -0.2272 -0.2763
    82BTZ   C47 4192   5.972   5.026   0.163  0.7750  0.6589  0.3795
    82BTZ   C48 4193   5.909   5.139   0.119  0.8135  0.6630  0.3340
    82BTZ   C49 4194   5.922   5.185  -0.017  0.2985  0.2332  0.1318
    82BTZ   C50 4195   6.000   5.119  -0.108 -0.2542 -0.2009 -0.0244
    82BTZ   C51 4196   6.054   4.953   0.071  0.2055  0.2139  0.2210
    82BTZ   C52 4197   6.068   5.000  -0.067 -0.3176 -0.2234  0.0155
    92RH    C53 4198   6.002   5.155  -0.246 -0.1280  0.3062  1.0135
    82BTZ    N4 4199   6.121   4.841   0.102  0.1118  0.1645  0.2463
    82BTZ    N5 4200   6.146   4.926  -0.147 -0.8321 -0.6242 -0.1245
    82BTZ    S6 4201   6.207   4.791  -0.047 -0.6659 -0.4564  0.0033
    92RH    C54 4202   5.953   5.264  -0.307 -0.0768  0.0675  0.5383
    92RH     S7 4203   5.826   5.379  -0.241 -0.3560  0.1597 -0.1557
    92RH    C55 4204   5.997   5.310  -0.441  0.2258 -0.3216  0.5028
    92RH     O2 4205   6.082   5.254  -0.512  0.4630 -0.4699  0.9000
    92RH     N6 4206   5.929   5.427  -0.480  0.2150 -0.5097 -0.0486
    92RH    C56 4207   5.836   5.481  -0.394 -0.0596 -0.3192 -0.4590
    92RH    C57 4208   5.953   5.499  -0.604 -0.1391  0.6528  0.9473
    92RH    C58 4209   6.087   5.561  -0.615  0.3233 -0.3143  1.0449
    92RH     S8 4210   5.742   5.619  -0.417 -0.1338 -0.4783 -1.1435
    72IDQ   C59 4211   6.074   4.540   0.537  0.6884 -0.6077 -0.0629
    72IDQ   C60 4212   6.214   4.528   0.596  0.0590 -0.1113 -0.1254
    72IDQ   C61 4213   6.345   4.510   0.504  0.4636  1.8366 -0.8561
    72IDQ   C62 4214   6.374   4.572   0.366 -0.7806 -0.8937  0.5153
    72IDQ   C63 4215   6.270   4.559   0.256 -1.3461 -0.8419  0.0655
    72IDQ   C64 4216   6.280   4.428   0.174  0.8086  0.4065 -0.1532
    72IDQ   C65 4217   6.182   4.452   0.056 -0.3835 -0.3529  0.7122
    72IDQ   C66 4218   5.732   4.513   0.472 -0.6123 -1.3588  0.4347
    72IDQ   C67 4219   5.620   4.427   0.509 -0.7345 -0.3672  0.8543
    72IDQ   C68 4220   5.479   4.466   0.461  0.8735  0.0402 -0.5073
    72IDQ   C69 4221   5.440   4.464   0.313  0.1505 -0.5567  0.4345
    72IDQ   C70 4222   5.338   4.578   0.312  0.0175  1.0296 -0.9822
    72IDQ   C71 4223   5.262   4.541   0.190  0.6186 -1.3334  0.8778
    72IDQ   C72 4224   5.250   4.648   0.084  0.2429 -0.4201  1.0138
    11RH     C1 4225   6.191   1.813   1.456 -0.5138  0.0198  0.7538
    11RH     C2 4226   6.244   1.758   1.329 -0.0882  0.2924  0.8121
    11RH     N1 4227   6.053   1.842   1.446 -0.5803 -0.3774  0.4959
    11RH     S1 4228   6.110   1.748   1.205  0.1967  0.0088  0.5242
    11RH     C3 4229   5.990   1.817   1.327 -0.2601 -0.4562  0.3407
    11RH     C4 4230   5.980   1.916   1.567 -0.6306  0.4271 -0.7849
    11RH     S2 4231   5.827   1.842   1.289 -0.2589 -0.9001  0.0289
    11RH     O1 4232   6.257   1.832   1.560 -0.7832  0.1193  0.9080
    11RH     C5 4233   6.372   1.722   1.312  0.0539  0.6845  1.0426
    21BTZ    C6 4234   6.457   1.648   1.216 -0.1224 -0.2800 -0.4414
    21BTZ    C7 4235   6.417   1.593   1.097 -0.0746 -0.4979 -0.3572
    21BTZ    C8 4236   6.597   1.656   1.244 -0.1340 -0.2409 -0.3927
    21BTZ    C9 4237   6.511   1.543   1.001 -0.0360 -0.6875 -0.2218
    21BTZ   C10 4238   6.646   1.548   1.023 -0.0451 -0.6585 -0.1710
    21BTZ   C11 4239   6.694   1.605   1.146 -0.0949 -0.4334 -0.2552
    21BTZ    N2 4240   6.649   1.707   1.356 -0.1793 -0.0364 -0.4650
    21BTZ    N3 4241   6.823   1.615   1.179 -0.1087 -0.3837 -0.2170
    21BTZ    S3 4242   6.827   1.692   1.341 -0.1734 -0.0824 -0.3582
    31IDT   C12 4243   6.726   1.521   0.906  0.4795  0.6262  0.5013
    31IDT   C13 4244   6.748   1.605   0.799  1.4515  1.1637  1.1064
    31IDT   C14 4245   6.829   1.545   0.698  1.7002  1.3788  1.1760
    31IDT   C15 4246   6.869   1.416   0.726  0.9212  1.0077  0.6258
    31IDT    S4 4247   6.807   1.360   0.885 -0.1982  0.3509 -0.0291
    4IDB    C16 4248   6.932   1.360   0.611 -0.2659  0.3216  0.0168
    4IDB    C17 4249   6.943   1.462   0.511 -0.3970  0.0595 -0.2694
    51IDQ   C18 4250   6.878   1.592   0.559  1.4511  0.0026 -1.0334
    4IDB    C19 4251   7.000   1.435   0.387 -0.1476 -0.1576 -0.1091
    51IDQ   C20 4252   6.975   1.709   0.567  0.7647  0.2011  0.9503
    51IDQ   C21 4253   6.747   1.637   0.466 -0.3394  0.8589 -0.7453
    51IDQ   C22 4254   6.739   1.630   0.319 -0.9878  1.0086  0.2674
    51IDQ   C23 4255   7.005   1.783   0.705  0.0323 -0.5302 -1.1562
    51IDQ   C24 4256   6.583   1.622   0.270  0.5295  0.8520 -1.3275
    51IDQ   C25 4257   6.529   1.547   0.162  0.3569 -0.2403  0.2578
    51IDQ   C26 4258   6.581   1.395   0.146  1.2163 -0.6048 -0.0886
    51IDQ   C27 4259   6.713   1.370   0.080  0.4573 -0.5087 -1.2368
    51IDQ   C28 4260   6.696   1.373  -0.074  0.5926 -0.2725 -0.7015
    51IDQ   C29 4261   6.813   1.362  -0.162  0.3133 -0.7238 -0.6935
    51IDQ   C30 4262   7.132   1.767   0.774  1.2139  1.8324  0.4416
    51IDQ   C31 4263   7.138   1.882   0.865  1.4799 -0.3552  0.3692
    51IDQ   C32 4264   7.281   1.892   0.924  1.3028 -0.8967  1.4214
    51IDQ   C33 4265   7.317   2.043   0.912  0.0606  0.2832  1.9422
    51IDQ   C34 4266   7.455   2.085   0.980  0.7613 -1.0810  0.8016
    51IDQ   C35 4267   7.517   2.203   0.907  0.1572 -0.5056 -0.7577
    4IDB    C36 4268   6.977   1.230   0.586  0.1175  0.3681  0.4678
    4IDB    C37 4269   7.035   1.204   0.459  0.3681  0.1439  0.6258
    11RH    C38 4270   6.011   2.064   1.571 -0.8207 -0.0717  0.5054
    4IDB    C39 4271   7.045   1.305   0.363  0.2356 -0.1110  0.3419
    62IDT   C40 4272   7.069   1.255   0.225 -0.4058 -0.6529  0.1031
    72IDQ   C41 4273   7.087   1.077   0.391 -0.7766 -0.1495  0.3160
    62IDT   C42 4274   7.078   1.118   0.242  0.4126 -0.6891 -0.5621
    72IDQ   C43 4275   7.001   0.962   0.446 -0.2664 -1.9858 -1.7488
    72IDQ   C44 4276   7.232   1.040   0.443  0.0733 -0.8506  0.4652
    62IDT    S5 4277   7.098   1.303   0.055 -0.6522  0.3556  0.3429
    62IDT   C45 4278   7.121   1.128   0.013  0.4163  0.6913 -0.5104
    62IDT   C46 4279   7.108   1.046   0.122  0.8785  0.0707 -0.9099
    82BTZ   C47 4280   7.142   1.100  -0.134 -0.0330 -0.5070  0.3684
    82BTZ   C48 4281   7.041   1.135  -0.220 -0.2357 -0.5291  0.5956
    82BTZ   C49 4282   7.033   1.082  -0.354 -0.4535 -0.4318  0.5696
    82BTZ   C50 4283   7.126   0.993  -0.401 -0.4683 -0.3127  0.3164
    82BTZ   C51 4284   7.241   1.007  -0.179 -0.0395 -0.3839  0.0985
    82BTZ   C52 4285   7.233   0.952  -0.315 -0.2609 -0.2851  0.0718
    92RH    C53 4286   7.113   0.938  -0.537 -0.1252  0.4078  0.5706
    82BTZ    N4 4287   7.344   0.965  -0.105  0.1461 -0.3510 -0.1385
    82BTZ    N5 4288   7.329   0.866  -0.350 -0.2532 -0.1728 -0.1864
    82BTZ    S6 4289   7.436   0.851  -0.208  0.0435 -0.1890 -0.4111
    92RH    C54 4290   7.025   0.954  -0.636 -0.0361  0.2644  0.4683
    92RH     S7 4291   6.892   1.080  -0.646  0.0699  0.3473  0.0966
    92RH    C55 4292   7.022   0.868  -0.757 -0.0087  0.0078  0.6483
    92RH     O2 4293   7.099   0.774  -0.781 -0.0636 -0.1029  0.9096
    92RH     N6 4294   6.919   0.907  -0.846  0.0899 -0.1001  0.4851
    92RH    C56 4295   6.839   1.013  -0.810  0.1447  0.0389  0.1967
    92RH    C57 4296   6.890   0.827  -0.960 -0.2439 -0.3530  0.9775
    92RH    C58 4297   6.964   0.853  -1.090 -0.0835 -1.6735 -0.8313
    92RH     S8 4298   6.710   1.079  -0.897  0.2630 -0.0454 -0.0436
    72IDQ   C59 4299   7.329   1.158   0.452  0.0568  1.5424  0.6227
    72IDQ   C60 4300   7.432   1.136   0.556  0.0862  1.0850 -0.4385
    72IDQ   C61 4301   7.535   1.242   0.611  0.5755  0.9131 -0.4236
    72IDQ   C62 4302   7.666   1.162   0.651 -0.4082  1.0592 -0.3256
    72IDQ   C63 4303   7.654   1.109   0.794 -0.6791 -0.9254  0.3196
    72IDQ   C64 4304   7.770   1.024   0.847 -0.9164  0.9356 -0.1880
    72IDQ   C65 4305   7.788   0.884   0.798 -0.2141  0.4696 -0.6509
    72IDQ   C66 4306   6.862   0.946   0.369 -0.0025 -0.3263 -0.3712
    72IDQ   C67 4307   6.759   0.857   0.437  0.3794 -0.3575  0.2481
    72IDQ   C68 4308   6.678   0.898   0.559 -0.8824 -1.3639  0.7457
    72IDQ   C69 4309   6.572   1.014   0.566  0.1054 -0.8104 -0.2524
    72IDQ   C70 4310   6.548   1.085   0.696  1.8441 -0.4864  0.1370
    72IDQ   C71 4311   6.387   1.123   0.700  0.2107  1.0542  0.4736
    72IDQ   C72 4312   6.381   1.190   0.834 -0.2767  0.3789 -1.0462
    11RH     C1 4313   0.191   0.907   3.262 -0.2345 -0.2302  0.2789
    11RH     C2 4314   0.335   0.896   3.225 -0.2053 -0.0039  0.3253
    11RH     N1 4315   0.156   0.813   3.362 -0.1272 -0.3085  0.2432
    11RH     S1 4316   0.414   0.763   3.325 -0.0385  0.0913  0.3191
    11RH     C3 4317   0.254   0.729   3.410 -0.0155 -0.1726  0.2556
    11RH     C4 4318   0.032   0.812   3.429  0.7421  0.1598  0.3133
    11RH     S2 4319   0.239   0.609   3.527  0.1251 -0.2258  0.2202
    11RH     O1 4320   0.110   0.987   3.213 -0.3391 -0.3407  0.2712
    11RH     C5 4321   0.393   0.973   3.133 -0.2905  0.1084  0.3647
    21BTZ    C6 4322   0.530   0.971   3.085  0.2673  0.0910  0.3096
    21BTZ    C7 4323   0.624   0.880   3.126  0.2098 -0.0713  0.0802
    21BTZ    C8 4324   0.568   1.069   2.988  0.2154  0.0594  0.2574
    21BTZ    C9 4325   0.758   0.880   3.073  0.0992 -0.2715 -0.2097
    21BTZ   C10 4326   0.799   0.972   2.980  0.0462 -0.3091 -0.2703
    21BTZ   C11 4327   0.704   1.070   2.934  0.1029 -0.1441 -0.0374
    21BTZ    N2 4328   0.486   1.163   2.940  0.2628  0.2053  0.4627
    21BTZ    N3 4329   0.732   1.165   2.844  0.0600 -0.1618 -0.0690
    21BTZ    S3 4330   0.581   1.259   2.823  0.1637  0.0863  0.2842
    31IDT   C12 4331   0.933   0.944   2.924  0.0070  0.4689 -0.1998
    31IDT   C13 4332   1.018   0.839   2.947 -0.0029  0.4672 -0.1706
    31IDT   C14 4333   1.124   0.832   2.852  0.0976  0.5353 -0.0641
    31IDT   C15 4334   1.120   0.931   2.756  0.1848  0.5893 -0.0118
    31IDT    S4 4335   0.981   1.042   2.779  0.1458  0.5578 -0.0938
    4IDB    C16 4336   1.236   0.918   2.675  0.4863  0.0166 -0.1503
    4IDB    C17 4337   1.306   0.794   2.690  0.5860  0.1025  0.0957
    51IDQ   C18 4338   1.261   0.740   2.839  0.1648 -0.3302  0.0092
    4IDB    C19 4339   1.396   0.751   2.594  0.5681 -0.0505  0.1473
    51IDQ   C20 4340   1.235   0.584   2.848 -0.7555 -0.3158 -0.2211
    51IDQ   C21 4341   1.349   0.791   2.955  0.6704  0.2760 -0.0353
    51IDQ   C22 4342   1.449   0.903   2.954  0.3928 -0.7339  0.3307
    51IDQ   C23 4343   1.134   0.514   2.753 -1.6090  0.6687  0.0670
    51IDQ   C24 4344   1.568   0.922   2.849  0.2766 -0.8726 -0.6871
    51IDQ   C25 4345   1.643   1.062   2.863  0.1231  0.4771 -0.8495
    51IDQ   C26 4346   1.790   1.055   2.884 -0.1594  0.0762 -0.4168
    51IDQ   C27 4347   1.852   0.960   2.790 -0.7850  0.6334  0.0675
    51IDQ   C28 4348   1.988   0.908   2.815  0.7145  0.2440 -1.0800
    51IDQ   C29 4349   2.038   0.778   2.765  1.1755 -0.3851  0.0476
    51IDQ   C30 4350   1.171   0.381   2.689  0.2585 -1.0960  0.3264
    51IDQ   C31 4351   1.314   0.345   2.643 -0.2457  1.2374 -0.4839
    51IDQ   C32 4352   1.295   0.266   2.497 -0.1107  0.7336 -0.8427
    51IDQ   C33 4353   1.310   0.347   2.371 -1.8913  0.7066 -1.0625
    51IDQ   C34 4354   1.238   0.484   2.376 -2.1852  0.1012  0.6909
    51IDQ   C35 4355   1.264   0.543   2.247 -0.1790  0.5248  0.2225
    4IDB    C36 4356   1.256   0.999   2.563  0.3674 -0.2244 -0.3473
    4IDB    C37 4357   1.349   0.953   2.465  0.3509 -0.3782 -0.2910
    11RH    C38 4358   0.036   0.891   3.569  0.9682  0.4382 -0.7358
    4IDB    C39 4359   1.416   0.832   2.481  0.4492 -0.2915 -0.0495
    62IDT   C40 4360   1.493   0.802   2.372 -0.1434 -0.3100 -0.0895
    72IDQ   C41 4361   1.385   1.018   2.342  1.0194 -0.6516 -1.0334
    62IDT   C42 4362   1.480   0.909   2.286 -0.5056 -0.0464  0.2898
    72IDQ   C43 4363   1.445   1.161   2.371  0.2272  1.1899 -1.9388
    72IDQ   C44 4364   1.284   1.030   2.229 -0.4562 -0.5330 -1.3115
    62IDT    S5 4365   1.595   0.671   2.302  0.4345  0.3491 -0.4905
    62IDT   C45 4366   1.615   0.773   2.152  0.1416  0.9768 -0.1053
    62IDT   C46 4367   1.549   0.893   2.162 -0.3450  0.6813  0.2813
    82BTZ   C47 4368   1.706   0.728   2.035 -0.0724  0.0070  0.2564
    82BTZ   C48 4369   1.723   0.593   2.015  0.0492 -0.0097  0.4712
    82BTZ   C49 4370   1.782   0.542   1.894  0.1271 -0.1480  0.5679
    82BTZ   C50 4371   1.824   0.625   1.793  0.0834 -0.2693  0.4496
    82BTZ   C51 4372   1.748   0.819   1.933 -0.1225 -0.1167  0.1258
    82BTZ   C52 4373   1.808   0.766   1.810 -0.0433 -0.2573  0.2240
    92RH    C53 4374   1.933   0.573   1.718 -0.6817 -0.7953  0.2942
    82BTZ    N4 4375   1.736   0.952   1.941 -0.2394 -0.1140 -0.0852
    82BTZ    N5 4376   1.844   0.857   1.719 -0.0967 -0.3676  0.0921
    82BTZ    S6 4377   1.803   1.017   1.788 -0.2535 -0.2948 -0.1688
    92RH    C54 4378   2.022   0.473   1.714 -0.4392 -0.5697  0.1036
    92RH     S7 4379   2.053   0.347   1.844 -0.1085 -0.7245 -0.1232
    92RH    C55 4380   2.113   0.450   1.599 -0.4014 -0.1454  0.0461
    92RH     O2 4381   2.117   0.518   1.496 -0.5856  0.0481  0.1646
    92RH     N6 4382   2.197   0.339   1.622 -0.1246  0.0193 -0.1647
    92RH    C56 4383   2.184   0.270   1.740  0.0639 -0.2212 -0.2831
    92RH    C57 4384   2.299   0.299   1.523 -0.0231  0.5645 -0.7216
    92RH    C58 4385   2.218   0.205   1.427  0.7900  0.8449 -0.0723
    92RH     S8 4386   2.272   0.135   1.791  0.4034 -0.0989 -0.5360
    72IDQ   C59 4387   1.139   1.016   2.245 -0.4196 -0.3904  0.4999
    72IDQ   C60 4388   1.073   1.089   2.134 -0.9014 -0.1932  0.6822
    72IDQ   C61 4389   1.069   1.010   2.003  0.2445 -1.4844 -1.5466
    72IDQ   C62 4390   1.050   1.100   1.874  0.7651 -0.2436  0.4163
    72IDQ   C63 4391   1.148   1.197   1.832 -0.0030  0.8032 -0.7922
    72IDQ   C64 4392   1.295   1.176   1.837 -0.4877 -1.1020 -1.0226
    72IDQ   C65 4393   1.374   1.284   1.912 -1.2938  0.5952  0.7272
    72IDQ   C66 4394   1.571   1.200   2.457  0.4863  0.0288  1.7184
    72IDQ   C67 4395   1.699   1.107   2.450  0.3502  0.3805  0.4644
    72IDQ   C68 4396   1.780   1.135   2.323 -0.0822  0.0876  0.2713
    72IDQ   C69 4397   1.919   1.083   2.315  0.2920  0.5774  1.2843
    72IDQ   C70 4398   1.929   0.928   2.346 -0.5278  0.4663 -0.1666
    72IDQ   C71 4399   2.078   0.889   2.370 -0.9437 -0.3099  0.2492
    72IDQ   C72 4400   2.083   0.745   2.418  2.4488 -0.7768 -0.3189
    11RH     C1 4401   3.738   5.029   0.959 -0.5580  0.0417  0.1186
    11RH     C2 4402   3.616   4.969   0.899 -0.4168  0.0823 -0.2106
    11RH     N1 4403   3.713   5.159   1.008 -0.6846 -0.0070  0.1827
    11RH     S1 4404   3.476   5.087   0.911 -0.4592  0.0530 -0.4143
    11RH     C3 4405   3.585   5.210   0.994 -0.6616 -0.0107 -0.0548
    11RH     C4 4406   3.817   5.224   1.093 -0.7559  0.6212 -1.2795
    11RH     S2 4407   3.530   5.361   1.044 -0.7921 -0.0639 -0.0398
    11RH     O1 4408   3.849   4.974   0.966 -0.5676  0.0489  0.3177
    11RH     C5 4409   3.613   4.846   0.845 -0.2807  0.1315 -0.3316
    21BTZ    C6 4410   3.503   4.777   0.783 -0.0646 -0.3062  0.2218
    21BTZ    C7 4411   3.376   4.826   0.770  0.0383 -0.0994 -0.0101
    21BTZ    C8 4412   3.531   4.645   0.732 -0.0287 -0.0954 -0.3103
    21BTZ    C9 4413   3.271   4.749   0.707  0.1802  0.3219 -0.7712
    21BTZ   C10 4414   3.293   4.624   0.657  0.2194  0.5352 -1.2991
    21BTZ   C11 4415   3.425   4.568   0.668  0.1156  0.3326 -1.0838
    21BTZ    N2 4416   3.651   4.587   0.739 -0.1197 -0.2637 -0.1518
    21BTZ    N3 4417   3.459   4.447   0.623  0.1407  0.5083 -1.5471
    21BTZ    S3 4418   3.632   4.426   0.662 -0.0224  0.1258 -1.0024
    31IDT   C12 4419   3.172   4.552   0.605  0.2311 -0.3669 -0.0630
    31IDT   C13 4420   3.178   4.418   0.578 -0.3833 -0.6011  0.9043
    31IDT   C14 4421   3.052   4.364   0.538 -0.6109 -0.2894  1.1956
    31IDT   C15 4422   2.950   4.456   0.535 -0.1726  0.1828  0.4542
    31IDT    S4 4423   3.005   4.620   0.583  0.5695  0.2700 -0.6808
    4IDB    C16 4424   2.836   4.396   0.519  1.1576 -0.5932 -0.9031
    4IDB    C17 4425   2.848   4.253   0.519  0.5770 -0.6442 -0.5189
    51IDQ   C18 4426   2.999   4.227   0.519  0.4391  0.3870 -0.8543
    4IDB    C19 4427   2.735   4.172   0.521  0.2433 -0.1802 -0.3577
    51IDQ   C20 4428   3.041   4.139   0.652  1.3879 -0.4518  0.4327
    51IDQ   C21 4429   3.062   4.164   0.392  0.5464 -0.6152  0.1842
    51IDQ   C22 4430   2.973   4.126   0.265  0.6964 -0.7475 -0.4179
    51IDQ   C23 4431   2.961   4.005   0.652  0.0180  1.5996 -0.2002
    51IDQ   C24 4432   3.038   4.058   0.146 -0.4196 -0.2787  0.4937
    51IDQ   C25 4433   2.948   3.956   0.061 -0.3913  0.1157  0.6778
    51IDQ   C26 4434   2.983   3.994  -0.079 -1.3560 -0.1302 -0.5120
    51IDQ   C27 4435   2.959   3.891  -0.188 -2.0925  0.8717 -0.9661
    51IDQ   C28 4436   3.092   3.835  -0.253 -0.8477  0.0910 -0.5908
    51IDQ   C29 4437   3.190   3.754  -0.165  0.3619  0.0836  0.8524
    51IDQ   C30 4438   2.978   3.897   0.774 -0.1005  0.1268 -0.7863
    51IDQ   C31 4439   2.867   3.794   0.776 -0.7758 -0.9182  0.9999
    51IDQ   C32 4440   2.861   3.727   0.644 -0.0944 -0.4160  2.3954
    51IDQ   C33 4441   2.756   3.623   0.659 -0.2232 -0.3691  0.9150
    51IDQ   C34 4442   2.768   3.499   0.574  1.3254  1.0144 -0.5996
    51IDQ   C35 4443   2.895   3.427   0.611  0.7245  2.0686  1.6375
    4IDB    C36 4444   2.710   4.458   0.520  1.4088 -0.0741 -1.1293
    4IDB    C37 4445   2.596   4.373   0.522  1.0612  0.3953 -0.9597
    11RH    C38 4446   3.815   5.210   1.244  0.2348 -0.1912 -1.2907
    4IDB    C39 4447   2.609   4.234   0.523  0.4946  0.3387 -0.5839
    62IDT   C40 4448   2.483   4.166   0.520 -0.2955  0.2510 -1.1323
    72IDQ   C41 4449   2.444   4.405   0.529  0.4103 -1.4102  0.0509
    62IDT   C42 4450   2.387   4.262   0.543 -0.4801  0.0770 -1.1728
    72IDQ   C43 4451   2.372   4.462   0.396 -0.3244  1.2582 -0.4542
    72IDQ   C44 4452   2.404   4.511   0.635 -0.6488  0.3167  0.3797
    62IDT    S5 4453   2.413   4.001   0.517  0.1877  0.0175  0.0119
    62IDT   C45 4454   2.250   4.074   0.549  0.1108 -0.3195  0.3937
    62IDT   C46 4455   2.255   4.210   0.560 -0.2507 -0.2458 -0.3103
    82BTZ   C47 4456   2.129   3.999   0.521 -0.3106  0.3513 -0.1612
    82BTZ   C48 4457   2.136   3.911   0.416 -0.4140  0.3592 -0.1745
    82BTZ   C49 4458   2.021   3.833   0.375 -0.4616  0.3814 -0.0845
    82BTZ   C50 4459   1.901   3.843   0.439 -0.4059  0.3956  0.0186
    82BTZ   C51 4460   2.005   4.013   0.591 -0.2490  0.3653 -0.0547
    82BTZ   C52 4461   1.889   3.934   0.550 -0.2972  0.3880  0.0367
    92RH    C53 4462   1.784   3.759   0.398 -0.4235  0.1803  0.1977
    82BTZ    N4 4463   1.986   4.095   0.695 -0.1477  0.3595 -0.0316
    82BTZ    N5 4464   1.777   3.952   0.620 -0.2348  0.4003  0.1334
    82BTZ    S6 4465   1.816   4.074   0.745 -0.1090  0.3831  0.1111
    92RH    C54 4466   1.763   3.670   0.300 -0.3495  0.1439  0.2147
    92RH     S7 4467   1.885   3.612   0.176 -0.3744  0.4278  0.0561
    92RH    C55 4468   1.632   3.603   0.277 -0.2319 -0.1425  0.3704
    92RH     O2 4469   1.529   3.621   0.343 -0.1887 -0.3780  0.5010
    92RH     N6 4470   1.639   3.515   0.167 -0.1726 -0.1172  0.3534
    92RH    C56 4471   1.758   3.502   0.100 -0.2283  0.1544  0.2031
    92RH    C57 4472   1.521   3.426   0.122  0.1599 -0.3371 -0.6615
    92RH    C58 4473   1.439   3.516   0.033  0.0828  0.6265 -1.4904
    92RH     S8 4474   1.792   3.405  -0.033 -0.1773  0.2432  0.1512
    72IDQ   C59 4475   2.494   4.561   0.756  0.5075  0.5026 -1.6977
    72IDQ   C60 4476   2.566   4.699   0.722 -0.9592  0.0291 -0.2147
    72IDQ   C61 4477   2.650   4.741   0.827  0.6132 -0.0833  0.1787
    72IDQ   C62 4478   2.728   4.862   0.814 -0.4699 -0.4898 -0.2516
    72IDQ   C63 4479   2.862   4.879   0.886  0.0272 -0.8088 -1.4022
    72IDQ   C64 4480   2.966   4.957   0.805 -0.0258  0.1320  0.4886
    72IDQ   C65 4481   3.076   4.978   0.915  0.0687 -0.9618  0.5167
    72IDQ   C66 4482   2.385   4.597   0.324  0.0738  0.0481  0.6075
    72IDQ   C67 4483   2.519   4.654   0.297  0.3816 -0.1076  0.8909
    72IDQ   C68 4484   2.507   4.790   0.367  1.0610  1.2278  0.3029
    72IDQ   C69 4485   2.608   4.890   0.323 -0.1698 -0.8250 -0.2090
    72IDQ   C70 4486   2.663   4.972   0.443 -0.0752 -0.3337 -0.0624
    72IDQ   C71 4487   2.770   5.086   0.408  0.5044  0.2135 -0.0558
    72IDQ   C72 4488   2.798   5.220   0.487 -0.1013  0.6089 -0.1386
    11RH     C1 4489   3.163   2.986   5.447 -0.1915 -0.0725  0.0386
    11RH     C2 4490   3.165   2.859   5.524  0.0019 -0.2304 -0.2258
    11RH     N1 4491   3.292   3.023   5.405 -0.2394  0.2545  0.1860
    11RH     S1 4492   3.338   2.798   5.537  0.1083  0.0607 -0.2634
    11RH     C3 4493   3.398   2.943   5.440 -0.1080  0.3773  0.0720
    11RH     C4 4494   3.308   3.158   5.346  0.3327  0.0469 -0.4864
    11RH     S2 4495   3.562   2.965   5.404 -0.1297  0.7557  0.2041
    11RH     O1 4496   3.061   3.052   5.420 -0.3005 -0.2042  0.1249
    11RH     C5 4497   3.056   2.801   5.574  0.0817 -0.5397 -0.4042
    21BTZ    C6 4498   3.041   2.679   5.665  0.1078 -0.2084  1.0746
    21BTZ    C7 4499   3.148   2.607   5.711 -0.0948 -0.4157  1.2209
    21BTZ    C8 4500   2.909   2.633   5.696 -0.0260 -0.0725  0.7124
    21BTZ    C9 4501   3.130   2.487   5.790 -0.4363 -0.4995  1.0200
    21BTZ   C10 4502   3.006   2.440   5.823 -0.5748 -0.3760  0.6733
    21BTZ   C11 4503   2.891   2.512   5.776 -0.3731 -0.1577  0.5083
    21BTZ    N2 4504   2.797   2.695   5.656  0.1464  0.1321  0.5407
    21BTZ    N3 4505   2.765   2.476   5.801 -0.4796 -0.0216  0.1731
    21BTZ    S3 4506   2.661   2.599   5.722 -0.1335  0.2264  0.1022
    31IDT   C12 4507   3.011   2.338   5.933 -0.6162 -0.1764 -0.2935
    31IDT   C13 4508   3.069   2.214   5.927 -0.6083 -0.1838 -0.0679
    31IDT   C14 4509   3.074   2.149   6.054 -0.4292  0.1286  0.0861
    31IDT   C15 4510   3.020   2.223   6.158 -0.2993  0.3755 -0.0217
    31IDT    S4 4511   2.958   2.382   6.102 -0.3952  0.2304 -0.3284
    4IDB    C16 4512   3.061   2.151   6.284  0.2926  0.1629  0.0487
    4IDB    C17 4513   3.111   2.020   6.256  0.2187  0.0539  0.4201
    51IDQ   C18 4514   3.113   2.003   6.107  1.5268  0.1187  0.7149
    4IDB    C19 4515   3.160   1.939   6.357 -0.1333  0.1867  0.6978
    51IDQ   C20 4516   3.246   1.928   6.058 -0.2622  0.1684 -0.0622
    51IDQ   C21 4517   2.987   1.901   6.052 -1.1858  0.1156 -0.9362
    51IDQ   C22 4518   2.876   1.840   6.140 -1.8255 -0.6069  0.1184
    51IDQ   C23 4519   3.337   2.007   5.970  0.6040  0.5310  0.2876
    51IDQ   C24 4520   2.739   1.923   6.126 -1.4434  1.4609  1.0078
    51IDQ   C25 4521   2.628   1.820   6.139 -1.5264  0.5256 -0.1095
    51IDQ   C26 4522   2.487   1.892   6.075 -1.5663  0.3040 -0.0910
    51IDQ   C27 4523   2.454   2.042   6.102  1.7945 -0.4558  2.3285
    51IDQ   C28 4524   2.343   2.096   6.021  1.5837 -0.4478  0.2744
    51IDQ   C29 4525   2.252   1.999   5.927 -0.1213 -0.4902  1.3669
    51IDQ   C30 4526   3.443   2.096   6.027 -0.6024  1.4807 -0.8088
    51IDQ   C31 4527   3.411   2.242   6.042  1.0370  0.9361  0.1257
    51IDQ   C32 4528   3.524   2.337   6.013 -0.7415 -1.0495 -0.7145
    51IDQ   C33 4529   3.626   2.313   6.126 -0.1766 -0.1368  0.4861
    51IDQ   C34 4530   3.599   2.387   6.259  1.8278  0.8052  0.3090
    51IDQ   C35 4531   3.707   2.384   6.362 -0.5097 -0.0870  0.6357
    4IDB    C36 4532   3.059   2.201   6.414  0.0129  0.4067 -0.0474
    4IDB    C37 4533   3.110   2.117   6.517 -0.3451  0.5395  0.2401
    11RH    C38 4534   3.332   3.183   5.197  1.0944 -0.3584 -0.7181
    4IDB    C39 4535   3.159   1.990   6.488 -0.4131  0.4304  0.6012
    62IDT   C40 4536   3.209   1.925   6.613 -0.5547  0.3549  0.0642
    72IDQ   C41 4537   3.143   2.151   6.671  0.2831  1.4944 -0.5431
    62IDT   C42 4538   3.194   2.011   6.720 -0.9543  0.0389  0.2635
    72IDQ   C43 4539   3.001   2.166   6.757 -0.2726  1.2140  0.4323
    72IDQ   C44 4540   3.217   2.292   6.700 -0.3304  0.4097  0.9010
    62IDT    S5 4541   3.280   1.768   6.661  0.2005  0.5754 -0.3072
    62IDT   C45 4542   3.286   1.828   6.833 -0.0774  0.2109 -0.1664
    62IDT   C46 4543   3.238   1.956   6.845 -0.6850 -0.0430  0.1333
    82BTZ   C47 4544   3.336   1.753   6.950 -0.3066  0.5538 -0.1154
    82BTZ   C48 4545   3.373   1.623   6.926 -0.4216  0.5268 -0.1469
    82BTZ   C49 4546   3.430   1.540   7.029 -0.5416  0.4355 -0.1542
    82BTZ   C50 4547   3.450   1.587   7.156 -0.5463  0.3712 -0.1298
    82BTZ   C51 4548   3.355   1.807   7.081 -0.3065  0.4889 -0.0891
    82BTZ   C52 4549   3.413   1.722   7.186 -0.4283  0.3961 -0.0964
    92RH    C53 4550   3.507   1.496   7.262 -0.0796 -0.0727 -0.2316
    82BTZ    N4 4551   3.323   1.932   7.117 -0.2007  0.5069 -0.0574
    82BTZ    N5 4552   3.427   1.779   7.306 -0.4206  0.3395 -0.0705
    82BTZ    S6 4553   3.366   1.947   7.290 -0.2536  0.4039 -0.0351
    92RH    C54 4554   3.547   1.368   7.268 -0.1326 -0.0806 -0.0432
    92RH     S7 4555   3.529   1.241   7.137 -0.2152 -0.2757  0.1567
    92RH    C55 4556   3.614   1.309   7.386 -0.1324  0.0732  0.0342
    92RH     O2 4557   3.641   1.369   7.492 -0.0842  0.2245 -0.0639
    92RH     N6 4558   3.645   1.173   7.365 -0.1952  0.0273  0.2378
    92RH    C56 4559   3.610   1.116   7.245 -0.2455 -0.1445  0.3329
    92RH    C57 4560   3.732   1.087   7.460 -0.4044  0.1832 -1.1867
    92RH    C58 4561   3.884   1.045   7.426  0.3720  0.5372 -0.7154
    92RH     S8 4562   3.636   0.957   7.195 -0.3240 -0.2327  0.5729
    72IDQ   C59 4563   3.374   2.302   6.662  0.4863  0.0629  0.3455
    72IDQ   C60 4564   3.499   2.254   6.730  0.3767 -0.8123 -1.5979
    72IDQ   C61 4565   3.496   2.304   6.877  0.0011  0.5066  0.9796
    72IDQ   C62 4566   3.609   2.240   6.948 -0.2884 -1.0339  0.7289
    72IDQ   C63 4567   3.761   2.295   6.937  0.0047  1.7206  0.9505
    72IDQ   C64 4568   3.856   2.180   6.914  0.6511 -1.0545 -0.3117
    72IDQ   C65 4569   3.837   2.111   6.773 -0.0810  0.2869 -0.6466
    72IDQ   C66 4570   2.923   2.306   6.772  1.2846  0.1504  0.0197
    72IDQ   C67 4571   2.779   2.322   6.838 -0.4506 -0.2526  0.3742
    72IDQ   C68 4572   2.745   2.472   6.890  0.6600  0.1272 -0.0027
    72IDQ   C69 4573   2.850   2.552   6.983  0.0830 -0.2324  0.1013
    72IDQ   C70 4574   2.820   2.657   7.096 -0.3180  1.8229  0.1443
    72IDQ   C71 4575   2.785   2.593   7.230 -1.0095 -0.4756 -0.5138
    72IDQ   C72 4576   2.853   2.684   7.333 -0.6692 -0.2602  0.2601
    11RH     C1 4577   3.305   4.084   6.158 -0.2455 -0.0706 -0.3088
    11RH     C2 4578   3.321   4.231   6.152 -0.0687 -0.0687  0.1717
    11RH     N1 4579   3.204   4.040   6.070 -0.2318  0.3260 -0.5286
    11RH     S1 4580   3.202   4.302   6.031  0.1043  0.4538  0.3035
    11RH     C3 4581   3.137   4.133   5.995 -0.0654  0.6454 -0.2828
    11RH     C4 4582   3.195   3.898   6.026 -0.4652  0.1481  1.2116
    11RH     S2 4583   3.013   4.107   5.883 -0.0131  1.1432 -0.4623
    11RH     O1 4584   3.371   4.007   6.229 -0.3896 -0.3765 -0.5026
    11RH     C5 4585   3.410   4.299   6.225 -0.0444 -0.4050  0.4552
    21BTZ    C6 4586   3.437   4.438   6.241  0.2432 -0.0449  0.1468
    21BTZ    C7 4587   3.363   4.539   6.185  0.3434 -0.1166 -0.1163
    21BTZ    C8 4588   3.556   4.472   6.314  0.1961  0.0374  0.1855
    21BTZ    C9 4589   3.402   4.677   6.197  0.4019 -0.1113 -0.3531
    21BTZ   C10 4590   3.514   4.714   6.266  0.3600 -0.0342 -0.3269
    21BTZ   C11 4591   3.595   4.613   6.326  0.2553  0.0427 -0.0556
    21BTZ    N2 4592   3.636   4.383   6.372  0.0992  0.1118  0.4315
    21BTZ    N3 4593   3.707   4.637   6.395  0.2064  0.1214 -0.0031
    21BTZ    S3 4594   3.768   4.477   6.448  0.0794  0.1937  0.3639
    31IDT   C12 4595   3.549   4.859   6.265  0.1181 -0.4748 -0.2155
    31IDT   C13 4596   3.669   4.921   6.287  0.5631 -1.0707 -0.9003
    31IDT   C14 4597   3.670   5.057   6.245  0.9357 -1.0157 -0.7226
    31IDT   C15 4598   3.550   5.100   6.190  0.7778 -0.3786  0.0965
    31IDT    S4 4599   3.427   4.969   6.188  0.1388  0.2055  0.7124
    4IDB    C16 4600   3.562   5.235   6.145 -0.0934 -0.2766 -0.2009
    4IDB    C17 4601   3.699   5.271   6.162 -0.1088 -0.1588 -0.3257
    51IDQ   C18 4602   3.773   5.174   6.253 -0.3114  1.0809  0.8271
    4IDB    C19 4603   3.749   5.389   6.107 -0.3135 -0.0026 -0.1779
    51IDQ   C20 4604   3.901   5.158   6.143 -0.8958 -0.5247 -1.0504
    51IDQ   C21 4605   3.826   5.196   6.407  0.8674  0.7948  0.2202
    51IDQ   C22 4606   3.834   5.341   6.477 -1.2767  0.4730 -0.9872
    51IDQ   C23 4607   3.888   5.051   6.049 -0.2693 -0.4746 -0.3932
    51IDQ   C24 4608   3.982   5.361   6.509 -0.5445  0.7758 -0.2161
    51IDQ   C25 4609   4.025   5.277   6.641  0.5384  0.6596  1.3649
    51IDQ   C26 4610   4.044   5.355   6.771  0.0418 -0.4151  0.5750
    51IDQ   C27 4611   4.131   5.289   6.893 -1.4311  0.4326  0.6194
    51IDQ   C28 4612   4.062   5.178   6.959 -0.0110 -0.1359 -2.1401
    51IDQ   C29 4613   4.019   5.204   7.102  1.1929  1.3715  0.2020
    51IDQ   C30 4614   4.009   5.045   5.966 -0.6986 -1.5044  1.5671
    51IDQ   C31 4615   4.005   5.000   5.812  0.5431  0.4346  0.7814
    51IDQ   C32 4616   4.145   4.971   5.764 -0.2851  0.4173 -0.0824
    51IDQ   C33 4617   4.174   4.926   5.619  0.8158 -0.0913  0.7057
    51IDQ   C34 4618   4.308   4.897   5.565  0.5005  0.5207  0.1971
    51IDQ   C35 4619   4.303   4.805   5.445  0.1416  0.9067  0.1380
    4IDB    C36 4620   3.474   5.317   6.072 -0.2841 -0.2384  0.0744
    4IDB    C37 4621   3.527   5.437   6.018 -0.4920 -0.0782  0.2224
    11RH    C38 4622   3.089   3.832   6.116 -1.7756 -0.4515  0.0900
    4IDB    C39 4623   3.661   5.471   6.035 -0.5042  0.0357  0.0972
    62IDT   C40 4624   3.686   5.596   5.966  0.6526 -0.3206  0.2593
    72IDQ   C41 4625   3.454   5.545   5.937  0.5518  0.1594  0.7299
    62IDT   C42 4626   3.570   5.634   5.902  0.3653 -0.5081  0.6719
    72IDQ   C43 4627   3.352   5.654   6.027  0.3031  1.2684  0.7272
    72IDQ   C44 4628   3.378   5.465   5.817  0.6768 -0.6549 -0.2482
    62IDT    S5 4629   3.829   5.687   5.905  0.2994 -0.1291 -0.2842
    62IDT   C45 4630   3.717   5.776   5.791 -0.2449 -0.3213  0.0933
    62IDT   C46 4631   3.587   5.735   5.803 -0.1425 -0.5085  0.5786
    82BTZ   C47 4632   3.766   5.867   5.692  0.5677 -0.1243  0.6292
    82BTZ   C48 4633   3.888   5.841   5.634  0.5708  0.1016  0.5324
    82BTZ   C49 4634   3.951   5.935   5.545  0.3865  0.2766  0.5851
    82BTZ   C50 4635   3.892   6.055   5.513  0.1997  0.2253  0.7342
    82BTZ   C51 4636   3.701   5.991   5.662  0.3757 -0.1864  0.7865
    82BTZ   C52 4637   3.765   6.087   5.571  0.1886 -0.0083  0.8402
    92RH    C53 4638   3.957   6.168   5.449 -0.2516  0.7870  0.4642
    82BTZ    N4 4639   3.582   6.028   5.712  0.3536 -0.4001  0.8919
    82BTZ    N5 4640   3.698   6.200   5.548  0.0157 -0.0796  0.9882
    82BTZ    S6 4641   3.547   6.189   5.643  0.0866 -0.3829  1.0674
    92RH    C54 4642   4.077   6.200   5.400 -0.1163  0.3331  0.4983
    92RH     S7 4643   4.235   6.113   5.433 -0.4706 -0.3432  0.4446
    92RH    C55 4644   4.101   6.314   5.308  0.3579  0.3095  0.5882
    92RH     O2 4645   4.014   6.392   5.266  0.6800  0.6990  0.6413
    92RH     N6 4646   4.237   6.324   5.272  0.4046 -0.2203  0.6071
    92RH    C56 4647   4.325   6.232   5.324  0.0253 -0.6237  0.5434
    92RH    C57 4648   4.286   6.416   5.169  0.0335 -0.3525  0.1891
    92RH    C58 4649   4.370   6.544   5.206 -0.9672  0.5579  0.0399
    92RH     S8 4650   4.491   6.222   5.297 -0.0110 -1.2836  0.5488
    72IDQ   C59 4651   3.412   5.455   5.677  0.2877  0.8120  0.2552
    72IDQ   C60 4652   3.319   5.346   5.611  1.4063 -0.1790  0.2831
    72IDQ   C61 4653   3.288   5.380   5.467 -0.0225  1.1864  0.1702
    72IDQ   C62 4654   3.368   5.355   5.344 -0.1013  0.1165  0.6914
    72IDQ   C63 4655   3.431   5.453   5.235  0.8474  0.0796  0.6713
    72IDQ   C64 4656   3.324   5.497   5.138  1.0564  0.0487  0.4671
    72IDQ   C65 4657   3.328   5.600   5.021 -0.4117 -1.0597  0.0181
    72IDQ   C66 4658   3.284   5.601   6.144  0.7303  0.1649 -0.4589
    72IDQ   C67 4659   3.223   5.694   6.265  0.4847  0.6599 -0.2153
    72IDQ   C68 4660   3.103   5.796   6.258  0.1511  0.9328  0.1320
    72IDQ   C69 4661   2.972   5.756   6.177 -0.4271 -0.1027 -0.2178
    72IDQ   C70 4662   2.889   5.637   6.232 -0.3091  1.1507 -0.2626
    72IDQ   C71 4663   2.782   5.649   6.332  0.6001  0.9218 -0.7681
    72IDQ   C72 4664   2.792   5.779   6.414 -0.7994  1.1768 -0.7691
    11RH     C1 4665   2.138   1.338   1.905  0.1805  0.0480  0.0871
    11RH     C2 4666   2.284   1.313   1.906  0.1670 -0.0293  0.0809
    11RH     N1 4667   2.094   1.388   2.030  0.1941 -0.0332  0.1247
    11RH     S1 4668   2.354   1.356   2.070  0.1733 -0.2039  0.1247
    11RH     C3 4669   2.187   1.406   2.130  0.1932 -0.1664  0.1491
    11RH     C4 4670   1.955   1.425   2.054 -0.0281  0.6170  1.0972
    11RH     S2 4671   2.161   1.463   2.286  0.2077 -0.2837  0.1949
    11RH     O1 4672   2.062   1.319   1.809  0.1800  0.1690  0.0631
    11RH     C5 4673   2.351   1.265   1.800  0.1528  0.0240  0.0478
    21BTZ    C6 4674   2.486   1.245   1.753  0.0095  0.0470 -0.1040
    21BTZ    C7 4675   2.591   1.270   1.838 -0.0525  0.1175 -0.0477
    21BTZ    C8 4676   2.511   1.241   1.612  0.0962  0.0206 -0.0881
    21BTZ    C9 4677   2.725   1.292   1.788 -0.0324  0.1653  0.0266
    21BTZ   C10 4678   2.753   1.288   1.654  0.0496  0.1425  0.0445
    21BTZ   C11 4679   2.647   1.262   1.562  0.1167  0.0691 -0.0125
    21BTZ    N2 4680   2.417   1.217   1.520  0.1619 -0.0469 -0.1382
    21BTZ    N3 4681   2.662   1.257   1.429  0.1987  0.0407 -0.0020
    21BTZ    S3 4682   2.500   1.222   1.362  0.2547 -0.0515 -0.0899
    31IDT   C12 4683   2.893   1.296   1.615 -0.6599 -0.6720 -0.2035
    31IDT   C13 4684   2.950   1.215   1.520 -0.6315 -1.2244  0.2795
    31IDT   C14 4685   3.092   1.206   1.532 -0.6415 -1.2054  0.4129
    31IDT   C15 4686   3.145   1.280   1.636 -0.6775 -0.6398  0.0335
    31IDT    S4 4687   3.017   1.368   1.727 -0.7020 -0.0821 -0.5273
    4IDB    C16 4688   3.285   1.264   1.657 -0.2451 -0.1446 -0.5590
    4IDB    C17 4689   3.327   1.177   1.551 -0.1113 -0.6351 -0.1061
    51IDQ   C18 4690   3.208   1.129   1.459 -0.6910 -0.9558  0.8601
    4IDB    C19 4691   3.462   1.146   1.535 -0.0658 -0.5396  0.0776
    51IDQ   C20 4692   3.229   1.161   1.301  0.6032  0.4276  0.7739
    51IDQ   C21 4693   3.173   0.982   1.437  0.4921  0.6212  0.4952
    51IDQ   C22 4694   3.241   0.867   1.521 -0.1969  0.8544 -0.1589
    51IDQ   C23 4695   3.106   1.221   1.228 -1.5036  0.8962 -0.1951
    51IDQ   C24 4696   3.238   0.886   1.675  0.7072  0.7911 -0.5465
    51IDQ   C25 4697   3.174   0.772   1.758 -0.9319  0.2442  0.8205
    51IDQ   C26 4698   3.243   0.626   1.750 -0.3014  0.5111 -0.3201
    51IDQ   C27 4699   3.156   0.512   1.813 -0.1397  1.0577 -0.3024
    51IDQ   C28 4700   3.266   0.394   1.817  0.4359  0.3340 -0.4269
    51IDQ   C29 4701   3.177   0.293   1.865 -0.3393 -0.8816  0.4448
    51IDQ   C30 4702   3.151   1.208   1.093  0.6030  0.4598 -0.2567
    51IDQ   C31 4703   3.050   1.258   0.992 -0.6227 -0.8841  0.3541
    51IDQ   C32 4704   2.918   1.177   0.997  0.6906 -0.3693  0.3440
    51IDQ   C33 4705   2.793   1.243   0.942 -0.2093 -0.3797  0.1038
    51IDQ   C34 4706   2.672   1.142   0.923 -0.4238  1.6794  0.0299
    51IDQ   C35 4707   2.652   1.019   1.017 -1.5889 -0.3778  0.8611
    4IDB    C36 4708   3.377   1.320   1.746 -0.3344  0.4479 -0.8322
    4IDB    C37 4709   3.514   1.287   1.728 -0.2862  0.5370 -0.6387
    11RH    C38 4710   1.927   1.572   2.000 -0.5004  0.4053  0.1499
    4IDB    C39 4711   3.554   1.202   1.624 -0.1551  0.0530 -0.1956
    62IDT   C40 4712   3.703   1.194   1.623  0.5492 -0.5276  0.5113
    72IDQ   C41 4713   3.645   1.322   1.809  0.8553  0.5522  0.0625
    62IDT   C42 4714   3.758   1.252   1.735  0.9094 -0.7042  0.4275
    72IDQ   C43 4715   3.628   1.267   1.965  0.6146 -0.9244 -0.9238
    72IDQ   C44 4716   3.670   1.474   1.808 -0.0093  0.0416 -1.3383
    62IDT    S5 4717   3.829   1.123   1.515  0.2106 -0.3131 -0.0289
    62IDT   C45 4718   3.955   1.178   1.634  0.5928 -0.4816 -0.3555
    62IDT   C46 4719   3.901   1.243   1.742  0.9347 -0.6784 -0.0628
    82BTZ   C47 4720   4.099   1.169   1.592 -0.0572  0.0575  0.4027
    82BTZ   C48 4721   4.133   1.158   1.460 -0.2778  0.1178  0.3401
    82BTZ   C49 4722   4.270   1.144   1.418 -0.3428  0.1816  0.1020
    82BTZ   C50 4723   4.373   1.140   1.509 -0.1879  0.1848 -0.0730
    82BTZ   C51 4724   4.203   1.166   1.691  0.1109  0.0582  0.2256
    82BTZ   C52 4725   4.342   1.151   1.648  0.0446  0.1230 -0.0164
    92RH    C53 4726   4.515   1.100   1.479 -0.2414 -0.2503 -0.2188
    82BTZ    N4 4727   4.182   1.175   1.823  0.3304  0.0029  0.2649
    82BTZ    N5 4728   4.433   1.149   1.746  0.2110  0.1197 -0.1715
    82BTZ    S6 4729   4.343   1.166   1.899  0.4645  0.0318 -0.0115
    92RH    C54 4730   4.592   1.090   1.370 -0.1857 -0.3231 -0.1733
    92RH     S7 4731   4.538   1.110   1.196 -0.0977 -0.4421 -0.2144
    92RH    C55 4732   4.737   1.060   1.374 -0.1874 -0.3176 -0.0794
    92RH     O2 4733   4.804   1.041   1.477 -0.2391 -0.2467 -0.0327
    92RH     N6 4734   4.793   1.056   1.245 -0.1214 -0.4046 -0.0481
    92RH    C56 4735   4.710   1.078   1.137 -0.0672 -0.4790 -0.1054
    92RH    C57 4736   4.941   1.019   1.222 -0.2676 -0.2198  0.1863
    92RH    C58 4737   5.043   1.132   1.232  0.6398 -1.0334 -1.0328
    92RH     S8 4738   4.751   1.079   0.973  0.0157 -0.5892 -0.0850
    72IDQ   C59 4739   3.620   1.568   1.700  0.9920 -1.4394  0.0571
    72IDQ   C60 4740   3.723   1.694   1.660  0.8710  0.8357 -0.6500
    72IDQ   C61 4741   3.838   1.644   1.566  0.7580 -1.0929  0.1795
    72IDQ   C62 4742   3.814   1.613   1.415  0.7642  0.1540  0.1515
    72IDQ   C63 4743   3.882   1.488   1.371  0.3265 -0.4909  0.1071
    72IDQ   C64 4744   3.820   1.422   1.248 -1.0317  0.1132 -0.6712
    72IDQ   C65 4745   3.856   1.288   1.223  1.2717  0.9085 -0.1683
    72IDQ   C66 4746   3.601   1.371   2.089 -0.5241 -0.3514 -0.6082
    72IDQ   C67 4747   3.439   1.410   2.080 -1.3864  0.0969 -0.1601
    72IDQ   C68 4748   3.319   1.294   2.092 -0.3064 -0.1927 -1.7070
    72IDQ   C69 4749   3.167   1.339   2.088 -0.3140 -0.1089  0.4688
    72IDQ   C70 4750   3.043   1.251   2.104 -1.1590  0.4640 -0.0817
    72IDQ   C71 4751   3.035   1.141   2.219  0.6490 -0.3488 -0.4021
    72IDQ   C72 4752   2.904   1.059   2.193 -0.8144  1.2335  0.0994
    11RH     C1 4753   1.890   5.074   2.665 -0.1486 -0.1173 -0.0353
    11RH     C2 4754   1.896   5.107   2.809 -0.2290 -0.1075 -0.0339
    11RH     N1 4755   1.958   5.171   2.587  0.0060 -0.1926  0.0071
    11RH     S1 4756   1.991   5.262   2.834 -0.0960 -0.1978  0.0227
    11RH     C3 4757   2.018   5.276   2.652  0.0594 -0.2439  0.0421
    11RH     C4 4758   1.947   5.180   2.442  1.9339 -0.0394 -1.7117
    11RH     S2 4759   2.104   5.404   2.583  0.2373 -0.3362  0.0956
    11RH     O1 4760   1.833   4.976   2.615 -0.2068 -0.0672 -0.0688
    11RH     C5 4761   1.839   5.032   2.904 -0.3766 -0.0421 -0.0698
    21BTZ    C6 4762   1.859   5.027   3.048  0.1779 -0.3864  0.2181
    21BTZ    C7 4763   1.956   5.101   3.111  0.1958 -0.3839  0.1872
    21BTZ    C8 4764   1.778   4.940   3.127  0.2272 -0.4132  0.2394
    21BTZ    C9 4765   1.977   5.093   3.253  0.2628 -0.4075  0.1757
    21BTZ   C10 4766   1.902   5.011   3.333  0.3115 -0.4334  0.1953
    21BTZ   C11 4767   1.799   4.931   3.271  0.2952 -0.4373  0.2278
    21BTZ    N2 4768   1.680   4.863   3.077  0.2156 -0.4184  0.2699
    21BTZ    N3 4769   1.719   4.847   3.338  0.3384 -0.4613  0.2490
    21BTZ    S3 4770   1.611   4.774   3.216  0.2929 -0.4549  0.2853
    31IDT   C12 4771   1.950   4.984   3.471  0.3586  0.2119  0.8580
    31IDT   C13 4772   2.076   4.998   3.523  0.1248  1.5235  1.1185
    31IDT   C14 4773   2.079   4.984   3.665  0.0076  1.2927  1.0988
    31IDT   C15 4774   1.956   4.960   3.722  0.1509 -0.1925  0.8242
    31IDT    S4 4775   1.825   4.953   3.599  0.4481 -1.4254  0.5664
    4IDB    C16 4776   1.970   4.924   3.867 -1.3103  0.1288 -0.1418
    4IDB    C17 4777   2.109   4.924   3.898 -1.1408  0.5183 -0.8925
    51IDQ   C18 4778   2.192   4.974   3.770  0.4406 -0.3411  0.0910
    4IDB    C19 4779   2.154   4.898   4.027 -0.3574  0.2257 -1.2168
    51IDQ   C20 4780   2.245   5.121   3.782  0.3316  1.5287  0.4936
    51IDQ   C21 4781   2.310   4.871   3.750 -1.0013  1.0057 -0.5195
    51IDQ   C22 4782   2.318   4.716   3.797 -0.0950 -1.8483 -1.9724
    51IDQ   C23 4783   2.210   5.211   3.897  0.7268 -0.8532  0.7099
    51IDQ   C24 4784   2.249   4.587   3.741 -0.4031  0.4233 -0.2910
    51IDQ   C25 4785   2.102   4.596   3.714 -0.8390 -1.1071 -0.0768
    51IDQ   C26 4786   2.016   4.474   3.707  0.6130 -0.4637 -0.5469
    51IDQ   C27 4787   1.883   4.467   3.642  1.8916  0.0323  0.2276
    51IDQ   C28 4788   1.790   4.592   3.666  0.2899  0.3110 -0.8321
    51IDQ   C29 4789   1.672   4.563   3.586  0.0815  0.0798  0.4602
    51IDQ   C30 4790   2.080   5.242   3.954  1.2205 -0.5423  0.8658
    51IDQ   C31 4791   2.060   5.331   4.084 -0.7280  0.3072  0.9988
    51IDQ   C32 4792   2.093   5.264   4.206 -0.0287  1.2531 -0.0777
    51IDQ   C33 4793   2.114   5.344   4.335  0.2497 -1.5167  0.2242
    51IDQ   C34 4794   1.993   5.378   4.421 -0.8912 -0.2012  0.3683
    51IDQ   C35 4795   1.998   5.437   4.572  0.4184  0.6048 -1.2962
    4IDB    C36 4796   1.874   4.899   3.967 -0.6925 -0.5610  0.2913
    4IDB    C37 4797   1.922   4.873   4.098  0.1046 -0.8521 -0.0496
    11RH    C38 4798   2.035   5.083   2.366 -0.0224 -0.1074  0.0533
    4IDB    C39 4799   2.058   4.873   4.126  0.2605 -0.4643 -0.7836
    62IDT   C40 4800   2.074   4.868   4.274 -0.4640  0.3980  0.6540
    72IDQ   C41 4801   1.847   4.863   4.231  0.9458 -2.3070 -0.4634
    62IDT   C42 4802   1.955   4.874   4.343 -0.1993 -0.9520  1.2639
    72IDQ   C43 4803   1.754   4.733   4.231 -1.5202 -0.2163 -0.5958
    72IDQ   C44 4804   1.759   4.982   4.297 -0.8141 -0.1533  0.5270
    62IDT    S5 4805   2.216   4.878   4.384 -0.0200  0.2788  0.0986
    62IDT   C45 4806   2.100   4.890   4.524  0.5267 -1.6860  0.7524
    62IDT   C46 4807   1.969   4.886   4.484  0.3611 -2.1322  1.3206
    82BTZ   C47 4808   2.160   4.918   4.660  0.5780 -0.1492  0.2025
    82BTZ   C48 4809   2.288   4.873   4.681  0.7116  0.2866  0.3438
    82BTZ   C49 4810   2.360   4.904   4.801  0.6076  0.8395  0.2644
    82BTZ   C50 4811   2.305   4.981   4.901  0.3704  0.9556  0.0439
    82BTZ   C51 4812   2.098   4.999   4.761  0.3289 -0.0489 -0.0298
    82BTZ   C52 4813   2.172   5.031   4.883  0.2232  0.5128 -0.1101
    92RH    C53 4814   2.392   5.025   5.012  0.3115 -0.6914 -0.0783
    82BTZ    N4 4815   1.975   5.049   4.751  0.1805 -0.4392 -0.1836
    82BTZ    N5 4816   2.108   5.107   4.973 -0.0100  0.5744 -0.3285
    82BTZ    S6 4817   1.947   5.141   4.902 -0.1065 -0.0978 -0.4434
    92RH    C54 4818   2.520   5.012   5.048  0.3164 -0.3781  0.0153
    92RH     S7 4819   2.653   4.925   4.956  0.5947 -0.0669  0.1189
    92RH    C55 4820   2.576   5.069   5.173  0.0883 -0.2320  0.0501
    92RH     O2 4821   2.512   5.134   5.258 -0.1298 -0.3784 -0.0021
    92RH     N6 4822   2.714   5.041   5.187  0.1483  0.1023  0.1521
    92RH    C56 4823   2.775   4.968   5.087  0.3964  0.2418  0.2034
    92RH    C57 4824   2.790   5.109   5.291  0.0197 -1.7094 -0.5198
    92RH    C58 4825   2.825   5.250   5.278 -0.6286  0.5887  1.5022
    92RH     S8 4826   2.937   4.921   5.079  0.5170  0.6320  0.3245
    72IDQ   C59 4827   1.683   5.090   4.217  0.7309  0.4065  0.0087
    72IDQ   C60 4828   1.629   5.039   4.083 -0.0368 -0.2891  0.2737
    72IDQ   C61 4829   1.503   4.960   4.085  0.5977 -0.0660 -1.0783
    72IDQ   C62 4830   1.429   4.941   3.966 -0.1065 -1.0923  0.6891
    72IDQ   C63 4831   1.294   4.861   3.976  0.3002  1.0735  1.2633
    72IDQ   C64 4832   1.201   4.847   3.857 -0.9784 -0.3292  0.6243
    72IDQ   C65 4833   1.067   4.816   3.926 -1.8447  0.6635  0.4028
    72IDQ   C66 4834   1.796   4.593   4.204  1.2889 -0.3296 -1.4385
    72IDQ   C67 4835   1.850   4.548   4.066 -0.1877 -0.6149 -0.5345
    72IDQ   C68 4836   1.961   4.452   4.042 -0.2703 -0.3736 -0.3871
    72IDQ   C69 4837   2.021   4.359   4.152  0.9254  0.7027 -0.4091
    72IDQ   C70 4838   2.105   4.230   4.123  0.2641 -0.3960  1.2957
    72IDQ   C71 4839   2.190   4.218   3.991 -0.6658 -1.0799  0.4610
    72IDQ   C72 4840   2.314   4.325   3.983 -0.8830 -0.4893 -0.7131
    11RH     C1 4841   3.227   1.884   1.519  0.2540  0.3257 -0.2914
    11RH     C2 4842   3.179   1.987   1.614  0.4168  0.1929 -0.0626
    11RH     N1 4843   3.122   1.799   1.477  0.1952  0.3395 -0.1736
    11RH     S1 4844   2.998   1.966   1.642  0.4820  0.0948  0.2924
    11RH     C3 4845   2.996   1.821   1.527  0.2911  0.2339  0.1217
    11RH     C4 4846   3.148   1.683   1.384 -1.1278 -0.3191 -0.2280
    11RH     S2 4847   2.855   1.736   1.493  0.2500  0.2248  0.3150
    11RH     O1 4848   3.344   1.871   1.480  0.1761  0.4153 -0.5546
    11RH     C5 4849   3.258   2.080   1.669  0.4996  0.1544 -0.1165
    21BTZ    C6 4850   3.242   2.193   1.766 -0.1317  0.2940  0.0610
    21BTZ    C7 4851   3.118   2.227   1.815 -0.0424  0.0732  0.4420
    21BTZ    C8 4852   3.355   2.269   1.810 -0.1187  0.4436 -0.2254
    21BTZ    C9 4853   3.100   2.335   1.909  0.0634 -0.0114  0.5601
    21BTZ   C10 4854   3.205   2.409   1.954  0.0798  0.1248  0.2971
    21BTZ   C11 4855   3.337   2.378   1.906 -0.0111  0.3575 -0.1054
    21BTZ    N2 4856   3.481   2.246   1.770 -0.1994  0.6620 -0.6051
    21BTZ    N3 4857   3.448   2.444   1.942 -0.0054  0.5068 -0.3886
    21BTZ    S3 4858   3.583   2.366   1.854 -0.1400  0.7691 -0.8299
    31IDT   C12 4859   3.176   2.518   2.053  1.5169  0.9323  0.0270
    31IDT   C13 4860   3.265   2.610   2.103  1.3378  0.3856  1.3928
    31IDT   C14 4861   3.211   2.686   2.211  0.6591 -0.2761  1.5336
    31IDT   C15 4862   3.081   2.654   2.244  0.3174 -0.2385  0.2794
    31IDT    S4 4863   3.016   2.523   2.140  0.8331  0.6460 -1.1910
    4IDB    C16 4864   3.046   2.725   2.357  0.6693  0.1807  0.2765
    4IDB    C17 4865   3.159   2.800   2.404  0.3549  0.6658  0.2701
    51IDQ   C18 4866   3.273   2.791   2.310 -1.3564  0.3695  0.0939
    4IDB    C19 4867   3.152   2.873   2.522 -0.0026  0.7601  0.1904
    51IDQ   C20 4868   3.312   2.943   2.256  0.7586 -1.7642  0.9138
    51IDQ   C21 4869   3.417   2.730   2.355 -0.9918 -1.0157  0.7684
    51IDQ   C22 4870   3.439   2.700   2.495  0.2737  0.1915  0.1846
    51IDQ   C23 4871   3.301   2.983   2.107 -0.9914 -0.2515  0.0737
    51IDQ   C24 4872   3.579   2.657   2.504  0.8454  1.6235 -0.4003
    51IDQ   C25 4873   3.590   2.509   2.489  0.9961  0.0201 -0.1965
    51IDQ   C26 4874   3.561   2.421   2.597  0.6441  0.1770  0.1404
    51IDQ   C27 4875   3.622   2.451   2.745 -0.1165  0.5627 -0.1351
    51IDQ   C28 4876   3.555   2.394   2.854  0.1545 -0.8860 -0.1319
    51IDQ   C29 4877   3.650   2.422   2.961 -0.2868  1.5542 -1.2142
    51IDQ   C30 4878   3.162   3.002   2.066 -0.4224 -0.5076  0.1435
    51IDQ   C31 4879   3.132   3.038   1.926 -0.3155  1.1324  1.9793
    51IDQ   C32 4880   2.994   2.986   1.882  0.3833  0.4469  0.6902
    51IDQ   C33 4881   2.987   2.932   1.729 -0.2119 -0.4030 -0.4319
    51IDQ   C34 4882   3.009   2.787   1.718 -0.1220  0.1109 -0.0152
    51IDQ   C35 4883   2.972   2.713   1.601 -0.8596  0.5700 -0.6850
    4IDB    C36 4884   2.925   2.724   2.428  0.6276 -0.2147  0.2029
    4IDB    C37 4885   2.920   2.800   2.548  0.2602 -0.1113  0.1221
    11RH    C38 4886   3.068   1.692   1.253 -0.6602  0.9605 -0.0383
    4IDB    C39 4887   3.031   2.873   2.593 -0.0441  0.3646  0.1167
    62IDT   C40 4888   3.011   2.924   2.724  0.3865 -0.1689 -0.3189
    72IDQ   C41 4889   2.801   2.825   2.655 -0.0732  0.2654 -0.8546
    62IDT   C42 4890   2.886   2.887   2.771  0.3543 -0.2935 -0.5009
    72IDQ   C43 4891   2.713   2.710   2.688  0.5030  0.7971  0.1858
    72IDQ   C44 4892   2.700   2.940   2.614 -0.3703  1.0858 -0.5537
    62IDT    S5 4893   3.102   3.021   2.845  0.2568 -0.3872 -0.0430
    62IDT   C45 4894   2.960   3.007   2.957  0.1611 -0.6485 -0.1957
    62IDT   C46 4895   2.857   2.934   2.903  0.2269 -0.5649 -0.4317
    82BTZ   C47 4896   2.976   3.065   3.097  0.0616 -0.3497 -0.2862
    82BTZ   C48 4897   3.064   3.169   3.114  0.0821 -0.3421 -0.4377
    82BTZ   C49 4898   3.106   3.212   3.245  0.0592 -0.1332 -0.4988
    82BTZ   C50 4899   3.060   3.151   3.359  0.0158  0.0676 -0.4078
    82BTZ   C51 4900   2.926   2.997   3.213  0.0161 -0.1440 -0.1863
    82BTZ   C52 4901   2.969   3.041   3.347 -0.0072  0.0684 -0.2483
    92RH    C53 4902   3.117   3.199   3.483 -0.6225  0.4152 -0.4105
    82BTZ    N4 4903   2.840   2.895   3.210 -0.0075 -0.1301 -0.0367
    82BTZ    N5 4904   2.918   2.974   3.450 -0.0495  0.2530 -0.1484
    82BTZ    S6 4905   2.810   2.849   3.380 -0.0615  0.1616  0.0330
    92RH    C54 4906   3.216   3.279   3.525 -0.4387  0.1405 -0.3198
    92RH     S7 4907   3.318   3.390   3.421  0.1111 -0.3036 -0.2596
    92RH    C55 4908   3.259   3.289   3.666 -0.6621  0.1565 -0.2525
    92RH     O2 4909   3.210   3.226   3.761 -1.0377  0.4203 -0.2713
    92RH     N6 4910   3.366   3.380   3.681 -0.3923 -0.1705 -0.1615
    92RH    C56 4911   3.413   3.444   3.569  0.0196 -0.4468 -0.1483
    92RH    C57 4912   3.391   3.449   3.820  0.6059 -0.0274 -1.7199
    92RH    C58 4913   3.295   3.559   3.831  0.0633 -0.1869 -0.4261
    92RH     S8 4914   3.538   3.557   3.560  0.4022 -0.8605 -0.0478
    72IDQ   C59 4915   2.682   2.987   2.482  1.1640 -0.9558  1.2631
    72IDQ   C60 4916   2.570   2.922   2.398  0.5066 -0.3018  1.3093
    72IDQ   C61 4917   2.615   2.853   2.265 -0.4208  0.4743  1.4009
    72IDQ   C62 4918   2.542   2.712   2.229 -0.8933  0.3276 -0.2562
    72IDQ   C63 4919   2.554   2.585   2.311  0.2098  0.7292  0.6706
    72IDQ   C64 4920   2.676   2.499   2.277  0.2589  0.0657 -0.7695
    72IDQ   C65 4921   2.691   2.433   2.134  0.9319 -0.4958  0.6737
    72IDQ   C66 4922   2.732   2.556   2.647 -0.5588  0.3354  0.3206
    72IDQ   C67 4923   2.867   2.488   2.690 -0.1526 -0.8412  0.4389
    72IDQ   C68 4924   2.931   2.434   2.569  0.2074  0.3382  0.3571
    72IDQ   C69 4925   3.036   2.323   2.599  0.3322 -0.8790  0.6853
    72IDQ   C70 4926   3.132   2.299   2.479  0.3319 -0.6546 -1.3909
    72IDQ   C71 4927   3.210   2.172   2.499 -0.3459 -0.4341  0.1109
    72IDQ   C72 4928   3.294   2.176   2.373  0.7050  0.6615 -0.5964
    11RH     C1 4929   4.720   5.648   2.317  0.4170 -0.4203  0.1922
    11RH     C2 4930   4.753   5.727   2.438  0.1252 -0.3583  0.2319
    11RH     N1 4931   4.646   5.725   2.224  0.2745 -0.5980  0.1597
    11RH     S1 4932   4.684   5.897   2.422 -0.3170 -0.5378  0.2238
    11RH     C3 4933   4.615   5.855   2.256 -0.0956 -0.6857  0.1686
    11RH     C4 4934   4.600   5.664   2.091  0.1834 -0.8556 -0.3588
    11RH     S2 4935   4.529   5.966   2.164 -0.3324 -0.8960  0.1359
    11RH     O1 4936   4.752   5.530   2.297  0.7463 -0.3307  0.1873
    11RH     C5 4937   4.823   5.679   2.541  0.1873 -0.1954  0.2674
    21BTZ    C6 4938   4.870   5.746   2.671 -0.0791  0.1778 -0.2645
    21BTZ    C7 4939   4.849   5.877   2.704 -0.1936  0.1109 -0.0714
    21BTZ    C8 4940   4.936   5.661   2.766  0.0777  0.1192 -0.4271
    21BTZ    C9 4941   4.892   5.931   2.831 -0.1602 -0.0157 -0.0285
    21BTZ   C10 4942   4.956   5.854   2.924 -0.0123 -0.0755 -0.1790
    21BTZ   C11 4943   4.980   5.716   2.894  0.1116 -0.0095 -0.3835
    21BTZ    N2 4944   4.962   5.532   2.745  0.1991  0.1748 -0.6214
    21BTZ    N3 4945   5.041   5.631   2.977  0.2601 -0.0575 -0.5428
    21BTZ    S3 4946   5.046   5.473   2.892  0.3657  0.0621 -0.7597
    31IDT   C12 4947   5.006   5.891   3.066 -0.5892 -0.8102  0.4747
    31IDT   C13 4948   5.134   5.871   3.111 -0.7308 -1.0288  0.7831
    31IDT   C14 4949   5.164   5.948   3.228 -0.7038 -0.6540  0.5323
    31IDT   C15 4950   5.059   6.027   3.272 -0.5419 -0.1492  0.0321
    31IDT    S4 4951   4.914   6.009   3.168 -0.4095 -0.1082 -0.1615
    4IDB    C16 4952   5.098   6.095   3.395 -0.8544  0.1552  0.4302
    4IDB    C17 4953   5.232   6.071   3.435 -0.7312 -0.3562 -0.2584
    51IDQ   C18 4954   5.279   5.952   3.338 -0.4255  0.6252  0.1580
    4IDB    C19 4955   5.285   6.134   3.547  0.1839 -0.2996 -0.7142
    51IDQ   C20 4956   5.406   6.006   3.282  0.0853 -1.4271  0.5343
    51IDQ   C21 4957   5.331   5.812   3.388  0.4349 -0.8820  0.0777
    51IDQ   C22 4958   5.342   5.794   3.540 -0.3045 -0.7511  0.5565
    51IDQ   C23 4959   5.420   6.080   3.146 -0.1028  0.4373  0.5626
    51IDQ   C24 4960   5.438   5.680   3.569  1.5182  0.1019 -0.1831
    51IDQ   C25 4961   5.365   5.548   3.522  0.3091 -1.0998  0.2530
    51IDQ   C26 4962   5.425   5.410   3.544  0.0966  1.0244  0.3499
    51IDQ   C27 4963   5.483   5.337   3.426  0.3000  0.0530  0.4342
    51IDQ   C28 4964   5.413   5.347   3.296 -0.7880 -0.1441 -0.2500
    51IDQ   C29 4965   5.430   5.237   3.197 -0.6339  0.5532 -1.0506
    51IDQ   C30 4966   5.538   6.161   3.152  0.1576  0.1005  0.6871
    51IDQ   C31 4967   5.625   6.128   3.036  0.9735  1.0092  0.2621
    51IDQ   C32 4968   5.729   6.243   3.006  0.4751  0.0479  1.6246
    51IDQ   C33 4969   5.815   6.216   2.868 -0.0344 -0.3871 -1.6793
    51IDQ   C34 4970   5.956   6.148   2.877  0.9348 -0.9480 -0.0176
    51IDQ   C35 4971   5.980   6.000   2.906 -0.6638 -0.4984  0.7822
    4IDB    C36 4972   5.014   6.182   3.466 -0.0575  0.7293  0.6684
    4IDB    C37 4973   5.070   6.246   3.581  0.8726  0.7784  0.1954
    11RH    C38 4974   4.519   5.532   2.101 -0.5671 -0.0953 -0.1305
    4IDB    C39 4975   5.202   6.222   3.619  0.9811  0.2745 -0.4762
    62IDT   C40 4976   5.227   6.292   3.737 -0.2883 -0.1631  0.5928
    72IDQ   C41 4977   5.002   6.347   3.677  0.4211 -1.0383  0.0035
    62IDT   C42 4978   5.120   6.373   3.769  0.2890  0.6852  0.3954
    72IDQ   C43 4979   4.876   6.291   3.749 -0.4257 -0.0619 -0.0923
    72IDQ   C44 4980   4.972   6.493   3.623 -0.1709  0.1545 -0.9150
    62IDT    S5 4981   5.361   6.308   3.856 -0.0445 -0.5935  0.3790
    62IDT   C45 4982   5.261   6.429   3.947  0.8692  0.4474  0.0164
    62IDT   C46 4983   5.139   6.451   3.887  0.9441  1.0316  0.0695
    82BTZ   C47 4984   5.312   6.505   4.057  0.1165 -0.3623  0.5572
    82BTZ   C48 4985   5.445   6.493   4.086  0.1025 -0.3359  0.6330
    82BTZ   C49 4986   5.504   6.558   4.200  0.0584 -0.1819  0.5682
    82BTZ   C50 4987   5.430   6.635   4.285  0.0286 -0.0545  0.4276
    82BTZ   C51 4988   5.230   6.585   4.143  0.0863 -0.2332  0.4094
    82BTZ   C52 4989   5.290   6.651   4.260  0.0415 -0.0763  0.3436
    92RH    C53 4990   5.486   6.718   4.394  0.6300  0.0307  0.1453
    82BTZ    N4 4991   5.099   6.604   4.126  0.0958 -0.2444  0.3250
    82BTZ    N5 4992   5.207   6.723   4.336  0.0153  0.0386  0.2058
    82BTZ    S6 4993   5.046   6.710   4.260  0.0471 -0.0507  0.1533
    92RH    C54 4994   5.607   6.736   4.447  0.6411  0.2441  0.0470
    92RH     S7 4995   5.767   6.677   4.380  0.6811  0.4363 -0.0289
    92RH    C55 4996   5.630   6.810   4.573  0.6223  0.3607 -0.0179
    92RH     O2 4997   5.543   6.863   4.643  0.5944  0.2768  0.0105
    92RH     N6 4998   5.768   6.815   4.606  0.6401  0.5844 -0.1183
    92RH    C56 4999   5.857   6.753   4.521  0.6711  0.6609 -0.1421
    92RH    C57 5000   5.803   6.889   4.725  1.0259  0.0703  0.1449
    92RH    C58 5001   5.855   6.804   4.846  0.8225 -0.0011  0.2862
    92RH     S8 5002   6.025   6.743   4.537  0.6971  0.9186 -0.2558
    72IDQ   C59 5003   5.012   6.557   3.490 -1.2250 -0.3101  1.1751
    72IDQ   C60 5004   5.045   6.701   3.485  0.6991  0.1415  0.5013
    72IDQ   C61 5005   5.071   6.725   3.334 -1.3505 -0.5998 -0.1599
    72IDQ   C62 5006   5.074   6.881   3.320 -1.1608 -0.3529 -0.1127
    72IDQ   C63 5007   5.185   6.980   3.364  0.5028 -0.2582  0.5187
    72IDQ   C64 5008   5.316   6.972   3.302 -0.9934  0.2117 -0.0677
    72IDQ   C65 5009   5.309   7.008   3.161  0.1762 -0.1670 -0.2128
    72IDQ   C66 5010   4.821   6.348   3.876  0.4001 -0.5762  0.5722
    72IDQ   C67 5011   4.668   6.373   3.892 -0.7297  0.2392 -1.3172
    72IDQ   C68 5012   4.605   6.491   3.809 -0.5003  0.2834  0.2763
    72IDQ   C69 5013   4.651   6.626   3.850 -0.1054 -1.1252  0.2702
    72IDQ   C70 5014   4.600   6.679   3.993 -0.3470 -1.5462 -0.8145
    72IDQ   C71 5015   4.579   6.827   4.009 -0.2127 -0.0375  0.1246
    72IDQ   C72 5016   4.542   6.863   4.154 -0.9684 -1.0654  0.7346
    11RH     C1 5017   5.948   2.221   6.997 -0.1748 -0.0633  0.4542
    11RH     C2 5018   5.870   2.164   6.884 -0.0989 -0.1096  0.4251
    11RH     N1 5019   6.085   2.228   6.966 -0.2338  0.5064  0.3053
    11RH     S1 5020   5.982   2.124   6.745 -0.1112  0.5992  0.2038
    11RH     C3 5021   6.127   2.184   6.843 -0.2148  0.9222  0.1602
    11RH     C4 5022   6.174   2.308   7.046  0.7166  0.1971  1.4799
    11RH     S2 5023   6.284   2.181   6.781 -0.2749  1.6277 -0.0327
    11RH     O1 5024   5.901   2.259   7.106 -0.1862 -0.4665  0.5908
    11RH     C5 5025   5.737   2.147   6.888 -0.0337 -0.6023  0.5456
    21BTZ    C6 5026   5.634   2.105   6.785 -0.6862  0.9781 -0.4820
    21BTZ    C7 5027   5.657   2.081   6.652 -0.5922  0.8892 -0.4497
    21BTZ    C8 5028   5.501   2.090   6.836 -0.5929  0.3464 -0.4218
    21BTZ    C9 5029   5.551   2.040   6.563 -0.4029  0.1798 -0.3569
    21BTZ   C10 5030   5.422   2.024   6.607 -0.3080 -0.4393 -0.2964
    21BTZ   C11 5031   5.393   2.048   6.745 -0.4005 -0.3746 -0.3273
    21BTZ    N2 5032   5.466   2.111   6.963 -0.6702  0.3635 -0.4451
    21BTZ    N3 5033   5.272   2.036   6.800 -0.3231 -0.9371 -0.2751
    21BTZ    S3 5034   5.291   2.078   6.973 -0.4963 -0.5610 -0.3454
    31IDT   C12 5035   5.341   1.952   6.514 -0.0780 -0.4410  0.2737
    31IDT   C13 5036   5.205   1.939   6.520  0.0584 -1.7726  0.9341
    31IDT   C14 5037   5.150   1.873   6.406  0.1202 -2.0245  1.0505
    31IDT   C15 5038   5.244   1.835   6.312  0.0309 -0.8895  0.4807
    31IDT    S4 5039   5.411   1.880   6.362 -0.1392  0.6002 -0.2539
    4IDB    C16 5040   5.180   1.788   6.193  0.8991 -0.5092 -0.3637
    4IDB    C17 5041   5.039   1.798   6.211  0.9544 -0.6084  0.1409
    51IDQ   C18 5042   5.006   1.829   6.366  0.2685  0.8799 -0.2382
    4IDB    C19 5043   4.952   1.779   6.105  0.6064 -0.2719  0.3614
    51IDQ   C20 5044   4.886   1.939   6.366 -0.8270  0.6750 -0.1521
    51IDQ   C21 5045   4.944   1.709   6.453 -0.1104 -0.2479  0.4463
    51IDQ   C22 5046   4.939   1.567   6.384  1.0805 -0.8115  0.2732
    51IDQ   C23 5047   4.911   2.080   6.422 -1.5152  1.8247  0.3150
    51IDQ   C24 5048   4.829   1.475   6.425 -0.2178 -2.2309 -0.7733
    51IDQ   C25 5049   4.845   1.341   6.379 -0.3597  0.5355  0.7216
    51IDQ   C26 5050   4.721   1.245   6.405 -0.2778 -0.6831 -0.8511
    51IDQ   C27 5051   4.600   1.283   6.328 -0.4747  0.0869 -0.5833
    51IDQ   C28 5052   4.473   1.199   6.380  0.2267 -0.3398 -0.6119
    51IDQ   C29 5053   4.334   1.267   6.371  0.6617  0.9546  0.8829
    51IDQ   C30 5054   4.899   2.120   6.561  0.6931 -0.0344  1.6852
    51IDQ   C31 5055   4.915   2.036   6.695  0.9139  0.3633 -0.6746
    51IDQ   C32 5056   4.823   1.919   6.722  1.4308 -1.2025  0.0534
    51IDQ   C33 5057   4.663   1.943   6.723  0.2561 -0.6349 -0.9663
    51IDQ   C34 5058   4.568   1.923   6.612  0.1340  0.4756 -0.7501
    51IDQ   C35 5059   4.429   1.926   6.654 -0.1659 -0.8827  0.7607
    4IDB    C36 5060   5.235   1.757   6.068  0.4928 -0.0699 -0.6521
    4IDB    C37 5061   5.144   1.738   5.960  0.1411  0.2695 -0.4206
    11RH    C38 5062   6.230   2.450   7.003  0.1335 -0.5947 -0.0833
    4IDB    C39 5063   5.006   1.748   5.979  0.2002  0.1673  0.0733
    62IDT   C40 5064   4.951   1.707   5.848 -0.0087 -0.4741  0.0183
    72IDQ   C41 5065   5.180   1.680   5.813 -1.0433 -0.5114  0.1563
    62IDT   C42 5066   5.037   1.668   5.748 -0.2253 -0.3209 -0.2306
    72IDQ   C43 5067   5.238   1.525   5.824 -1.0237  2.4792 -0.1157
    72IDQ   C44 5068   5.291   1.773   5.759 -1.7899  0.4592 -1.1863
    62IDT    S5 5069   4.779   1.678   5.804 -0.1158 -0.2308  0.2679
    62IDT   C45 5070   4.836   1.611   5.645 -0.4649  0.0804  0.0103
    62IDT   C46 5071   4.973   1.614   5.633 -0.4833 -0.0072 -0.2356
    82BTZ   C47 5072   4.736   1.546   5.553 -0.0605  0.4139  0.0926
    82BTZ   C48 5073   4.614   1.512   5.607  0.0560  0.1683  0.2005
    82BTZ   C49 5074   4.513   1.444   5.530  0.1824 -0.1754  0.3355
    82BTZ   C50 5075   4.534   1.410   5.399  0.1924 -0.2731  0.3622
    82BTZ   C51 5076   4.762   1.512   5.416 -0.0551  0.3241  0.1152
    82BTZ   C52 5077   4.659   1.443   5.337  0.0732 -0.0253  0.2522
    92RH    C53 5078   4.435   1.340   5.319  0.0495 -0.5689 -0.0161
    82BTZ    N4 5079   4.876   1.540   5.352 -0.1616  0.5406  0.0181
    82BTZ    N5 5080   4.690   1.416   5.211  0.0703 -0.0895  0.2656
    82BTZ    S6 5081   4.856   1.478   5.186 -0.1007  0.3020  0.0999
    92RH    C54 5082   4.307   1.305   5.332 -0.0796 -0.0986 -0.0122
    92RH     S7 5083   4.211   1.295   5.488 -0.1957  0.5430 -0.0408
    92RH    C55 5084   4.220   1.268   5.218 -0.1507 -0.0254  0.0174
    92RH     O2 5085   4.255   1.264   5.099 -0.0997 -0.3828  0.0415
    92RH     N6 5086   4.090   1.235   5.260 -0.2861  0.5114  0.0155
    92RH    C56 5087   4.061   1.242   5.395 -0.3326  0.8771 -0.0124
    92RH    C57 5088   4.004   1.180   5.169  0.9851 -0.2996 -0.4483
    92RH    C58 5089   3.941   1.297   5.083 -0.1555  0.5127  0.4911
    92RH     S8 5090   3.914   1.210   5.471 -0.4884  1.5360 -0.0205
    72IDQ   C59 5091   5.344   1.799   5.616 -0.6393 -0.5325  0.1703
    72IDQ   C60 5092   5.279   1.716   5.503 -2.0205 -0.4707 -0.7790
    72IDQ   C61 5093   5.320   1.766   5.357 -0.3401  0.4603 -0.6382
    72IDQ   C62 5094   5.227   1.822   5.253 -0.3234 -1.3535 -0.7168
    72IDQ   C63 5095   5.189   1.945   5.308 -0.2943 -1.5140  0.2813
    72IDQ   C64 5096   5.136   2.062   5.219  0.8816  1.1193  0.1963
    72IDQ   C65 5097   5.201   2.172   5.295 -0.4367  0.0071  0.1998
    72IDQ   C66 5098   5.389   1.481   5.848  0.0582 -0.7353 -0.4780
    72IDQ   C67 5099   5.432   1.341   5.827  0.9552  0.1541  0.3856
    72IDQ   C68 5100   5.421   1.284   5.691 -1.1362  0.6311 -0.6793
    72IDQ   C69 5101   5.489   1.148   5.687 -1.4581 -0.2549  0.5633
    72IDQ   C70 5102   5.402   1.020   5.682 -0.1341 -0.5307  0.2683
    72IDQ   C71 5103   5.336   0.956   5.808 -1.2194 -0.9212  1.2877
    72IDQ   C72 5104   5.416   0.922   5.936  0.4226 -0.4508  1.5610
    11RH     C1 5105   0.878   1.593   3.168 -0.8044 -0.4337 -0.0492
    11RH     C2 5106   0.910   1.659   3.039 -0.5022 -0.2816  0.1042
    11RH     N1 5107   0.956   1.477   3.186 -0.6666 -0.3149  0.1144
    11RH     S1 5108   1.041   1.565   2.951 -0.0566  0.0081  0.4536
    11RH     C3 5109   1.047   1.442   3.089 -0.2910 -0.0860  0.3804
    11RH     C4 5110   0.969   1.418   3.322 -1.5711  1.0068  0.9431
    11RH     S2 5111   1.151   1.310   3.087 -0.0580  0.0935  0.6162
    11RH     O1 5112   0.793   1.632   3.250 -1.1382 -0.6400 -0.2910
    11RH     C5 5113   0.850   1.771   2.997 -0.5580 -0.3517 -0.0039
    21BTZ    C6 5114   0.871   1.853   2.871  0.3176  0.0929  0.0824
    21BTZ    C7 5115   0.948   1.821   2.762  0.1840 -0.0373  0.0262
    21BTZ    C8 5116   0.788   1.970   2.863  0.3634  0.1249  0.0720
    21BTZ    C9 5117   0.948   1.900   2.642  0.0892 -0.1420 -0.0427
    21BTZ   C10 5118   0.870   2.012   2.630  0.1282 -0.1162 -0.0552
    21BTZ   C11 5119   0.787   2.051   2.741  0.2671  0.0185  0.0020
    21BTZ    N2 5120   0.708   2.012   2.962  0.4909  0.2478  0.1228
    21BTZ    N3 5121   0.707   2.158   2.742  0.3171  0.0560 -0.0037
    21BTZ    S3 5122   0.628   2.160   2.902  0.4933  0.2325  0.0822
    31IDT   C12 5123   0.891   2.086   2.499  0.8784 -0.1509  0.6799
    31IDT   C13 5124   0.818   2.188   2.444  1.0881  0.2782  1.1935
    31IDT   C14 5125   0.863   2.225   2.314  0.8666  0.5265  1.1864
    31IDT   C15 5126   0.970   2.151   2.268  0.4874  0.2890  0.6686
    31IDT    S4 5127   1.023   2.028   2.388  0.3805 -0.2728  0.1452
    4IDB    C16 5128   0.996   2.188   2.130  0.0395 -0.3881 -0.6027
    4IDB    C17 5129   0.911   2.298   2.102  0.1654 -0.1967 -0.2326
    51IDQ   C18 5130   0.821   2.344   2.221 -0.1606  1.3049  2.4174
    4IDB    C19 5131   0.923   2.371   1.984  0.0858  0.0321 -0.1020
    51IDQ   C20 5132   0.866   2.501   2.269  0.8779  0.6110 -1.0995
    51IDQ   C21 5133   0.666   2.330   2.178 -1.3673 -0.7133  0.2225
    51IDQ   C22 5134   0.576   2.441   2.122 -0.9377  0.1209 -0.2818
    51IDQ   C23 5135   0.960   2.516   2.382  0.1068  2.4576  0.3265
    51IDQ   C24 5136   0.573   2.453   1.971  0.0769  0.4884 -0.2972
    51IDQ   C25 5137   0.577   2.328   1.883  0.1007 -0.1904  0.8213
    51IDQ   C26 5138   0.529   2.366   1.743 -0.4660  0.2396  0.2303
    51IDQ   C27 5139   0.554   2.255   1.639  0.7339 -0.6022  0.4081
    51IDQ   C28 5140   0.486   2.330   1.527  0.1436 -0.3309  1.1701
    51IDQ   C29 5141   0.469   2.264   1.389  1.9382 -0.3613 -0.1981
    51IDQ   C30 5142   0.981   2.667   2.402  0.2361  1.0831  0.2612
    51IDQ   C31 5143   1.081   2.676   2.513 -0.5372 -0.5282 -0.5772
    51IDQ   C32 5144   1.112   2.806   2.603  0.9336  0.9731  0.0286
    51IDQ   C33 5145   1.045   2.938   2.570  0.8856  0.4660  0.6028
    51IDQ   C34 5146   0.900   2.950   2.590  1.0684  0.7701  1.2410
    51IDQ   C35 5147   0.872   3.002   2.724  0.7266 -1.5536 -0.5340
    4IDB    C36 5148   1.096   2.148   2.039 -0.1680 -0.3513 -0.8456
    4IDB    C37 5149   1.107   2.223   1.919 -0.2467 -0.1163 -0.7072
    11RH    C38 5150   0.870   1.302   3.350  0.8178  1.0573  0.3706
    4IDB    C39 5151   1.022   2.331   1.893 -0.1218  0.0689 -0.3449
    62IDT   C40 5152   1.042   2.380   1.758 -0.5417 -0.8931 -0.5019
    72IDQ   C41 5153   1.201   2.201   1.804 -0.6042 -0.1384  1.7867
    62IDT   C42 5154   1.133   2.297   1.697 -0.6436 -0.9748 -0.5423
    72IDQ   C43 5155   1.213   2.053   1.766 -1.3066 -0.4617  0.3274
    72IDQ   C44 5156   1.349   2.255   1.822 -1.1607 -0.4894  0.4619
    62IDT    S5 5157   0.977   2.504   1.645 -0.1094 -0.5217 -0.3457
    62IDT   C45 5158   1.082   2.432   1.514 -0.0883 -0.4953 -0.3433
    62IDT   C46 5159   1.156   2.326   1.559 -0.3875 -0.7501 -0.4527
    82BTZ   C47 5160   1.054   2.464   1.370 -0.1482 -0.1120  0.5239
    82BTZ   C48 5161   0.923   2.492   1.340 -0.1796 -0.1326  0.6397
    82BTZ   C49 5162   0.886   2.551   1.214 -0.3096 -0.2165  0.6392
    82BTZ   C50 5163   0.979   2.581   1.118 -0.4079 -0.2801  0.5231
    82BTZ   C51 5164   1.155   2.495   1.273 -0.2479 -0.1765  0.3998
    82BTZ   C52 5165   1.117   2.554   1.145 -0.3799 -0.2618  0.3993
    92RH    C53 5166   0.932   2.622   0.987 -0.0909  0.0888  0.3548
    82BTZ    N4 5167   1.286   2.472   1.291 -0.2291 -0.1642  0.2806
    82BTZ    N5 5168   1.217   2.579   1.060 -0.4674 -0.3182  0.2797
    82BTZ    S6 5169   1.367   2.527   1.142 -0.3829 -0.2636  0.1602
    92RH    C54 5170   0.814   2.636   0.925 -0.1295  0.2259  0.4593
    92RH     S7 5171   0.648   2.609   0.999 -0.0884  0.2104  0.5461
    92RH    C55 5172   0.800   2.677   0.784 -0.2145  0.4172  0.5225
    92RH     O2 5173   0.893   2.702   0.706 -0.2591  0.4728  0.4871
    92RH     N6 5174   0.664   2.683   0.745 -0.2398  0.5330  0.6306
    92RH    C56 5175   0.568   2.652   0.839 -0.1855  0.4576  0.6617
    92RH    C57 5176   0.622   2.710   0.600 -0.1012 -0.2935  0.4842
    92RH    C58 5177   0.580   2.609   0.506 -0.3996 -0.7456  1.7556
    92RH     S8 5178   0.400   2.652   0.819 -0.2003  0.5647  0.7847
    72IDQ   C59 5179   1.383   2.392   1.854 -0.8239  1.0937  0.7853
    72IDQ   C60 5180   1.412   2.407   2.008  1.4561  0.6339 -0.3799
    72IDQ   C61 5181   1.437   2.540   2.069 -1.2381 -0.2920  0.6657
    72IDQ   C62 5182   1.485   2.569   2.213 -1.0184  1.1214  1.1458
    72IDQ   C63 5183   1.427   2.479   2.316  0.8147 -1.2737 -1.7472
    72IDQ   C64 5184   1.477   2.540   2.451  0.3044 -0.0411 -0.9818
    72IDQ   C65 5185   1.432   2.471   2.584 -1.3065  0.2748  0.2205
    72IDQ   C66 5186   1.110   2.001   1.661 -0.0352  0.1332 -0.4849
    72IDQ   C67 5187   1.176   1.891   1.562  0.6215 -1.2996  0.9225
    72IDQ   C68 5188   1.093   1.872   1.433 -0.3354  0.0525  0.8232
    72IDQ   C69 5189   1.071   1.991   1.343  1.9055 -0.3797  0.5540
    72IDQ   C70 5190   0.993   1.949   1.224  0.6751 -0.9089 -1.2567
    72IDQ   C71 5191   0.923   2.066   1.153 -0.0438  0.1629 -0.2742
    72IDQ   C72 5192   0.803   2.013   1.077 -1.1373  0.1662  1.0142
    11RH     C1 5193   4.188   3.399   4.060  0.4714  0.3867 -0.7827
    11RH     C2 5194   4.176   3.495   4.172  0.2658  0.1869 -0.6320
    11RH     N1 5195   4.322   3.389   4.015  0.5289  0.5815 -0.6570
    11RH     S1 5196   4.340   3.567   4.211  0.1613  0.2683 -0.3349
    11RH     C3 5197   4.418   3.466   4.078  0.3946  0.5621 -0.4241
    11RH     C4 5198   4.350   3.289   3.904 -0.5765 -0.1153 -2.3353
    11RH     S2 5199   4.582   3.472   4.043  0.4256  0.7665 -0.2367
    11RH     O1 5200   4.095   3.334   4.011  0.5825  0.3878 -0.9928
    11RH     C5 5201   4.060   3.523   4.233  0.1754 -0.0185 -0.7085
    21BTZ    C6 5202   4.015   3.615   4.347 -0.0514 -0.2560 -0.3884
    21BTZ    C7 5203   4.091   3.692   4.430  0.0322 -0.1633 -0.5512
    21BTZ    C8 5204   3.874   3.608   4.369 -0.0222 -0.2704 -0.2091
    21BTZ    C9 5205   4.033   3.767   4.538  0.1473 -0.0808 -0.5465
    21BTZ   C10 5206   3.899   3.764   4.563  0.1790 -0.0910 -0.3783
    21BTZ   C11 5207   3.814   3.685   4.479  0.0948 -0.1863 -0.2041
    21BTZ    N2 5208   3.789   3.536   4.295 -0.0961 -0.3568 -0.0410
    21BTZ    N3 5209   3.682   3.674   4.494  0.1153 -0.2055 -0.0319
    21BTZ    S3 5210   3.626   3.564   4.365 -0.0170 -0.3342  0.1344
    31IDT   C12 5211   3.854   3.846   4.674 -0.5176  0.3834 -0.6143
    31IDT   C13 5212   3.757   3.802   4.759 -1.2887  0.7666 -1.2839
    31IDT   C14 5213   3.749   3.879   4.879 -1.2783  0.3157 -0.9911
    31IDT   C15 5214   3.840   3.982   4.886 -0.5011 -0.4123 -0.0989
    31IDT    S4 5215   3.944   3.990   4.740  0.2851 -0.5853  0.4452
    4IDB    C16 5216   3.795   4.080   4.985 -0.2217  0.9169 -0.6560
    4IDB    C17 5217   3.693   4.019   5.064 -0.2593  0.8869 -0.7272
    51IDQ   C18 5218   3.653   3.879   5.003  0.8125 -0.3084  0.7068
    4IDB    C19 5219   3.640   4.083   5.175  0.2294  0.5266 -0.2793
    51IDQ   C20 5220   3.692   3.765   5.113 -0.1269 -0.4004 -1.1193
    51IDQ   C21 5221   3.500   3.834   4.972  0.6112  1.3062 -0.5952
    51IDQ   C22 5222   3.361   3.904   4.981  0.4990 -0.3337 -0.2099
    51IDQ   C23 5223   3.760   3.632   5.073  0.1877  0.1162 -0.2946
    51IDQ   C24 5224   3.314   4.021   5.073  0.4518 -0.3436 -0.0431
    51IDQ   C25 5225   3.201   4.010   5.172  0.2561  0.3659  0.2966
    51IDQ   C26 5226   3.210   4.086   5.308  0.5467  1.6894  1.0070
    51IDQ   C27 5227   3.304   4.029   5.425  0.2175  0.5719  1.0850
    51IDQ   C28 5228   3.250   4.097   5.554  0.1851 -0.2928  0.8268
    51IDQ   C29 5229   3.359   4.114   5.664  0.4914 -0.6775  0.7966
    51IDQ   C30 5230   3.691   3.513   5.118 -0.7122  0.1797  0.9897
    51IDQ   C31 5231   3.674   3.431   4.987  1.0745 -1.3421 -0.8036
    51IDQ   C32 5232   3.586   3.475   4.877  0.5576  0.0928 -0.2373
    51IDQ   C33 5233   3.426   3.463   4.897  0.7312 -0.3422  0.3445
    51IDQ   C34 5234   3.368   3.439   4.756  0.3079 -0.5886  0.2406
    51IDQ   C35 5235   3.231   3.376   4.748  0.9368 -1.1667  0.7503
    4IDB    C36 5236   3.845   4.207   5.017  0.3084  0.5839 -0.1333
    4IDB    C37 5237   3.790   4.272   5.131  0.8032  0.2182  0.3192
    11RH    C38 5238   4.326   3.342   3.773 -0.0172 -0.1588  0.2007
    4IDB    C39 5239   3.690   4.211   5.207  0.7597  0.1937  0.2431
    62IDT   C40 5240   3.648   4.308   5.312  1.0525  0.0503  0.4655
    72IDQ   C41 5241   3.817   4.411   5.187 -0.0262  0.5749 -0.0457
    62IDT   C42 5242   3.709   4.431   5.303  1.1904  0.0446  1.2805
    72IDQ   C43 5243   3.798   4.530   5.084 -0.2179 -0.2489  0.3604
    72IDQ   C44 5244   3.949   4.419   5.262  0.1911 -0.9919 -0.8597
    62IDT    S5 5245   3.527   4.302   5.444 -0.1416 -0.1905 -0.6234
    62IDT   C45 5246   3.566   4.475   5.482 -0.4046 -0.2915  0.1173
    62IDT   C46 5247   3.663   4.526   5.400  0.3668 -0.1485  1.0850
    82BTZ   C47 5248   3.502   4.555   5.584  0.1588  0.3664  0.0272
    82BTZ   C48 5249   3.368   4.573   5.568  0.1473  0.2887  0.0346
    82BTZ   C49 5250   3.289   4.648   5.664  0.1138  0.2635  0.0272
    82BTZ   C50 5251   3.346   4.703   5.776  0.0921  0.3161  0.0118
    82BTZ   C51 5252   3.567   4.611   5.699  0.1369  0.4239  0.0117
    82BTZ   C52 5253   3.487   4.687   5.797  0.1029  0.3984  0.0038
    92RH    C53 5254   3.260   4.793   5.858 -0.1359 -0.4670 -0.6640
    82BTZ    N4 5255   3.697   4.600   5.726  0.1451  0.5009  0.0031
    82BTZ    N5 5256   3.554   4.736   5.901  0.0839  0.4549 -0.0107
    82BTZ    S6 5257   3.724   4.688   5.879  0.1091  0.5454 -0.0155
    92RH    C54 5258   3.142   4.854   5.845 -0.0173 -0.1645 -0.3362
    92RH     S7 5259   3.040   4.863   5.693 -0.3727  0.1790 -0.0775
    92RH    C55 5260   3.075   4.927   5.955  0.4362 -0.0594 -0.1254
    92RH     O2 5261   3.119   4.939   6.071  0.7542 -0.2346 -0.2248
    92RH     N6 5262   2.952   4.982   5.913  0.4678  0.2721  0.2111
    92RH    C56 5263   2.913   4.962   5.782  0.0950  0.4451  0.2961
    92RH    C57 5264   2.903   5.119   5.988 -0.7112  1.2135  0.2592
    92RH    C58 5265   2.831   5.084   6.111  0.2732 -0.4734 -0.5737
    92RH     S8 5266   2.772   5.017   5.708  0.0445  0.8395  0.6764
    72IDQ   C59 5267   4.024   4.298   5.323  0.4262  0.3232 -0.0891
    72IDQ   C60 5268   4.107   4.360   5.437 -1.0495  0.2048  0.4820
    72IDQ   C61 5269   4.126   4.258   5.542 -0.9380 -0.2601  0.0967
    72IDQ   C62 5270   4.207   4.339   5.642  0.2910  1.1979  0.3654
    72IDQ   C63 5271   4.218   4.232   5.762  0.3848 -0.6772  0.1273
    72IDQ   C64 5272   4.337   4.252   5.844 -0.1381  0.0828  1.3093
    72IDQ   C65 5273   4.337   4.152   5.964 -0.0010 -0.2402  1.2442
    72IDQ   C66 5274   3.675   4.549   4.996  0.8974  0.8325 -0.3682
    72IDQ   C67 5275   3.705   4.663   4.892 -0.8780 -1.0459 -0.7946
    72IDQ   C68 5276   3.738   4.801   4.947  0.0403 -0.1608  0.1162
    72IDQ   C69 5277   3.660   4.879   5.061  0.2518  0.5083  0.5694
    72IDQ   C70 5278   3.518   4.859   5.099 -0.1944  0.2702  0.2174
    72IDQ   C71 5279   3.498   4.804   5.238  1.5551 -1.0738  0.6754
    72IDQ   C72 5280   3.558   4.883   5.360  0.1543  0.6986  1.1305
    11RH     C1 5281   3.257   0.424   2.461 -0.1160 -0.0307  0.3157
    11RH     C2 5282   3.404   0.406   2.464 -0.1134 -0.0693 -0.0468
    11RH     N1 5283   3.217   0.508   2.355 -0.3212  0.3017  0.6541
    11RH     S1 5284   3.481   0.500   2.326 -0.3809  0.3341  0.0813
    11RH     C3 5285   3.315   0.560   2.272 -0.4830  0.5342  0.6074
    11RH     C4 5286   3.093   0.563   2.355  1.1288  0.4348 -0.1195
    11RH     S2 5287   3.294   0.662   2.140 -0.7397  0.9435  0.9599
    11RH     O1 5288   3.176   0.373   2.541  0.0396 -0.2571  0.3289
    11RH     C5 5289   3.467   0.330   2.554  0.0609 -0.3592 -0.4073
    21BTZ    C6 5290   3.599   0.294   2.593 -0.2060  0.4108  0.3592
    21BTZ    C7 5291   3.712   0.337   2.529 -0.1652  0.2587  0.3284
    21BTZ    C8 5292   3.613   0.217   2.713 -0.2720  0.1320  0.1876
    21BTZ    C9 5293   3.844   0.307   2.579 -0.1872 -0.1720  0.1290
    21BTZ   C10 5294   3.862   0.233   2.694 -0.2497 -0.4499 -0.0394
    21BTZ   C11 5295   3.746   0.186   2.764 -0.2943 -0.3057 -0.0150
    21BTZ    N2 5296   3.510   0.169   2.784 -0.3161  0.2432  0.1982
    21BTZ    N3 5297   3.751   0.113   2.876 -0.3564 -0.5464 -0.1675
    21BTZ    S3 5298   3.581   0.081   2.922 -0.3896 -0.2166 -0.0558
    31IDT   C12 5299   4.003   0.202   2.728  0.0634  0.6388  0.3552
    31IDT   C13 5300   4.059   0.179   2.851  0.0603  0.1309  0.2631
    31IDT   C14 5301   4.202   0.165   2.846  0.0007 -0.4696  0.1258
    31IDT   C15 5302   4.255   0.178   2.719 -0.0424 -0.4236  0.1123
    31IDT    S4 5303   4.127   0.208   2.596 -0.0105  0.3913  0.2739
    4IDB    C16 5304   4.398   0.131   2.722  0.3521 -0.5611 -0.9373
    4IDB    C17 5305   4.434   0.118   2.860  0.0625 -0.4556 -0.8506
    51IDQ   C18 5306   4.311   0.122   2.949  0.3770 -0.6356 -0.2259
    4IDB    C19 5307   4.560   0.072   2.896  0.1177 -0.0732 -0.5500
    51IDQ   C20 5308   4.293  -0.021   3.015  0.8293  0.2654 -1.0914
    51IDQ   C21 5309   4.327   0.229   3.072 -0.5583 -0.1046  0.8842
    51IDQ   C22 5310   4.377   0.352   3.026 -1.5249 -0.5228 -0.7680
    51IDQ   C23 5311   4.218  -0.137   2.941 -1.6439 -0.0306 -0.2598
    51IDQ   C24 5312   4.513   0.392   3.081 -0.3209  0.7794  0.0458
    51IDQ   C25 5313   4.574   0.518   3.015 -0.6997  0.5507  1.0399
    51IDQ   C26 5314   4.541   0.548   2.867 -0.2833 -0.1834 -0.4088
    51IDQ   C27 5315   4.589   0.665   2.785  0.9824 -0.4048  0.0810
    51IDQ   C28 5316   4.579   0.646   2.631 -1.5404  0.5076 -0.4321
    51IDQ   C29 5317   4.665   0.729   2.556  1.1594 -0.2696 -0.7201
    51IDQ   C30 5318   4.237  -0.241   3.047 -0.3206  1.5270 -0.3719
    51IDQ   C31 5319   4.132  -0.356   3.085 -0.2654  0.7942 -1.0238
    51IDQ   C32 5320   4.011  -0.277   3.141  0.2469 -0.7325 -0.6262
    51IDQ   C33 5321   3.882  -0.363   3.196 -1.2522 -0.4018  0.9745
    51IDQ   C34 5322   3.781  -0.291   3.269 -0.3036 -0.2706  0.6288
    51IDQ   C35 5323   3.700  -0.201   3.179 -1.3693  0.2697 -1.0174
    4IDB    C36 5324   4.488   0.098   2.620  0.7010 -0.2828 -0.7225
    4IDB    C37 5325   4.616   0.051   2.659  0.7522  0.1066 -0.4165
    11RH    C38 5326   3.092   0.701   2.415 -0.9179  0.8768  0.9506
    4IDB    C39 5327   4.650   0.038   2.794  0.4665  0.2051 -0.3352
    62IDT   C40 5328   4.778  -0.018   2.810  0.0094  0.0225 -0.0046
    72IDQ   C41 5329   4.724  -0.011   2.579  0.2439  0.1423 -0.4156
    62IDT   C42 5330   4.839  -0.035   2.687 -0.4005 -0.5720 -0.1335
    72IDQ   C43 5331   4.769   0.059   2.448  0.0482 -0.1153 -0.5468
    72IDQ   C44 5332   4.706  -0.166   2.534 -0.0014  0.1773 -0.0224
    62IDT    S5 5333   4.885  -0.067   2.946  0.2836  0.2068 -0.1529
    62IDT   C45 5334   5.013  -0.109   2.824 -0.1935 -0.5670 -0.3932
    62IDT   C46 5335   4.972  -0.086   2.695 -0.5159 -0.9060 -0.3535
    82BTZ   C47 5336   5.135  -0.201   2.868 -0.2708 -0.7552 -0.8326
    82BTZ   C48 5337   5.127  -0.257   2.993 -0.3295 -0.6247 -0.7774
    82BTZ   C49 5338   5.241  -0.320   3.056 -0.3073 -0.3824 -0.5745
    82BTZ   C50 5339   5.363  -0.326   2.994 -0.2267 -0.2705 -0.4274
    82BTZ   C51 5340   5.261  -0.205   2.799 -0.1853 -0.6461 -0.6837
    82BTZ   C52 5341   5.377  -0.269   2.863 -0.1628 -0.3996 -0.4776
    92RH    C53 5342   5.486  -0.378   3.044 -0.2398 -0.9274 -0.3986
    82BTZ    N4 5343   5.281  -0.154   2.678 -0.1225 -0.7551 -0.7192
    82BTZ    N5 5344   5.490  -0.268   2.793 -0.0820 -0.3107 -0.3474
    82BTZ    S6 5345   5.453  -0.185   2.639 -0.0301 -0.5426 -0.4856
    92RH    C54 5346   5.528  -0.411   3.167 -0.1171 -0.7982 -0.4058
    92RH     S7 5347   5.424  -0.431   3.317  0.1009 -0.1004 -0.1572
    92RH    C55 5348   5.670  -0.437   3.200 -0.1409 -1.2174 -0.6242
    92RH     O2 5349   5.766  -0.432   3.121 -0.2742 -1.7273 -0.8225
    92RH     N6 5350   5.686  -0.470   3.337  0.0092 -0.9661 -0.5804
    92RH    C56 5351   5.574  -0.473   3.417  0.1504 -0.3963 -0.3538
    92RH    C57 5352   5.814  -0.521   3.380 -0.6218  0.0199  0.2085
    92RH    C58 5353   5.911  -0.413   3.420 -0.5315  0.9478  0.0834
    92RH     S8 5354   5.565  -0.509   3.581  0.3431  0.0029 -0.2556
    72IDQ   C59 5355   4.566  -0.209   2.482 -0.7946 -1.0296  2.0659
    72IDQ   C60 5356   4.613  -0.248   2.343  0.5028 -0.1181  1.3353
    72IDQ   C61 5357   4.504  -0.319   2.287  1.1373 -0.1702 -0.0207
    72IDQ   C62 5358   4.533  -0.386   2.162  0.6133  0.2599  1.3910
    72IDQ   C63 5359   4.639  -0.349   2.057  0.7559  0.1835  0.0282
    72IDQ   C64 5360   4.666  -0.210   2.022 -0.6940 -1.7377  0.0093
    72IDQ   C65 5361   4.547  -0.124   1.960 -0.0139  0.3331  0.3661
    72IDQ   C66 5362   4.871   0.176   2.471 -0.3161  0.2173  0.8495
    72IDQ   C67 5363   5.021   0.153   2.428 -0.8021 -0.3525  0.1966
    72IDQ   C68 5364   5.068   0.199   2.289 -0.3283 -0.2840 -0.1216
    72IDQ   C69 5365   5.079   0.124   2.162 -0.3833 -0.8426  0.6626
    72IDQ   C70 5366   5.161   0.002   2.151 -0.8808  1.0563 -0.0537
    72IDQ   C71 5367   5.251   0.003   2.028  0.4173 -0.9856  0.5006
    72IDQ   C72 5368   5.395   0.049   2.040  0.1462  0.3062 -0.4316
    11RH     C1 5369   1.553   5.997   3.348  0.2633  0.3343  0.4219
    11RH     C2 5370   1.481   6.088   3.256  0.3179  0.0949  0.1411
    11RH     N1 5371   1.480   5.975   3.467  0.1562  0.5811  0.4012
    11RH     S1 5372   1.321   6.139   3.332  0.2247  0.2093 -0.1315
    11RH     C3 5373   1.358   6.038   3.481  0.1182  0.5684  0.1383
    11RH     C4 5374   1.546   5.916   3.576 -0.7956  2.0674  1.3018
    11RH     S2 5375   1.252   6.029   3.612 -0.0054  0.8307  0.0564
    11RH     O1 5376   1.663   5.945   3.326  0.3046  0.3259  0.6497
    11RH     C5 5377   1.528   6.124   3.136  0.4200 -0.1630  0.1020
    21BTZ    C6 5378   1.482   6.227   3.037 -0.0097  0.0661  0.2574
    21BTZ    C7 5379   1.375   6.301   3.080  0.0647  0.1256  0.3434
    21BTZ    C8 5380   1.557   6.274   2.924 -0.1053 -0.0024  0.1655
    21BTZ    C9 5381   1.335   6.423   3.014  0.0493  0.1209  0.3434
    21BTZ   C10 5382   1.404   6.472   2.906 -0.0407  0.0565  0.2574
    21BTZ   C11 5383   1.517   6.398   2.857 -0.1210 -0.0074  0.1655
    21BTZ    N2 5384   1.663   6.212   2.873 -0.1836 -0.0644  0.0770
    21BTZ    N3 5385   1.591   6.436   2.753 -0.2120 -0.0734  0.0770
    21BTZ    S3 5386   1.718   6.311   2.735 -0.2828 -0.1332 -0.0121
    31IDT   C12 5387   1.352   6.596   2.847  0.4174  0.1423  0.6938
    31IDT   C13 5388   1.418   6.654   2.742  0.3585  0.1037  0.6363
    31IDT   C14 5389   1.346   6.763   2.685  0.0480 -0.2902  0.2609
    31IDT   C15 5390   1.226   6.790   2.746 -0.1313 -0.5547  0.0303
    31IDT    S4 5391   1.194   6.678   2.883  0.0810 -0.3226  0.2727
    4IDB    C16 5392   1.151   6.880   2.662  0.6667  0.6359  0.4346
    4IDB    C17 5393   1.216   6.906   2.537  0.8205  0.8905  0.5677
    51IDQ   C18 5394   1.350   6.831   2.548 -1.0795 -1.9404 -0.2062
    4IDB    C19 5395   1.148   6.970   2.434  0.5794  0.0673  0.2087
    51IDQ   C20 5396   1.326   6.734   2.425  0.2574  0.9340 -0.2838
    51IDQ   C21 5397   1.478   6.918   2.519  0.2053  0.6838 -0.4047
    51IDQ   C22 5398   1.609   6.836   2.488  0.1789  0.4210 -0.3352
    51IDQ   C23 5399   1.307   6.578   2.422  0.0666  0.4697  1.2265
    51IDQ   C24 5400   1.749   6.888   2.458  0.2758 -0.3675 -0.1673
    51IDQ   C25 5401   1.819   6.748   2.440 -1.5635 -1.4776 -0.3683
    51IDQ   C26 5402   1.969   6.781   2.435 -0.4247  1.4957  0.8034
    51IDQ   C27 5403   2.036   6.844   2.558 -0.4000  1.1566  0.7922
    51IDQ   C28 5404   2.116   6.958   2.503 -0.9636  0.0260 -0.2914
    51IDQ   C29 5405   2.163   7.066   2.593  0.6537 -0.8970 -0.6869
    51IDQ   C30 5406   1.383   6.484   2.337 -1.0477  0.5193 -0.3255
    51IDQ   C31 5407   1.411   6.532   2.193  0.1514  0.7688 -0.0539
    51IDQ   C32 5408   1.494   6.428   2.130 -1.1257 -0.9553 -0.1016
    51IDQ   C33 5409   1.635   6.425   2.182 -0.7651  1.0657 -0.5519
    51IDQ   C34 5410   1.705   6.285   2.223  1.2236  1.3200  0.9781
    51IDQ   C35 5411   1.689   6.213   2.349  0.1346  0.1663  1.0570
    4IDB    C36 5412   1.018   6.917   2.684  0.2686 -0.4506 -0.0613
    4IDB    C37 5413   0.950   6.982   2.578  0.0268 -1.2815 -0.4230
    11RH    C38 5414   1.520   5.766   3.565 -1.3181 -0.0682  0.3532
    4IDB    C39 5415   1.014   7.007   2.456  0.1813 -1.0198 -0.2872
    62IDT   C40 5416   0.934   7.089   2.374 -0.5071 -0.6442 -0.3607
    72IDQ   C41 5417   0.812   7.054   2.580 -0.1837 -0.7254  0.0676
    62IDT   C42 5418   0.821   7.129   2.441 -0.7832 -0.9260 -0.6503
    72IDQ   C43 5419   0.816   7.166   2.712  1.9906  0.3215  0.6747
    72IDQ   C44 5420   0.710   6.945   2.584  0.4443  0.4713  1.2662
    62IDT    S5 5421   0.950   7.170   2.214 -0.0955 -0.3172 -0.1563
    62IDT   C45 5422   0.795   7.259   2.249 -0.3298 -0.5922 -0.4891
    62IDT   C46 5423   0.742   7.225   2.371 -0.6834 -0.8970 -0.7234
    82BTZ   C47 5424   0.748   7.372   2.165  0.3319  0.1756 -0.7685
    82BTZ   C48 5425   0.840   7.432   2.083  0.2647  0.2946 -0.7565
    82BTZ   C49 5426   0.799   7.521   1.977  0.1830  0.5302 -0.5293
    82BTZ   C50 5427   0.668   7.550   1.953  0.1687  0.6465 -0.3144
    82BTZ   C51 5428   0.609   7.399   2.144  0.3200  0.2899 -0.5482
    82BTZ   C52 5429   0.568   7.489   2.036  0.2370  0.5294 -0.3173
    92RH    C53 5430   0.619   7.619   1.838  0.1343 -0.4524 -0.3272
    82BTZ    N4 5431   0.510   7.346   2.217  0.3806  0.1923 -0.5366
    82BTZ    N5 5432   0.436   7.509   2.022  0.2309  0.6243 -0.1202
    82BTZ    S6 5433   0.358   7.411   2.150  0.3331  0.4069 -0.2235
    92RH    C54 5434   0.674   7.667   1.725 -0.0215 -0.2445 -0.3145
    92RH     S7 5435   0.852   7.671   1.683 -0.0725 -0.0775 -0.5133
    92RH    C55 5436   0.594   7.726   1.615 -0.1819 -0.1139 -0.1309
    92RH     O2 5437   0.471   7.738   1.613 -0.1910 -0.1798  0.0299
    92RH     N6 5438   0.677   7.769   1.509 -0.3273  0.1001 -0.1597
    92RH    C56 5439   0.813   7.751   1.521 -0.3031  0.1568 -0.3439
    92RH    C57 5440   0.617   7.813   1.373 -0.0467  1.3709  0.0611
    92RH    C58 5441   0.615   7.687   1.278  0.1991  0.2398  0.0580
    92RH     S8 5442   0.933   7.793   1.410 -0.4538  0.3992 -0.4167
    72IDQ   C59 5443   0.621   6.912   2.454 -0.4048  0.8132 -0.3415
    72IDQ   C60 5444   0.493   6.863   2.508  1.0571  0.9142 -0.5136
    72IDQ   C61 5445   0.380   6.944   2.443 -0.0090 -0.2719 -0.7945
    72IDQ   C62 5446   0.267   6.846   2.408 -0.8102  0.1078  0.8686
    72IDQ   C63 5447   0.263   6.826   2.249  0.9399  1.4711  0.0994
    72IDQ   C64 5448   0.142   6.747   2.213  0.4679 -0.5743 -0.3123
    72IDQ   C65 5449   0.101   6.716   2.064  0.8809  0.1702 -1.4575
    72IDQ   C66 5450   0.762   7.144   2.855 -0.5645 -0.8555 -1.1354
    72IDQ   C67 5451   0.807   7.013   2.915 -0.9344 -1.0092  0.3828
    72IDQ   C68 5452   0.878   7.026   3.049 -0.1841 -0.7712  0.0904
    72IDQ   C69 5453   0.937   6.893   3.104 -0.2918  1.5886  0.0260
    72IDQ   C70 5454   1.050   6.907   3.202  0.5137 -0.3488 -0.1949
    72IDQ   C71 5455   1.019   6.999   3.321  0.5884  0.5131 -0.7704
    72IDQ   C72 5456   0.930   6.921   3.419 -0.5427  0.1822 -0.5458
    11RH     C1 5457   6.025   4.509   4.718 -1.0054 -0.2229  0.1287
    11RH     C2 5458   5.913   4.581   4.653 -0.7734 -0.2196 -0.2792
    11RH     N1 5459   6.142   4.516   4.639 -0.7607 -0.3541  0.4787
    11RH     S1 5460   5.968   4.653   4.494 -0.2490 -0.3889 -0.1763
    11RH     C3 5461   6.137   4.585   4.520 -0.3614 -0.4563  0.4010
    11RH     C4 5462   6.258   4.431   4.673  0.0337  0.0058 -0.0191
    11RH     S2 5463   6.262   4.608   4.408 -0.0083 -0.6204  0.7584
    11RH     O1 5464   6.021   4.449   4.826 -1.3683 -0.1245  0.1678
    11RH     C5 5465   5.790   4.589   4.707 -0.9343 -0.1075 -0.6583
    21BTZ    C6 5466   5.667   4.672   4.686 -0.0764  0.1350 -0.1213
    21BTZ    C7 5467   5.661   4.778   4.599 -0.3314 -0.0980 -0.3941
    21BTZ    C8 5468   5.544   4.617   4.735  0.0544 -0.0443  0.0076
    21BTZ    C9 5469   5.536   4.835   4.557 -0.4704 -0.5162 -0.5531
    21BTZ   C10 5470   5.416   4.786   4.601 -0.3533 -0.7008 -0.4389
    21BTZ   C11 5471   5.416   4.675   4.692 -0.0863 -0.4697 -0.1540
    21BTZ    N2 5472   5.536   4.514   4.819  0.3028  0.1514  0.2713
    21BTZ    N3 5473   5.306   4.618   4.742  0.0486 -0.6156 -0.0203
    21BTZ    S3 5474   5.361   4.486   4.848  0.3681 -0.2068  0.3258
    31IDT   C12 5475   5.294   4.845   4.539  0.0184  0.0688 -0.8010
    31IDT   C13 5476   5.197   4.774   4.472  0.3190  0.1996 -1.3876
    31IDT   C14 5477   5.120   4.855   4.383  0.5383  0.4358 -1.3638
    31IDT   C15 5478   5.157   4.987   4.381  0.4070  0.4862 -0.7604
    31IDT    S4 5479   5.294   5.021   4.492 -0.0092  0.2369 -0.1703
    4IDB    C16 5480   5.078   5.047   4.292  0.2540  0.0864  0.6206
    4IDB    C17 5481   4.970   4.959   4.261  0.3824  0.0348  0.3221
    51IDQ   C18 5482   4.996   4.821   4.313 -0.8204  0.5898  0.5613
    4IDB    C19 5483   4.858   5.005   4.192  0.4740  0.0211  0.1635
    51IDQ   C20 5484   4.884   4.764   4.404 -0.4347 -0.9095 -0.1102
    51IDQ   C21 5485   5.045   4.731   4.193  0.0243  0.1589 -1.3217
    51IDQ   C22 5486   5.035   4.758   4.040 -1.0015 -0.3466 -0.5818
    51IDQ   C23 5487   4.902   4.705   4.550  0.1276 -0.1719 -0.2956
    51IDQ   C24 5488   5.040   4.642   3.947 -1.2946 -0.1024 -1.6032
    51IDQ   C25 5489   4.949   4.531   3.967  0.5785  0.3025  0.9116
    51IDQ   C26 5490   4.959   4.447   3.837  0.0099 -1.5982  0.3209
    51IDQ   C27 5491   4.910   4.310   3.842 -0.2511  0.7576 -0.0142
    51IDQ   C28 5492   4.747   4.287   3.832 -2.6252  0.0837 -0.1034
    51IDQ   C29 5493   4.695   4.300   3.977 -0.6486  0.4267  1.2162
    51IDQ   C30 5494   4.871   4.554   4.560  0.0768 -1.5220 -1.0532
    51IDQ   C31 5495   4.970   4.433   4.596  0.1686  0.3430  0.0942
    51IDQ   C32 5496   4.891   4.330   4.678 -0.6049 -1.4101 -0.7319
    51IDQ   C33 5497   4.782   4.260   4.608 -0.3566 -0.7804 -0.8959
    51IDQ   C34 5498   4.786   4.228   4.460  0.6892 -0.4696  0.4031
    51IDQ   C35 5499   4.675   4.283   4.375  0.3245  0.1390 -0.3474
    4IDB    C36 5500   5.075   5.182   4.255  0.2158  0.1245  0.7627
    4IDB    C37 5501   4.960   5.228   4.185  0.3102  0.1094  0.5970
    11RH    C38 5502   6.326   4.473   4.794 -0.4809  1.2673 -0.3735
    4IDB    C39 5503   4.855   5.141   4.155  0.4356  0.0589  0.3060
    62IDT   C40 5504   4.767   5.207   4.065 -0.7784 -0.2606  1.2242
    72IDQ   C41 5505   4.938   5.362   4.124 -0.4758 -0.3490 -0.1147
    62IDT   C42 5506   4.813   5.333   4.035 -1.0512  0.0918  2.2521
    72IDQ   C43 5507   5.056   5.401   4.030 -1.4031 -1.4869  0.6495
    72IDQ   C44 5508   4.903   5.487   4.221  0.5452  0.8088  0.8444
    62IDT    S5 5509   4.607   5.174   3.988 -0.0654 -0.5119 -0.1855
    62IDT   C45 5510   4.612   5.341   3.917 -0.1790 -0.1073  0.7346
    62IDT   C46 5511   4.726   5.409   3.951 -0.7129  0.1793  1.9768
    82BTZ   C47 5512   4.492   5.382   3.818  0.4673  0.0893 -0.1466
    82BTZ   C48 5513   4.404   5.289   3.772  0.5755  0.0019 -0.1765
    82BTZ   C49 5514   4.292   5.325   3.687  0.6437 -0.1259 -0.3223
    82BTZ   C50 5515   4.270   5.455   3.650  0.6031 -0.1659 -0.4379
    82BTZ   C51 5516   4.473   5.520   3.782  0.4210  0.0522 -0.2639
    82BTZ   C52 5517   4.359   5.557   3.697  0.4902 -0.0777 -0.4121
    92RH    C53 5518   4.140   5.495   3.596 -0.2818  0.2663 -0.7968
    82BTZ    N4 5519   4.552   5.620   3.822  0.3169  0.1290 -0.2482
    82BTZ    N5 5520   4.348   5.687   3.668  0.4418 -0.1056 -0.5157
    82BTZ    S6 5521   4.484   5.769   3.750  0.3027  0.0363 -0.4264
    92RH    C54 5522   4.027   5.427   3.571 -0.3786  0.2470 -0.3135
    92RH     S7 5523   3.986   5.258   3.628 -0.3656  0.4770  0.3839
    92RH    C55 5524   3.915   5.482   3.490 -0.5164  0.0288 -0.2702
    92RH     O2 5525   3.912   5.594   3.437 -0.5575 -0.1583 -0.6675
    92RH     N6 5526   3.809   5.389   3.480 -0.5980  0.0586  0.2890
    92RH    C56 5527   3.823   5.267   3.543 -0.5426  0.2739  0.6990
    92RH    C57 5528   3.723   5.395   3.361  1.4651 -1.0700  0.6101
    92RH    C58 5529   3.774   5.309   3.240 -0.0862  0.0335  0.3506
    92RH     S8 5530   3.712   5.140   3.547 -0.6174  0.3543  1.3920
    72IDQ   C59 5531   4.813   5.445   4.333  0.2778 -0.0709 -0.0147
    72IDQ   C60 5532   4.752   5.546   4.422  0.0431 -0.8124 -0.7448
    72IDQ   C61 5533   4.842   5.617   4.525 -0.2649 -0.1724  0.2818
    72IDQ   C62 5534   4.811   5.554   4.662 -0.3416 -0.1434 -0.0210
    72IDQ   C63 5535   4.881   5.617   4.791 -0.0330  0.1004 -0.5296
    72IDQ   C64 5536   5.028   5.632   4.808  0.5444  0.2768 -0.0663
    72IDQ   C65 5537   5.034   5.745   4.917  0.9016 -0.5041 -0.4875
    72IDQ   C66 5538   5.172   5.325   3.974  0.5070  0.7492  0.0340
    72IDQ   C67 5539   5.157   5.219   3.871  1.5521  0.5880  0.7223
    72IDQ   C68 5540   5.281   5.140   3.862  0.5278 -0.6226  0.3804
    72IDQ   C69 5541   5.333   5.031   3.774  0.2145 -0.1326  0.4812
    72IDQ   C70 5542   5.239   4.996   3.664  0.1436 -0.4845 -0.2642
    72IDQ   C71 5543   5.257   4.872   3.580 -1.1540  0.1690  0.3794
    72IDQ   C72 5544   5.391   4.872   3.515  2.0641 -0.2388 -0.6043
    11RH     C1 5545   0.418   6.996   1.857  0.3003  0.5951 -0.3034
    11RH     C2 5546   0.283   6.993   1.797  0.2409  0.3075 -0.1606
    11RH     N1 5547   0.518   6.976   1.760  0.1982 -0.0162 -0.2909
    11RH     S1 5548   0.296   6.965   1.616  0.0549 -0.7479 -0.0189
    11RH     C3 5549   0.480   6.958   1.629  0.0645 -0.7584 -0.1552
    11RH     C4 5550   0.656   6.960   1.814  0.2189 -1.5735  0.2835
    11RH     S2 5551   0.579   6.934   1.495 -0.0753 -1.5826 -0.1110
    11RH     O1 5552   0.443   7.013   1.978  0.4235  1.2817 -0.4211
    11RH     C5 5553   0.170   7.009   1.867  0.3155  0.7682 -0.1425
    21BTZ    C6 5554   0.031   7.028   1.808 -0.1250 -0.5934 -0.1999
    21BTZ    C7 5555  -0.003   7.039   1.676 -0.1997 -0.2264 -0.1515
    21BTZ    C8 5556  -0.074   7.008   1.904 -0.1297 -0.2787 -0.1369
    21BTZ    C9 5557  -0.140   7.031   1.631 -0.2823  0.4636 -0.0396
    21BTZ   C10 5558  -0.243   7.011   1.719 -0.2902  0.7855  0.0238
    21BTZ   C11 5559  -0.213   6.999   1.859 -0.2139  0.4226 -0.0231
    21BTZ    N2 5560  -0.054   6.996   2.035 -0.0613 -0.5837 -0.1750
    21BTZ    N3 5561  -0.305   6.980   1.954 -0.2134  0.6813  0.0303
    21BTZ    S3 5562  -0.215   6.972   2.108 -0.1027  0.0255 -0.0646
    31IDT   C12 5563  -0.375   7.012   1.658 -0.9531  1.4328 -1.1780
    31IDT   C13 5564  -0.492   7.067   1.703 -1.1473  1.3499 -1.5724
    31IDT   C14 5565  -0.606   7.028   1.626 -1.1046 -0.0851 -0.9465
    31IDT   C15 5566  -0.576   6.943   1.521 -0.8794 -1.1026 -0.0729
    31IDT    S4 5567  -0.401   6.906   1.513 -0.7010 -0.3155  0.0257
    4IDB    C16 5568  -0.696   6.900   1.462 -0.4571  0.1055  0.0795
    4IDB    C17 5569  -0.804   6.953   1.539 -0.2878 -0.4714  0.7296
    51IDQ   C18 5570  -0.754   7.056   1.642  0.0607  0.8113  0.4019
    4IDB    C19 5571  -0.931   6.899   1.530 -0.2057 -0.7032  0.9616
    51IDQ   C20 5572  -0.805   7.197   1.598 -0.2723 -0.0229  0.6710
    51IDQ   C21 5573  -0.784   7.030   1.795 -0.1153 -0.1674 -1.1715
    51IDQ   C22 5574  -0.825   6.889   1.872  0.3421 -0.0584  0.4980
    51IDQ   C23 5575  -0.707   7.290   1.507 -0.7250  0.7799  0.5266
    51IDQ   C24 5576  -0.978   6.893   1.922 -1.2968  0.1480  0.0105
    51IDQ   C25 5577  -1.092   6.915   1.832 -0.8272 -0.3044  0.3146
    51IDQ   C26 5578  -1.242   6.946   1.874 -0.4013  0.5555  2.0350
    51IDQ   C27 5579  -1.318   6.826   1.939 -0.4440 -0.0481 -0.1395
    51IDQ   C28 5580  -1.365   6.715   1.849  0.3647  0.9918  0.0305
    51IDQ   C29 5581  -1.524   6.715   1.824 -1.1215 -1.2258 -1.5634
    51IDQ   C30 5582  -0.792   7.413   1.478 -0.1445  0.9553 -0.1876
    51IDQ   C31 5583  -0.934   7.419   1.431  0.4995  1.1213  0.6845
    51IDQ   C32 5584  -0.965   7.568   1.416  0.5369  1.4078  0.7021
    51IDQ   C33 5585  -1.095   7.602   1.335 -1.0204 -0.1455  0.2666
    51IDQ   C34 5586  -1.095   7.740   1.265 -0.1583  0.3590 -0.6181
    51IDQ   C35 5587  -1.211   7.763   1.171 -0.9079 -0.2412  0.2231
    4IDB    C36 5588  -0.715   6.791   1.376 -0.5455  0.4554 -0.3448
    4IDB    C37 5589  -0.846   6.737   1.368 -0.4592  0.2108 -0.0993
    11RH    C38 5590   0.743   7.068   1.866 -0.0018 -0.0850 -0.6678
    4IDB    C39 5591  -0.950   6.790   1.444 -0.2944 -0.3537  0.5372
    62IDT   C40 5592  -1.059   6.698   1.453 -0.2035  1.2824  0.5129
    72IDQ   C41 5593  -0.902   6.626   1.285  0.0266  1.0868  0.5433
    62IDT   C42 5594  -1.039   6.608   1.350  0.6917  1.1940  0.7644
    72IDQ   C43 5595  -0.816   6.489   1.295  0.2634  0.0052 -0.9171
    72IDQ   C44 5596  -0.928   6.668   1.133  0.3250  0.0567 -0.4921
    62IDT    S5 5597  -1.221   6.678   1.528 -0.2115  0.2270  0.2261
    62IDT   C45 5598  -1.254   6.542   1.411  1.0576 -0.3040  0.4734
    62IDT   C46 5599  -1.148   6.520   1.327  1.4060  0.2971  0.7426
    82BTZ   C47 5600  -1.391   6.485   1.419  0.3147 -0.2944 -0.1115
    82BTZ   C48 5601  -1.464   6.492   1.534  0.3338 -0.0987 -0.1107
    82BTZ   C49 5602  -1.598   6.440   1.542  0.2527  0.1144 -0.0639
    82BTZ   C50 5603  -1.659   6.381   1.434  0.1528  0.1324 -0.0178
    82BTZ   C51 5604  -1.450   6.424   1.303  0.2110 -0.2842 -0.0641
    82BTZ   C52 5605  -1.586   6.371   1.311  0.1287 -0.0672 -0.0165
    92RH    C53 5606  -1.792   6.317   1.439 -0.4349 -0.3027 -0.2662
    82BTZ    N4 5607  -1.388   6.412   1.185  0.1829 -0.4628 -0.0599
    82BTZ    N5 5608  -1.634   6.316   1.199  0.0346 -0.0715  0.0260
    82BTZ    S6 5609  -1.504   6.329   1.077  0.0473 -0.3588  0.0066
    92RH    C54 5610  -1.876   6.308   1.543 -0.2308 -0.2391 -0.0944
    92RH     S7 5611  -1.842   6.358   1.716  0.0517  0.0291 -0.2245
    92RH    C55 5612  -2.014   6.254   1.532 -0.2019 -0.3819  0.2392
    92RH     O2 5613  -2.067   6.212   1.428 -0.3600 -0.5736  0.3961
    92RH     N6 5614  -2.080   6.256   1.657  0.0319 -0.2726  0.3621
    92RH    C56 5615  -2.012   6.305   1.766  0.1941 -0.0598  0.1678
    92RH    C57 5616  -2.204   6.183   1.691 -0.3798  0.0674  0.8981
    92RH    C58 5617  -2.326   6.262   1.671  1.4381 -0.0154 -0.2270
    92RH     S8 5618  -2.067   6.318   1.925  0.4811  0.1054  0.2558
    72IDQ   C59 5619  -0.834   6.709   1.018 -1.0076  0.1041  0.1790
    72IDQ   C60 5620  -0.807   6.857   0.999  0.3371 -1.5158 -0.3397
    72IDQ   C61 5621  -0.656   6.891   1.023 -0.6617  0.5182 -0.6872
    72IDQ   C62 5622  -0.617   7.004   1.113  0.2832  0.3909 -0.5799
    72IDQ   C63 5623  -0.472   7.014   1.131 -0.0508  0.3946  0.2019
    72IDQ   C64 5624  -0.429   7.138   1.221  0.8422 -0.1275  0.4479
    72IDQ   C65 5625  -0.296   7.134   1.274 -0.1530  0.2156  1.1264
    72IDQ   C66 5626  -0.766   6.435   1.434 -0.4761 -0.4281  0.4254
    72IDQ   C67 5627  -0.630   6.483   1.477  0.1427  0.0471  0.9811
    72IDQ   C68 5628  -0.597   6.431   1.616  0.3806 -1.0401 -0.4251
    72IDQ   C69 5629  -0.449   6.451   1.670 -0.1871 -1.4319  0.0801
    72IDQ   C70 5630  -0.415   6.590   1.727 -1.0621  0.2450  0.5674
    72IDQ   C71 5631  -0.523   6.646   1.834 -1.7712  0.7464 -0.4393
    72IDQ   C72 5632  -0.467   6.659   1.973  0.3979 -0.7276  0.2311
    11RH     C1 5633   2.986   1.859   5.676  0.3790  0.3594 -0.1988
    11RH     C2 5634   2.876   1.775   5.729  0.4307  0.3648 -0.0851
    11RH     N1 5635   2.935   1.973   5.609  0.3090  0.2274 -0.3730
    11RH     S1 5636   2.714   1.851   5.689  0.3834  0.1963 -0.2143
    11RH     C3 5637   2.798   1.990   5.603  0.2979  0.1266 -0.4127
    11RH     C4 5638   3.033   2.069   5.544 -0.8674  0.4259 -0.0212
    11RH     S2 5639   2.713   2.117   5.531  0.2202 -0.0378 -0.6077
    11RH     O1 5640   3.107   1.836   5.686  0.3942  0.4566 -0.1509
    11RH     C5 5641   2.897   1.661   5.797  0.5006  0.4780  0.0854
    21BTZ    C6 5642   2.796   1.564   5.861 -0.2641  0.2515  0.0773
    21BTZ    C7 5643   2.665   1.549   5.822 -0.2850  0.3477  0.1099
    21BTZ    C8 5644   2.845   1.482   5.968 -0.2301  0.0482 -0.0935
    21BTZ    C9 5645   2.578   1.454   5.885 -0.2742  0.2499 -0.0226
    21BTZ   C10 5646   2.620   1.373   5.987 -0.2419  0.0559 -0.1882
    21BTZ   C11 5647   2.756   1.385   6.032 -0.2190 -0.0513 -0.2284
    21BTZ    N2 5648   2.970   1.488   6.015 -0.2072 -0.0612 -0.1411
    21BTZ    N3 5649   2.809   1.312   6.131 -0.1870 -0.2405 -0.3846
    21BTZ    S3 5650   2.979   1.366   6.146 -0.1694 -0.3008 -0.3652
    31IDT   C12 5651   2.527   1.255   6.015  0.6352 -0.7254  0.8042
    31IDT   C13 5652   2.499   1.153   5.928  0.0581 -0.3535  0.5500
    31IDT   C14 5653   2.426   1.046   5.989 -0.7784  0.0150  0.2186
    31IDT   C15 5654   2.399   1.065   6.122 -0.8446 -0.0734  0.2181
    31IDT    S4 5655   2.463   1.222   6.182  0.1568 -0.6352  0.6409
    4IDB    C16 5656   2.322   0.966   6.184 -0.4853  0.1302 -0.3605
    4IDB    C17 5657   2.287   0.866   6.088 -0.0434 -0.3770  0.0026
    51IDQ   C18 5658   2.368   0.914   5.964  2.3754  0.1710 -0.2774
    4IDB    C19 5659   2.190   0.771   6.117  0.1644 -0.5181  0.2364
    51IDQ   C20 5660   2.457   0.787   5.929  0.0916 -0.5990 -0.4499
    51IDQ   C21 5661   2.292   0.914   5.822 -0.6036  0.4166 -0.2376
    51IDQ   C22 5662   2.146   0.889   5.786  0.8887  0.7622  0.3739
    51IDQ   C23 5663   2.614   0.788   5.950 -0.9114 -0.2808 -0.7307
    51IDQ   C24 5664   2.032   0.969   5.868 -1.2595 -0.9214  1.2126
    51IDQ   C25 5665   2.043   1.122   5.874 -0.0998  0.2502  1.3274
    51IDQ   C26 5666   1.921   1.172   5.946 -0.9980  0.8328  0.0202
    51IDQ   C27 5667   1.886   1.329   5.943 -0.3619 -0.0693  0.3869
    51IDQ   C28 5668   1.991   1.388   6.037  1.3967  0.0103  0.1956
    51IDQ   C29 5669   2.042   1.532   6.008  0.5866 -0.3677 -0.9918
    51IDQ   C30 5670   2.664   0.814   6.105 -0.6620  0.2550 -1.4569
    51IDQ   C31 5671   2.802   0.844   6.143  1.2395 -0.4995  1.0161
    51IDQ   C32 5672   2.902   0.750   6.083  1.6189  0.7459 -0.2013
    51IDQ   C33 5673   3.037   0.814   6.102 -0.3477  0.6454 -0.9226
    51IDQ   C34 5674   3.162   0.731   6.047  0.3715  0.3252  0.7146
    51IDQ   C35 5675   3.185   0.576   6.049 -0.6152  0.6776 -1.0023
    4IDB    C36 5676   2.260   0.972   6.310 -0.7232  0.5012 -0.4921
    4IDB    C37 5677   2.162   0.874   6.337 -0.5056  0.3501 -0.2489
    11RH    C38 5678   3.047   2.214   5.590 -1.2078 -0.8115 -0.9435
    4IDB    C39 5679   2.128   0.776   6.243 -0.0738 -0.1470  0.1048
    62IDT   C40 5680   2.017   0.694   6.303 -0.0798 -0.5695 -0.0662
    72IDQ   C41 5681   2.085   0.860   6.474 -0.6626 -0.9078  0.5542
    62IDT   C42 5682   1.983   0.754   6.422  0.4021 -0.2279 -0.1013
    72IDQ   C43 5683   1.991   0.990   6.511 -0.3253  0.5669 -0.1336
    72IDQ   C44 5684   2.186   0.842   6.602 -0.2109  0.7982 -0.2110
    62IDT    S5 5685   1.914   0.550   6.269 -0.4490 -0.4623  0.5889
    62IDT   C45 5686   1.827   0.581   6.426  0.0942  0.0643  0.7903
    62IDT   C46 5687   1.876   0.691   6.492  0.5013  0.1308  0.3827
    82BTZ   C47 5688   1.702   0.511   6.446  0.4887 -0.0607 -0.2810
    82BTZ   C48 5689   1.631   0.467   6.338  0.5121 -0.0496 -0.3011
    82BTZ   C49 5690   1.514   0.384   6.353  0.5903 -0.1660 -0.3424
    82BTZ   C50 5691   1.470   0.344   6.477  0.6450 -0.2933 -0.3635
    82BTZ   C51 5692   1.660   0.473   6.578  0.5438 -0.1918 -0.3016
    82BTZ   C52 5693   1.542   0.388   6.593  0.6234 -0.3101 -0.3436
    92RH    C53 5694   1.341   0.277   6.502 -0.2644 -0.2630 -0.1727
    82BTZ    N4 5695   1.721   0.509   6.690  0.5280 -0.2155 -0.2856
    82BTZ    N5 5696   1.508   0.356   6.718  0.6714 -0.4289 -0.3610
    82BTZ    S6 5697   1.629   0.435   6.824  0.6159 -0.3938 -0.3237
    92RH    C54 5698   1.240   0.235   6.425 -0.1734 -0.0891 -0.3874
    92RH     S7 5699   1.223   0.258   6.244  0.1007  0.2117 -0.3741
    92RH    C55 5700   1.123   0.160   6.477 -0.2855 -0.1154 -0.6778
    92RH     O2 5701   1.104   0.128   6.595 -0.4729 -0.2977 -0.7558
    92RH     N6 5702   1.032   0.128   6.373 -0.1515  0.0958 -0.8611
    92RH    C56 5703   1.062   0.168   6.245  0.0541  0.2881 -0.7529
    92RH    C57 5704   0.914   0.045   6.422  0.3038 -1.1483 -0.5597
    92RH    C58 5705   0.904  -0.100   6.359  0.0206  0.8215 -0.4468
    92RH     S8 5706   0.972   0.143   6.105  0.2443  0.5583 -0.9251
    72IDQ   C59 5707   2.237   0.705   6.646 -0.3909 -1.0415  1.1444
    72IDQ   C60 5708   2.309   0.616   6.549 -0.0032  0.5569 -1.5663
    72IDQ   C61 5709   2.374   0.505   6.619 -1.1378  0.2435 -0.6729
    72IDQ   C62 5710   2.429   0.502   6.761  0.2418  0.5430  0.1173
    72IDQ   C63 5711   2.557   0.576   6.761  0.7354 -1.1397 -1.5332
    72IDQ   C64 5712   2.610   0.610   6.903  0.6801 -0.4678  0.5244
    72IDQ   C65 5713   2.762   0.624   6.916  0.3345 -0.7961 -0.3102
    72IDQ   C66 5714   1.951   1.086   6.395  0.3001  0.6119 -1.9752
    72IDQ   C67 5715   1.854   1.209   6.429 -0.0382  0.5185  0.7073
    72IDQ   C68 5716   1.821   1.301   6.324 -0.0012 -0.7022  1.0052
    72IDQ   C69 5717   1.709   1.387   6.375  1.0631 -0.9999  0.4176
    72IDQ   C70 5718   1.760   1.511   6.461  0.1240  0.2059  0.2658
    72IDQ   C71 5719   1.675   1.535   6.591 -0.5479  0.8873  0.8292
    72IDQ   C72 5720   1.763   1.524   6.723  0.6344 -0.0343  0.6999
    11RH     C1 5721   1.088   4.145   3.289 -0.3150  0.0553  0.0178
    11RH     C2 5722   1.030   4.240   3.191 -0.0738 -0.1280 -0.3024
    11RH     N1 5723   1.131   4.026   3.227 -0.2619 -0.1069  0.3619
    11RH     S1 5724   1.036   4.167   3.023  0.2071 -0.5013 -0.1300
    11RH     C3 5725   1.114   4.014   3.091 -0.0076 -0.3972  0.3566
    11RH     C4 5726   1.203   3.932   3.304 -0.3328  0.0906 -0.2969
    11RH     S2 5727   1.157   3.883   2.993  0.1070 -0.6371  0.7244
    11RH     O1 5728   1.098   4.166   3.411 -0.5378  0.3178 -0.0051
    11RH     C5 5729   0.982   4.361   3.224 -0.0701 -0.0277 -0.6592
    21BTZ    C6 5730   0.923   4.461   3.153  0.2282 -0.0248 -0.0334
    21BTZ    C7 5731   0.905   4.446   3.018  0.3933  0.0439 -0.0625
    21BTZ    C8 5732   0.882   4.583   3.214  0.1295 -0.0663 -0.0167
    21BTZ    C9 5733   0.847   4.550   2.937  0.4695  0.0758 -0.0767
    21BTZ   C10 5734   0.806   4.669   2.991  0.3804  0.0386 -0.0615
    21BTZ   C11 5735   0.822   4.689   3.132  0.2070 -0.0339 -0.0309
    21BTZ    N2 5736   0.893   4.610   3.345 -0.0324 -0.1340  0.0118
    21BTZ    N3 5737   0.786   4.801   3.196  0.1073 -0.0753 -0.0138
    21BTZ    S3 5738   0.828   4.774   3.368 -0.0941 -0.1598  0.0217
    31IDT   C12 5739   0.745   4.767   2.898  0.7191  0.1732 -0.5628
    31IDT   C13 5740   0.749   4.902   2.920  2.3098  0.2890 -1.4622
    31IDT   C14 5741   0.713   4.978   2.804  2.2359 -0.0844 -1.6873
    31IDT   C15 5742   0.681   4.901   2.694  0.5926 -0.4868 -0.9629
    31IDT    S4 5743   0.694   4.725   2.728 -1.0036 -0.4231  0.0700
    4IDB    C16 5744   0.609   4.990   2.597  0.3100 -0.3866 -0.0307
    4IDB    C17 5745   0.602   5.122   2.650  0.0216 -0.3617 -0.1334
    51IDQ   C18 5746   0.678   5.122   2.785  0.6686  0.1253 -0.2250
    4IDB    C19 5747   0.537   5.223   2.580 -0.4204 -0.6142 -0.0957
    51IDQ   C20 5748   0.806   5.202   2.783 -0.2768  0.2331  0.5280
    51IDQ   C21 5749   0.586   5.184   2.900 -1.4869  0.3657 -1.2355
    51IDQ   C22 5750   0.451   5.124   2.947 -1.2458 -0.4066 -0.7243
    51IDQ   C23 5751   0.928   5.161   2.707  0.4364 -0.1947 -0.9195
    51IDQ   C24 5752   0.391   5.204   3.063  1.7824 -0.2983  0.2427
    51IDQ   C25 5753   0.459   5.189   3.194  0.2089  0.2241 -0.3599
    51IDQ   C26 5754   0.421   5.300   3.295  0.2214 -0.3354  0.1221
    51IDQ   C27 5755   0.291   5.284   3.374  1.4918  0.9115  0.1645
    51IDQ   C28 5756   0.262   5.401   3.458 -1.6464  0.9502  0.8657
    51IDQ   C29 5757   0.159   5.409   3.561  0.3440  0.1352 -0.0303
    51IDQ   C30 5758   1.043   5.247   2.754 -0.2431 -1.2915  1.5412
    51IDQ   C31 5759   1.152   5.151   2.804  1.4715 -0.9104 -0.5320
    51IDQ   C32 5760   1.205   5.157   2.952 -0.4617 -1.2900  0.8157
    51IDQ   C33 5761   1.089   5.114   3.037 -0.1375 -0.3379 -0.6027
    51IDQ   C34 5762   1.122   5.088   3.179 -0.4874 -0.6663  1.1477
    51IDQ   C35 5763   1.184   4.967   3.245  0.0050  1.4948  0.3851
    4IDB    C36 5764   0.552   4.958   2.473  0.1568 -0.6664  0.1113
    4IDB    C37 5765   0.487   5.062   2.403 -0.2959 -0.9220  0.1479
    11RH    C38 5766   1.359   3.939   3.328  0.6282 -1.1741 -0.1031
    4IDB    C39 5767   0.480   5.191   2.456 -0.5736 -0.8935  0.0462
    62IDT   C40 5768   0.443   5.285   2.361 -0.3035  0.5706 -0.0451
    72IDQ   C41 5769   0.406   5.057   2.277  0.5774 -1.4969  0.1417
    62IDT   C42 5770   0.406   5.209   2.251 -0.4312  0.5460  0.0150
    72IDQ   C43 5771   0.263   5.017   2.301  0.4206 -0.2825  0.7002
    72IDQ   C44 5772   0.464   4.943   2.177  0.2320 -0.2914  1.4607
    62IDT    S5 5773   0.437   5.461   2.326 -0.5206  0.5687 -0.0238
    62IDT   C45 5774   0.383   5.421   2.157 -0.7855  0.5325  0.0701
    62IDT   C46 5775   0.372   5.286   2.136 -0.7038  0.5243  0.0803
    82BTZ   C47 5776   0.368   5.532   2.057  0.2556  0.5518  0.4379
    82BTZ   C48 5777   0.476   5.613   2.030  0.2708  0.4003  0.0317
    82BTZ   C49 5778   0.469   5.718   1.931  0.1888  0.1175 -0.2654
    82BTZ   C50 5779   0.355   5.742   1.859  0.0918 -0.0132 -0.1556
    82BTZ   C51 5780   0.247   5.553   1.984  0.1554  0.4237  0.5682
    82BTZ   C52 5781   0.240   5.660   1.884  0.0721  0.1364  0.2663
    92RH    C53 5782   0.343   5.838   1.766  0.0437 -0.2939 -0.3449
    82BTZ    N4 5783   0.135   5.481   2.001  0.1312  0.5498  0.9550
    82BTZ    N5 5784   0.123   5.673   1.820 -0.0191  0.0315  0.4105
    82BTZ    S6 5785   0.015   5.548   1.887 -0.0019  0.3011  0.9497
    92RH    C54 5786   0.424   5.938   1.729 -0.0908 -0.0999 -0.1232
    92RH     S7 5787   0.599   5.961   1.781 -0.0927 -0.0304 -0.1481
    92RH    C55 5788   0.384   6.047   1.638 -0.2645  0.0951  0.1867
    92RH     O2 5789   0.272   6.061   1.586 -0.3056  0.1020  0.2766
    92RH     N6 5790   0.490   6.138   1.617 -0.3816  0.2775  0.3741
    92RH    C56 5791   0.610   6.115   1.679 -0.3229  0.2527  0.2522
    92RH    C57 5792   0.461   6.261   1.535 -0.2589  0.9671 -1.0734
    92RH    C58 5793   0.421   6.386   1.609 -0.0101  0.4436 -0.1574
    92RH     S8 5794   0.751   6.207   1.670 -0.4351  0.4425  0.4256
    72IDQ   C59 5795   0.508   5.002   2.032  0.5077  0.4339 -0.6289
    72IDQ   C60 5796   0.533   4.907   1.924  0.7562  0.9184  0.1076
    72IDQ   C61 5797   0.411   4.895   1.822 -0.1925  0.8739 -0.1043
    72IDQ   C62 5798   0.429   4.799   1.700 -0.4561 -0.8086  1.0731
    72IDQ   C63 5799   0.508   4.677   1.722 -0.7473 -0.6894 -0.3107
    72IDQ   C64 5800   0.503   4.590   1.595  0.3855 -0.8345  0.3191
    72IDQ   C65 5801   0.578   4.456   1.596  1.2598  0.5116 -1.3475
    72IDQ   C66 5802   0.160   5.052   2.408 -0.7084 -0.1390 -0.3989
    72IDQ   C67 5803   0.025   4.979   2.382  1.4779 -0.6557 -0.1662
    72IDQ   C68 5804  -0.112   5.021   2.447 -0.2378  0.9548  0.3652
    72IDQ   C69 5805  -0.152   5.009   2.591  0.1267 -0.3160 -1.5560
    72IDQ   C70 5806  -0.179   5.144   2.660 -0.7081  0.6717  1.0311
    72IDQ   C71 5807  -0.213   5.166   2.800 -1.6694  1.0448 -0.6167
    72IDQ   C72 5808  -0.242   5.314   2.789 -0.2778 -0.3407  0.0318
    11RH     C1 5809   2.189   2.652   3.466  0.1237 -0.1875 -0.1757
    11RH     C2 5810   2.052   2.609   3.504  0.0676  0.1702  0.0329
    11RH     N1 5811   2.192   2.704   3.335  0.0983 -0.3814 -0.2531
    11RH     S1 5812   1.937   2.639   3.365 -0.0152  0.2282  0.1137
    11RH     C3 5813   2.075   2.707   3.263  0.0287 -0.2227 -0.1321
    11RH     C4 5814   2.303   2.796   3.301 -0.8216  0.3277  0.0350
    11RH     S2 5815   2.052   2.764   3.106 -0.0143 -0.3947 -0.1878
    11RH     O1 5816   2.289   2.645   3.539  0.1857 -0.3084 -0.2735
    11RH     C5 5817   2.022   2.556   3.623  0.0775  0.4071  0.1409
    21BTZ    C6 5818   1.898   2.494   3.674  0.6854 -0.4965 -0.5199
    21BTZ    C7 5819   1.780   2.500   3.606  0.6800 -0.3464 -0.4985
    21BTZ    C8 5820   1.909   2.407   3.787  0.5088 -0.3008 -0.3536
    21BTZ    C9 5821   1.666   2.421   3.645  0.5022  0.0008 -0.3138
    21BTZ   C10 5822   1.671   2.336   3.753  0.3299  0.1975 -0.1508
    21BTZ   C11 5823   1.793   2.327   3.828  0.3280  0.0522 -0.1658
    21BTZ    N2 5824   2.019   2.393   3.862  0.4956 -0.4184 -0.3563
    21BTZ    N3 5825   1.810   2.248   3.934  0.1695  0.2183 -0.0175
    21BTZ    S3 5826   1.978   2.274   3.989  0.2463 -0.0759 -0.1136
    31IDT   C12 5827   1.542   2.277   3.792  0.1348  0.8935  0.0388
    31IDT   C13 5828   1.514   2.176   3.880  0.7824  0.3134 -0.4106
    31IDT   C14 5829   1.376   2.139   3.880  1.1107 -0.9397 -0.9516
    31IDT   C15 5830   1.298   2.210   3.792  0.7165 -1.3224 -0.9182
    31IDT    S4 5831   1.394   2.333   3.701 -0.1085 -0.1143 -0.1924
    4IDB    C16 5832   1.152   2.171   3.810 -0.1403 -0.2184 -0.0639
    4IDB    C17 5833   1.148   2.053   3.891 -0.3669 -0.5701 -0.5801
    51IDQ   C18 5834   1.291   2.035   3.957 -0.2279 -0.3625  0.1704
    4IDB    C19 5835   1.028   1.989   3.917 -0.5752 -0.0908 -0.3494
    51IDQ   C20 5836   1.272   2.078   4.116  0.4010  0.2437  0.2706
    51IDQ   C21 5837   1.364   1.886   3.929 -0.5628 -0.3944 -0.1096
    51IDQ   C22 5838   1.320   1.806   3.808  0.1400  0.4293  0.2476
    51IDQ   C23 5839   1.328   1.968   4.209  0.9377  0.8044  0.0627
    51IDQ   C24 5840   1.441   1.712   3.779  0.1526  0.4277 -1.4145
    51IDQ   C25 5841   1.405   1.566   3.784  0.4649  0.1318  0.7017
    51IDQ   C26 5842   1.509   1.461   3.754  0.4567  1.3965 -0.8920
    51IDQ   C27 5843   1.458   1.329   3.692  0.0586 -0.3637  0.1457
    51IDQ   C28 5844   1.370   1.338   3.562 -0.4649  0.1051 -0.5433
    51IDQ   C29 5845   1.335   1.197   3.512 -1.7960  0.1419  0.4012
    51IDQ   C30 5846   1.296   2.015   4.353  0.3835  0.5513 -0.5277
    51IDQ   C31 5847   1.348   1.916   4.460  0.4117 -0.6101  0.1021
    51IDQ   C32 5848   1.481   1.845   4.446 -1.0550  0.9282 -0.0085
    51IDQ   C33 5849   1.463   1.713   4.378 -1.9595  0.4038 -0.5777
    51IDQ   C34 5850   1.538   1.694   4.249  0.2201  0.1183 -0.9964
    51IDQ   C35 5851   1.556   1.539   4.232 -0.7283  0.0220 -0.6330
    4IDB    C36 5852   1.035   2.225   3.754 -0.1211  0.6202  0.6912
    4IDB    C37 5853   0.913   2.158   3.782 -0.3360  1.1003  0.9168
    11RH    C38 5854   2.336   2.910   3.379  0.5786 -1.4566  0.3712
    4IDB    C39 5855   0.911   2.043   3.862 -0.5559  0.7476  0.4056
    62IDT   C40 5856   0.772   1.980   3.874  0.1416 -0.0817  0.5962
    72IDQ   C41 5857   0.772   2.183   3.742  1.0976  0.3248 -0.1582
    62IDT   C42 5858   0.697   2.057   3.787  0.2484  0.6562  1.1455
    72IDQ   C43 5859   0.745   2.204   3.594 -0.9809  0.2511 -0.2069
    72IDQ   C44 5860   0.726   2.317   3.823 -0.5569  0.6651 -1.2485
    62IDT    S5 5861   0.674   1.853   3.954 -0.1627 -0.1584  0.1055
    62IDT   C45 5862   0.529   1.913   3.862 -0.1278  0.8609  0.6977
    62IDT   C46 5863   0.559   2.019   3.780  0.0962  1.1903  1.2034
    82BTZ   C47 5864   0.405   1.834   3.865 -0.1623  0.2997 -0.2714
    82BTZ   C48 5865   0.325   1.835   3.976 -0.1969  0.4114 -0.2971
    82BTZ   C49 5866   0.217   1.741   3.992 -0.2803  0.5080 -0.2931
    82BTZ   C50 5867   0.189   1.646   3.897 -0.3290  0.4929 -0.2636
    82BTZ   C51 5868   0.379   1.737   3.762 -0.2107  0.2794 -0.2400
    82BTZ   C52 5869   0.269   1.641   3.779 -0.2955  0.3776 -0.2359
    92RH    C53 5870   0.092   1.555   3.902  0.1011 -0.2826 -0.2555
    82BTZ    N4 5871   0.450   1.726   3.650 -0.1839  0.1746 -0.2133
    82BTZ    N5 5872   0.252   1.554   3.680 -0.3368  0.3518 -0.2060
    82BTZ    S6 5873   0.378   1.590   3.558 -0.2676  0.1977 -0.1811
    92RH    C54 5874   0.015   1.518   4.005  0.1311 -0.0833 -0.1616
    92RH     S7 5875   0.045   1.552   4.182  0.1757  0.2734 -0.2369
    92RH    C55 5876  -0.111   1.442   3.989  0.1326 -0.1240  0.0240
    92RH     O2 5877  -0.160   1.404   3.882  0.1073 -0.3425  0.1129
    92RH     N6 5878  -0.172   1.417   4.114  0.1678  0.1203  0.0905
    92RH    C56 5879  -0.110   1.464   4.228  0.1938  0.3518 -0.0193
    92RH    C57 5880  -0.323   1.390   4.119  0.2630 -1.1130 -0.9144
    92RH    C58 5881  -0.400   1.284   4.190 -1.7195  0.2484 -1.3359
    92RH     S8 5882  -0.161   1.448   4.388  0.2372  0.6664  0.0272
    72IDQ   C59 5883   0.719   2.317   3.981 -0.2656 -0.5700 -0.5878
    72IDQ   C60 5884   0.717   2.461   4.033  0.2628  0.6068 -0.7764
    72IDQ   C61 5885   0.820   2.560   4.002  1.5400 -0.2531  0.3703
    72IDQ   C62 5886   0.796   2.711   4.031 -1.1334 -0.2457  0.5583
    72IDQ   C63 5887   0.791   2.739   4.177 -0.1226  0.5593  0.9850
    72IDQ   C64 5888   0.697   2.841   4.247  0.2804  0.4121 -0.9445
    72IDQ   C65 5889   0.562   2.844   4.188  0.4460 -0.0228  0.7063
    72IDQ   C66 5890   0.790   2.326   3.521 -0.0232 -0.8504  0.3228
    72IDQ   C67 5891   0.715   2.363   3.387  0.3328  0.1767 -0.0781
    72IDQ   C68 5892   0.790   2.456   3.291  1.3622  1.5825  0.9381
    72IDQ   C69 5893   0.733   2.478   3.158 -0.2107  0.9684  0.9066
    72IDQ   C70 5894   0.827   2.535   3.049  0.2544 -0.6310 -0.5459
    72IDQ   C71 5895   0.918   2.656   3.093 -0.5162  0.3494  0.5756
    72IDQ   C72 5896   1.022   2.714   3.001  0.8140 -0.0395 -0.1811
    11RH     C1 5897   3.370   0.084   4.714 -0.3685 -0.0281  0.3998
    11RH     C2 5898   3.405  -0.053   4.758 -0.1415 -0.0241  0.2332
    11RH     N1 5899   3.291   0.151   4.810 -0.0316 -0.0860  0.7176
    11RH     S1 5900   3.332  -0.085   4.923  0.5003 -0.0966  0.5058
    11RH     C3 5901   3.259   0.084   4.926  0.4377 -0.1287  0.8261
    11RH     C4 5902   3.263   0.292   4.791 -0.2424  0.1504  0.1439
    11RH     S2 5903   3.167   0.140   5.056  0.9058 -0.2005  1.1919
    11RH     O1 5904   3.404   0.137   4.607 -0.7991  0.0131  0.2809
    11RH     C5 5905   3.479  -0.137   4.685 -0.3815  0.0257 -0.0702
    21BTZ    C6 5906   3.524  -0.276   4.712 -0.0786  0.4847 -0.2653
    21BTZ    C7 5907   3.501  -0.344   4.829  0.0927  0.6080 -0.1574
    21BTZ    C8 5908   3.574  -0.348   4.599 -0.0267  0.4055 -0.1926
    21BTZ    C9 5909   3.525  -0.486   4.839  0.3221  0.6599  0.0269
    21BTZ   C10 5910   3.572  -0.559   4.734  0.3796  0.5879  0.1025
    21BTZ   C11 5911   3.599  -0.492   4.610  0.2064  0.4582 -0.0055
    21BTZ    N2 5912   3.601  -0.293   4.480 -0.1788  0.2837 -0.2849
    21BTZ    N3 5913   3.645  -0.553   4.500  0.2416  0.3791  0.0529
    21BTZ    S3 5914   3.660  -0.425   4.376 -0.0271  0.2306 -0.1329
    31IDT   C12 5915   3.604  -0.701   4.751 -0.2557 -0.6645  0.2886
    31IDT   C13 5916   3.657  -0.759   4.864  0.8140 -0.6232 -0.1812
    31IDT   C14 5917   3.679  -0.899   4.849  1.7494 -0.4308 -0.7174
    31IDT   C15 5918   3.643  -0.950   4.726  1.4001 -0.3244 -0.6602
    31IDT    S4 5919   3.578  -0.822   4.618 -0.1552 -0.4608  0.0844
    4IDB    C16 5920   3.670  -1.088   4.724 -0.4790  0.0757 -0.2024
    4IDB    C17 5921   3.751  -1.116   4.839  0.2673  0.5860 -0.5965
    51IDQ   C18 5922   3.724  -1.007   4.938 -1.0343  0.7729 -1.2445
    4IDB    C19 5923   3.827  -1.232   4.847  0.0235  0.4361 -0.4221
    51IDQ   C20 5924   3.620  -1.046   5.034  1.2356 -0.3131 -0.3970
    51IDQ   C21 5925   3.845  -0.966   5.042 -0.6391 -1.0530  0.6375
    51IDQ   C22 5926   3.986  -1.022   5.032 -0.4321 -1.2350  0.0349
    51IDQ   C23 5927   3.475  -1.001   5.041  0.3725 -0.5278 -0.6764
    51IDQ   C24 5928   4.078  -0.949   4.931  1.1166 -1.3125  0.8946
    51IDQ   C25 5929   4.119  -1.050   4.828  1.3253  1.0992  1.5623
    51IDQ   C26 5930   4.185  -1.191   4.873 -1.3258 -1.0429 -0.0354
    51IDQ   C27 5931   4.234  -1.292   4.774 -0.2003  0.7285  0.0108
    51IDQ   C28 5932   4.330  -1.255   4.663 -0.4556  1.3472  0.1646
    51IDQ   C29 5933   4.444  -1.161   4.702  0.2665 -0.6203  0.2286
    51IDQ   C30 5934   3.430  -0.893   5.135  1.4056 -0.4527 -0.3155
    51IDQ   C31 5935   3.344  -0.778   5.080  1.0180  1.1976  1.2182
    51IDQ   C32 5936   3.304  -0.657   5.169 -0.8652 -0.8447  0.0412
    51IDQ   C33 5937   3.445  -0.597   5.219 -0.4331 -0.0549 -0.4813
    51IDQ   C34 5938   3.453  -0.453   5.284 -0.4543 -0.8997  0.5108
    51IDQ   C35 5939   3.340  -0.417   5.364 -0.3401 -0.4603 -0.0395
    4IDB    C36 5940   3.666  -1.178   4.616 -1.4799 -0.5925  0.3724
    4IDB    C37 5941   3.744  -1.295   4.625 -1.7149 -0.7362  0.5431
    11RH    C38 5942   3.337   0.390   4.881 -0.5972 -0.3875  0.0142
    4IDB    C39 5943   3.823  -1.321   4.738 -0.9772 -0.2320  0.1533
    62IDT   C40 5944   3.889  -1.447   4.719  0.3372  0.1330  0.6659
    72IDQ   C41 5945   3.768  -1.407   4.517 -0.0772  0.7047  0.0754
    62IDT   C42 5946   3.840  -1.512   4.608  0.4953  0.5612  0.3483
    72IDQ   C43 5947   3.840  -1.357   4.390 -1.1686 -1.1361 -1.0396
    72IDQ   C44 5948   3.643  -1.480   4.454  0.8803  0.8102  1.1709
    62IDT    S5 5949   3.989  -1.556   4.821 -0.0912 -0.3525  0.5702
    62IDT   C45 5950   3.958  -1.690   4.702 -0.0310  0.0694  0.0823
    62IDT   C46 5951   3.879  -1.649   4.597  0.2875  0.5260  0.0176
    82BTZ   C47 5952   4.005  -1.837   4.725  0.2665  0.1864 -0.3988
    82BTZ   C48 5953   4.069  -1.873   4.841  0.4423  0.5009 -0.3989
    82BTZ   C49 5954   4.118  -2.007   4.862  0.5505  0.5810 -0.1433
    82BTZ   C50 5955   4.103  -2.105   4.768  0.4827  0.3462  0.1115
    82BTZ   C51 5956   3.987  -1.937   4.624  0.1895 -0.0684 -0.1373
    82BTZ   C52 5957   4.036  -2.073   4.645  0.2995  0.0131  0.1225
    92RH    C53 5958   4.146  -2.248   4.792 -0.9310  0.4081  0.1538
    82BTZ    N4 5959   3.926  -1.914   4.507  0.0198 -0.3841 -0.1104
    82BTZ    N5 5960   4.015  -2.160   4.546  0.2182 -0.2375  0.3581
    82BTZ    S6 5961   3.929  -2.069   4.418 -0.0068 -0.5950  0.2556
    92RH    C54 5962   4.198  -2.325   4.888 -0.8719  0.2897  0.0269
    92RH     S7 5963   4.264  -2.269   5.050 -0.5819  0.1123 -0.0296
    92RH    C55 5964   4.210  -2.473   4.877 -1.0395  0.2844 -0.0901
    92RH     O2 5965   4.175  -2.541   4.780 -1.2500  0.3867 -0.0854
    92RH     N6 5966   4.269  -2.528   4.993 -0.9304  0.1458 -0.2115
    92RH    C56 5967   4.305  -2.443   5.095 -0.6957  0.0396 -0.2058
    92RH    C57 5968   4.316  -2.661   4.997 -0.1377 -0.5920 -1.0060
    92RH    C58 5969   4.235  -2.774   5.074 -0.6845 -0.1780  0.8070
    92RH     S8 5970   4.376  -2.484   5.243 -0.5252 -0.1328 -0.3347
    72IDQ   C59 5971   3.512  -1.516   4.519  0.5794 -0.4063  0.0431
    72IDQ   C60 5972   3.507  -1.567   4.656 -2.1016  1.4976 -0.0069
    72IDQ   C61 5973   3.365  -1.571   4.707 -0.1185 -0.3504 -0.7244
    72IDQ   C62 5974   3.306  -1.705   4.754 -0.5194 -0.7971 -0.2629
    72IDQ   C63 5975   3.251  -1.777   4.639 -0.1895 -0.3527  0.4399
    72IDQ   C64 5976   3.122  -1.856   4.678 -0.9555 -1.1832 -1.0502
    72IDQ   C65 5977   3.058  -1.905   4.547  0.4342 -0.5612  0.8374
    72IDQ   C66 5978   3.931  -1.426   4.289 -1.2858 -1.3612 -0.3241
    72IDQ   C67 5979   3.867  -1.508   4.167  0.0146  0.6352 -0.5761
    72IDQ   C68 5980   3.896  -1.656   4.166  0.4759 -0.8834  0.0885
    72IDQ   C69 5981   4.053  -1.686   4.150  0.6330  1.7767 -1.1478
    72IDQ   C70 5982   4.114  -1.785   4.051 -0.6703  0.7601 -0.4039
    72IDQ   C71 5983   4.179  -1.895   4.125 -0.2749 -1.6388 -0.0170
    72IDQ   C72 5984   4.203  -2.002   4.028 -0.0736 -0.6532 -0.0659
    11RH     C1 5985   5.600   4.117   1.655  0.2370 -0.3901  0.0904
    11RH     C2 5986   5.501   4.028   1.590  0.0260 -0.0749 -0.0217
    11RH     N1 5987   5.687   4.176   1.559  0.2411 -0.3106  0.1426
    11RH     S1 5988   5.527   4.027   1.408 -0.1537  0.3048 -0.0512
    11RH     C3 5989   5.668   4.144   1.426  0.0591  0.0293  0.0859
    11RH     C4 5990   5.810   4.245   1.598  0.9997  0.0467 -0.0864
    11RH     S2 5991   5.757   4.200   1.294  0.0224  0.1915  0.1291
    11RH     O1 5992   5.609   4.140   1.776  0.3929 -0.6886  0.1348
    11RH     C5 5993   5.407   3.961   1.658 -0.0205 -0.0786 -0.0887
    21BTZ    C6 5994   5.300   3.866   1.605 -0.2759 -0.3136 -0.4173
    21BTZ    C7 5995   5.272   3.834   1.475 -0.4046 -0.2202 -0.4135
    21BTZ    C8 5996   5.207   3.826   1.707 -0.3231 -0.1314 -0.3876
    21BTZ    C9 5997   5.153   3.761   1.439 -0.5851  0.0550 -0.3803
    21BTZ   C10 5998   5.062   3.720   1.533 -0.6363  0.2363 -0.3510
    21BTZ   C11 5999   5.087   3.752   1.670 -0.5066  0.1482 -0.3539
    21BTZ    N2 6000   5.223   3.852   1.837 -0.2096 -0.1985 -0.3882
    21BTZ    N3 6001   5.005   3.718   1.771 -0.5403  0.3059 -0.3274
    21BTZ    S3 6002   5.082   3.780   1.920 -0.3349  0.0990 -0.3448
    31IDT   C12 6003   4.937   3.647   1.489  0.3539 -0.6278 -0.1357
    31IDT   C13 6004   4.898   3.634   1.358  0.3989 -1.7648 -0.0437
    31IDT   C14 6005   4.770   3.572   1.344  0.2625 -1.6035  0.4641
    31IDT   C15 6006   4.710   3.538   1.464  0.1131 -0.3455  0.7616
    31IDT    S4 6007   4.813   3.582   1.605  0.1336  0.7423  0.4189
    4IDB    C16 6008   4.592   3.476   1.439 -0.0406  0.3773  0.0526
    4IDB    C17 6009   4.570   3.459   1.299 -0.3603  0.4617  0.0917
    51IDQ   C18 6010   4.667   3.559   1.236 -1.7236  0.4980  0.6293
    4IDB    C19 6011   4.477   3.366   1.253  0.1684 -0.1486  0.2312
    51IDQ   C20 6012   4.719   3.486   1.095 -2.1379  0.3591  0.6817
    51IDQ   C21 6013   4.605   3.704   1.193 -0.6110  0.7901  1.0653
    51IDQ   C22 6014   4.449   3.732   1.199 -0.1230 -0.7919 -0.3140
    51IDQ   C23 6015   4.858   3.408   1.091 -0.6637 -0.7820  0.1329
    51IDQ   C24 6016   4.374   3.860   1.203  0.2716 -0.0673  0.0626
    51IDQ   C25 6017   4.229   3.825   1.243  0.1213 -0.7114 -0.0393
    51IDQ   C26 6018   4.153   3.758   1.107  0.1144 -1.3019 -1.1764
    51IDQ   C27 6019   4.004   3.738   1.123  1.2774 -0.0589  0.6491
    51IDQ   C28 6020   3.913   3.677   1.011  0.3488 -0.4258 -0.5665
    51IDQ   C29 6021   3.778   3.681   1.075 -0.8249  1.0368  1.4749
    51IDQ   C30 6022   4.859   3.323   0.945  0.1313 -0.8235 -0.8922
    51IDQ   C31 6023   4.899   3.374   0.804 -0.6190 -1.0127  1.4675
    51IDQ   C32 6024   5.027   3.455   0.802 -0.0829 -0.5216 -0.8194
    51IDQ   C33 6025   5.147   3.372   0.850 -2.4694  1.7606 -0.5016
    51IDQ   C34 6026   5.184   3.245   0.769  0.6551 -0.4130  0.6995
    51IDQ   C35 6027   5.311   3.180   0.823  0.3009  0.0822  0.1552
    4IDB    C36 6028   4.520   3.401   1.534  0.8152 -0.3228  0.1535
    4IDB    C37 6029   4.426   3.307   1.485  1.3459 -0.9402  0.2956
    11RH    C38 6030   5.794   4.381   1.675  0.4434  0.5598  0.3343
    4IDB    C39 6031   4.405   3.291   1.348  1.0244 -0.8488  0.3320
    62IDT   C40 6032   4.295   3.202   1.325  0.4371 -1.0638  0.0358
    72IDQ   C41 6033   4.326   3.215   1.556 -0.3585 -0.8315 -1.1404
    62IDT   C42 6034   4.250   3.152   1.445  0.2506 -0.9037  0.0333
    72IDQ   C43 6035   4.223   3.280   1.666 -0.7807  0.1100 -0.5369
    72IDQ   C44 6036   4.395   3.086   1.614 -0.4936 -0.2414 -0.3346
    62IDT    S5 6037   4.205   3.135   1.185  0.0309 -0.5460  0.0482
    62IDT   C45 6038   4.105   3.038   1.302 -0.3903 -0.1196  0.0493
    62IDT   C46 6039   4.142   3.059   1.432 -0.2174 -0.3698  0.0408
    82BTZ   C47 6040   3.989   2.942   1.266  0.2381 -0.1002 -0.7212
    82BTZ   C48 6041   3.952   2.951   1.134  0.3260 -0.3265 -0.7612
    82BTZ   C49 6042   3.849   2.867   1.079  0.4483 -0.5075 -0.7154
    82BTZ   C50 6043   3.783   2.774   1.155  0.4825 -0.4617 -0.6297
    82BTZ   C51 6044   3.923   2.846   1.350  0.2694 -0.0433 -0.6314
    82BTZ   C52 6045   3.818   2.761   1.293  0.3937 -0.2271 -0.5848
    92RH    C53 6046   3.661   2.694   1.111 -0.0921 -0.9742  0.3102
    82BTZ    N4 6047   3.949   2.829   1.479  0.1916  0.1708 -0.5853
    82BTZ    N5 6048   3.760   2.674   1.377  0.4159 -0.1609 -0.5013
    82BTZ    S6 6049   3.840   2.699   1.536  0.2758  0.1457 -0.4782
    92RH    C54 6050   3.584   2.667   1.005 -0.0883 -0.5083  0.1890
    92RH     S7 6051   3.595   2.746   0.839  0.0211  0.1077  0.4855
    92RH    C55 6052   3.476   2.567   1.006 -0.1758 -0.4190 -0.2186
    92RH     O2 6053   3.443   2.496   1.103 -0.2612 -0.7576 -0.4909
    92RH     N6 6054   3.411   2.559   0.880 -0.1507  0.1088 -0.2643
    92RH    C56 6055   3.455   2.642   0.779 -0.0538  0.4534  0.0568
    92RH    C57 6056   3.299   2.455   0.864 -0.4100 -0.4206 -1.0977
    92RH    C58 6057   3.162   2.510   0.861  0.4919  0.3661  0.4821
    92RH     S8 6058   3.395   2.653   0.622 -0.0049  1.0974  0.0805
    72IDQ   C59 6059   4.547   3.071   1.649  0.1570 -0.3228  1.1298
    72IDQ   C60 6060   4.560   3.041   1.790 -0.6555  0.2942 -0.4954
    72IDQ   C61 6061   4.601   3.167   1.863 -0.6942  0.1907  0.3838
    72IDQ   C62 6062   4.741   3.207   1.870  0.6823  1.2622 -0.0247
    72IDQ   C63 6063   4.772   3.323   1.960 -0.0377 -0.1010  0.9763
    72IDQ   C64 6064   4.898   3.414   1.956  1.4976  0.5499 -0.3994
    72IDQ   C65 6065   4.935   3.408   2.108  0.5098 -1.3486  0.4293
    72IDQ   C66 6066   4.272   3.381   1.774 -0.4204  0.6428 -2.1945
    72IDQ   C67 6067   4.189   3.398   1.897 -0.5581  0.3580 -0.4854
    72IDQ   C68 6068   4.228   3.341   2.042  0.3765 -0.1511 -0.3469
    72IDQ   C69 6069   4.372   3.365   2.079  0.2052 -1.4212 -0.3658
    72IDQ   C70 6070   4.399   3.488   2.170  0.5495  0.5309 -0.0821
    72IDQ   C71 6071   4.380   3.469   2.323  0.2972 -1.0544 -0.4589
    72IDQ   C72 6072   4.259   3.390   2.375  1.0024  0.9275 -0.1139
    11RH     C1 6073   2.712   4.736   2.943  0.1308 -0.0978  1.1007
    11RH     C2 6074   2.575   4.713   2.890  0.2455  0.0286  0.7434
    11RH     N1 6075   2.765   4.858   2.894  0.5545 -0.3779  0.8605
    11RH     S1 6076   2.526   4.851   2.780  0.9028 -0.2297  0.1154
    11RH     C3 6077   2.688   4.934   2.809  0.9946 -0.4916  0.3550
    11RH     C4 6078   2.891   4.903   2.943  0.3011  0.7363 -0.8992
    11RH     S2 6079   2.728   5.081   2.738  1.5488 -0.8185 -0.0169
    11RH     O1 6080   2.774   4.661   3.020 -0.2813  0.0229  1.5546
    11RH     C5 6081   2.502   4.605   2.921 -0.0909  0.2923  0.8747
    21BTZ    C6 6082   2.362   4.582   2.893  0.3400  0.4280  0.6302
    21BTZ    C7 6083   2.290   4.685   2.839  0.5633  0.5658  0.5947
    21BTZ    C8 6084   2.305   4.450   2.893  0.3095  0.4401  0.1185
    21BTZ    C9 6085   2.159   4.665   2.783  0.7665  0.7215  0.0587
    21BTZ   C10 6086   2.100   4.541   2.781  0.7461  0.7393 -0.4413
    21BTZ   C11 6087   2.171   4.430   2.836  0.5159  0.5984 -0.4265
    21BTZ    N2 6088   2.365   4.342   2.942  0.1011  0.3147  0.0985
    21BTZ    N3 6089   2.125   4.305   2.839  0.4737  0.6003 -0.8845
    21BTZ    S3 6090   2.252   4.206   2.917  0.1612  0.3955 -0.6329
    31IDT   C12 6091   1.955   4.529   2.750 -0.3442  0.2272  0.1606
    31IDT   C13 6092   1.901   4.415   2.695 -0.3168  0.1276  0.3397
    31IDT   C14 6093   1.769   4.435   2.645 -0.3417  0.0024  0.3558
    31IDT   C15 6094   1.721   4.563   2.661 -0.3881  0.0057  0.1895
    31IDT    S4 6095   1.841   4.670   2.742 -0.4040  0.1694 -0.0023
    4IDB    C16 6096   1.583   4.567   2.614  0.3074 -0.2349 -0.5312
    4IDB    C17 6097   1.543   4.444   2.554 -0.0369 -0.0386 -0.7063
    51IDQ   C18 6098   1.665   4.349   2.572  0.2340  0.5916 -0.5459
    4IDB    C19 6099   1.412   4.425   2.510 -0.2325  0.1917 -0.2318
    51IDQ   C20 6100   1.588   4.232   2.646  0.9845 -0.9185 -0.2220
    51IDQ   C21 6101   1.729   4.257   2.470  0.0332  0.9884  0.9360
    51IDQ   C22 6102   1.641   4.257   2.345  1.0297  0.0832 -0.2042
    51IDQ   C23 6103   1.637   4.167   2.781  0.6759  0.7391  1.2394
    51IDQ   C24 6104   1.647   4.150   2.233  0.5068 -0.1032 -0.0455
    51IDQ   C25 6105   1.770   4.059   2.222 -1.0321 -0.1222  0.7439
    51IDQ   C26 6106   1.865   4.069   2.112  0.1545  0.8599  0.5401
    51IDQ   C27 6107   1.998   4.021   2.127  0.7399 -0.7183 -0.4729
    51IDQ   C28 6108   2.117   4.119   2.169  0.6093  0.3245  0.7563
    51IDQ   C29 6109   2.111   4.209   2.284  1.3629  0.7616 -0.7747
    51IDQ   C30 6110   1.556   4.102   2.888 -0.5204  0.2836  0.2171
    51IDQ   C31 6111   1.439   4.027   2.834 -0.3300  1.3301 -0.4667
    51IDQ   C32 6112   1.489   3.900   2.768 -0.3834  0.9432 -0.2315
    51IDQ   C33 6113   1.360   3.819   2.731 -1.0925  0.4513  0.5636
    51IDQ   C34 6114   1.340   3.676   2.681 -0.2960  0.1201  0.4427
    51IDQ   C35 6115   1.378   3.559   2.768  1.7210  0.3425  0.7955
    4IDB    C36 6116   1.493   4.673   2.630  0.4587 -0.2012  0.1239
    4IDB    C37 6117   1.360   4.652   2.585  0.2549  0.0353  0.6020
    11RH    C38 6118   2.895   5.016   3.048 -0.1712  0.2167  0.5594
    4IDB    C39 6119   1.322   4.531   2.526 -0.0810  0.2254  0.4232
    62IDT   C40 6120   1.186   4.545   2.472 -0.7282  0.0068 -0.3918
    72IDQ   C41 6121   1.234   4.744   2.576 -0.7427  0.7662 -0.4349
    62IDT   C42 6122   1.128   4.663   2.511 -0.8570  0.1805 -1.0890
    72IDQ   C43 6123   1.258   4.867   2.487  0.9028  0.5301 -0.8936
    72IDQ   C44 6124   1.197   4.794   2.718 -0.5628  0.1098 -1.0884
    62IDT    S5 6125   1.075   4.444   2.373 -0.5332 -0.5872 -0.0129
    62IDT   C45 6126   0.949   4.573   2.391 -0.6414 -0.5684 -0.8587
    62IDT   C46 6127   0.993   4.679   2.466 -0.8081 -0.1447 -1.3540
    82BTZ   C47 6128   0.836   4.573   2.302 -0.1437 -0.1913  0.0877
    82BTZ   C48 6129   0.717   4.620   2.352 -0.1136  0.2081 -0.2100
    82BTZ   C49 6130   0.598   4.625   2.272  0.1537  0.8178 -0.5784
    82BTZ   C50 6131   0.597   4.583   2.142  0.3904  1.0271 -0.6485
    82BTZ   C51 6132   0.840   4.528   2.166  0.0979  0.0062  0.0285
    82BTZ   C52 6133   0.718   4.533   2.085  0.3695  0.6261 -0.3458
    92RH    C53 6134   0.476   4.556   2.066  0.0857  0.2014  0.2087
    82BTZ    N4 6135   0.949   4.480   2.106  0.0950 -0.3400  0.2962
    82BTZ    N5 6136   0.730   4.489   1.959  0.5850  0.7775 -0.3791
    82BTZ    S6 6137   0.900   4.438   1.939  0.4468  0.1205  0.0762
    92RH    C54 6138   0.345   4.578   2.082  0.0416  0.0365  0.0808
    92RH     S7 6139   0.263   4.650   2.230 -0.1926 -0.0571 -0.0030
    92RH    C55 6140   0.243   4.546   1.979  0.1813 -0.1001 -0.0156
    92RH     O2 6141   0.266   4.496   1.868  0.3522 -0.0784  0.0100
    92RH     N6 6142   0.113   4.579   2.023  0.0961 -0.2619 -0.1434
    92RH    C56 6143   0.098   4.634   2.148 -0.0947 -0.2720 -0.1613
    92RH    C57 6144  -0.009   4.557   1.935 -0.2268 -0.3387 -0.7635
    92RH    C58 6145  -0.075   4.410   1.945 -0.0543 -1.0548  0.7636
    92RH     S8 6146  -0.045   4.683   2.224 -0.2291 -0.4478 -0.3024
    72IDQ   C59 6147   1.182   4.702   2.840  0.5312 -1.3709 -0.1463
    72IDQ   C60 6148   1.279   4.704   2.951 -0.3459 -0.8588 -0.3503
    72IDQ   C61 6149   1.239   4.615   3.074 -0.5233 -0.0076 -1.4582
    72IDQ   C62 6150   1.327   4.507   3.133 -1.1032  0.8604 -1.4038
    72IDQ   C63 6151   1.469   4.487   3.104 -0.8654 -0.8441 -0.5714
    72IDQ   C64 6152   1.497   4.351   3.138 -0.3280  0.2543  0.2863
    72IDQ   C65 6153   1.609   4.313   3.242  0.6203 -0.6698 -0.5508
    72IDQ   C66 6154   1.351   4.836   2.351  0.8365 -0.1659  0.8249
    72IDQ   C67 6155   1.438   4.942   2.290  0.1474  0.6324 -0.2578
    72IDQ   C68 6156   1.577   4.987   2.341  0.7625 -1.4654 -0.9913
    72IDQ   C69 6157   1.678   4.879   2.371  0.2913 -0.1708  1.2758
    72IDQ   C70 6158   1.699   4.749   2.278  0.1658  0.7221  1.3632
    72IDQ   C71 6159   1.844   4.695   2.302 -0.3055  0.6691  0.2741
    72IDQ   C72 6160   1.851   4.557   2.243  1.0025  0.3002  0.6826
    11RH     C1 6161   5.458   3.480   1.625  0.6545  0.0085 -0.2944
    11RH     C2 6162   5.441   3.395   1.505  0.5128 -0.1154 -0.1873
    11RH     N1 6163   5.594   3.509   1.648  0.6884 -0.0319 -0.4401
    11RH     S1 6164   5.605   3.359   1.430  0.4338 -0.2765 -0.2853
    11RH     C3 6165   5.688   3.458   1.562  0.5915 -0.1729 -0.4628
    11RH     C4 6166   5.627   3.616   1.751  0.2981 -0.4313  0.2692
    11RH     S2 6167   5.856   3.478   1.567  0.6058 -0.2480 -0.6242
    11RH     O1 6168   5.367   3.521   1.698  0.7353  0.1327 -0.2633
    11RH     C5 6169   5.322   3.353   1.460  0.4554 -0.1059 -0.0420
    21BTZ    C6 6170   5.285   3.240   1.372 -0.2595  0.2381  0.3440
    21BTZ    C7 6171   5.367   3.156   1.302 -0.1252  0.1994  0.5500
    21BTZ    C8 6172   5.143   3.224   1.359 -0.2344  0.0995  0.2397
    21BTZ    C9 6173   5.315   3.052   1.217  0.0393  0.0238  0.6629
    21BTZ   C10 6174   5.180   3.032   1.202  0.0698 -0.1129  0.5699
    21BTZ   C11 6175   5.090   3.118   1.272 -0.0668 -0.0790  0.3545
    21BTZ    N2 6176   5.053   3.300   1.421 -0.3550  0.1209  0.0398
    21BTZ    N3 6177   4.957   3.109   1.265 -0.0529 -0.2012  0.2469
    21BTZ    S3 6178   4.892   3.238   1.371 -0.2577 -0.0907 -0.0112
    31IDT   C12 6179   5.146   2.925   1.106  0.3417  0.8458 -0.2455
    31IDT   C13 6180   5.030   2.855   1.091 -0.4275  2.1588 -0.6012
    31IDT   C14 6181   5.036   2.757   0.986 -1.1463  1.9497 -0.4593
    31IDT   C15 6182   5.158   2.753   0.921 -0.9301  0.4799  0.0044
    31IDT    S4 6183   5.274   2.873   0.988  0.2108 -0.7651  0.3001
    4IDB    C16 6184   5.149   2.667   0.802  0.4851 -0.9957  0.1700
    4IDB    C17 6185   5.013   2.624   0.799  0.4115 -0.7761  0.3844
    51IDQ   C18 6186   4.940   2.663   0.922 -1.6525  0.5739  1.3319
    4IDB    C19 6187   4.970   2.529   0.708 -0.0164 -0.2731  0.0518
    51IDQ   C20 6188   4.817   2.746   0.870 -0.7278  1.2679  0.1036
    51IDQ   C21 6189   4.897   2.555   1.026  0.5390 -0.2421 -1.8768
    51IDQ   C22 6190   4.932   2.404   1.050 -0.6846  0.0947 -0.5614
    51IDQ   C23 6191   4.830   2.909   0.840 -0.9412 -0.5912  0.2443
    51IDQ   C24 6192   4.838   2.313   1.126 -0.8396 -0.9492 -0.9094
    51IDQ   C25 6193   4.825   2.351   1.272  0.6728  0.5972 -0.0076
    51IDQ   C26 6194   4.947   2.296   1.355  0.5026  0.8648  0.1627
    51IDQ   C27 6195   4.945   2.369   1.482 -0.6037  1.4137  0.6499
    51IDQ   C28 6196   5.071   2.367   1.567  0.4011  0.0736  0.9377
    51IDQ   C29 6197   5.191   2.279   1.540  1.0302  0.2647  0.0174
    51IDQ   C30 6198   4.833   2.972   0.692  0.9055  0.1438  0.6694
    51IDQ   C31 6199   4.961   3.039   0.629  0.2464  0.9343  0.6133
    51IDQ   C32 6200   4.929   3.060   0.481  0.1368 -0.3393  0.2932
    51IDQ   C33 6201   5.038   2.992   0.388  1.6056 -1.2101 -0.1220
    51IDQ   C34 6202   5.066   3.057   0.249 -0.2752 -0.3471 -0.1482
    51IDQ   C35 6203   5.128   3.192   0.220  1.5845 -0.2269  0.1004
    4IDB    C36 6204   5.243   2.614   0.713  0.1287 -0.7117 -0.3819
    4IDB    C37 6205   5.198   2.516   0.620 -0.3059 -0.1984 -0.7156
    11RH    C38 6206   5.673   3.747   1.690  0.6620 -0.2251 -1.2454
    4IDB    C39 6207   5.064   2.476   0.619 -0.3724  0.0111 -0.5001
    62IDT   C40 6208   5.048   2.359   0.551 -0.0927 -0.2899 -0.2386
    72IDQ   C41 6209   5.275   2.447   0.507 -0.1862 -0.7880  0.5600
    62IDT   C42 6210   5.158   2.339   0.470  0.1249 -1.3142  0.2952
    72IDQ   C43 6211   5.397   2.365   0.555 -0.7193 -0.0856  0.6352
    72IDQ   C44 6212   5.283   2.546   0.383  0.1346 -0.2355 -1.4051
    62IDT    S5 6213   4.924   2.230   0.529 -0.6824  0.2314 -0.0077
    62IDT   C45 6214   5.034   2.152   0.406 -0.5992 -1.0242  0.8396
    62IDT   C46 6215   5.150   2.222   0.388 -0.1612 -1.7307  0.9054
    82BTZ   C47 6216   5.010   2.016   0.348 -0.3996  0.1840  0.0128
    82BTZ   C48 6217   5.025   1.997   0.213 -0.5267  0.2005 -0.0034
    82BTZ   C49 6218   5.041   1.866   0.156 -0.3135  0.2275 -0.0078
    82BTZ   C50 6219   5.042   1.753   0.235  0.0262  0.2380  0.0040
    82BTZ   C51 6220   5.011   1.902   0.434 -0.0455  0.1942  0.0256
    82BTZ   C52 6221   5.027   1.768   0.376  0.1712  0.2216  0.0211
    92RH    C53 6222   5.062   1.612   0.190  0.4262  0.0296 -0.1527
    82BTZ    N4 6223   4.997   1.907   0.567  0.1078  0.1801  0.0417
    82BTZ    N5 6224   5.026   1.666   0.463  0.4983  0.2297  0.0337
    82BTZ    S6 6225   5.005   1.738   0.625  0.5445  0.2018  0.0521
    92RH    C54 6226   5.088   1.561   0.069  0.3667 -0.0136 -0.1469
    92RH     S7 6227   5.079   1.649  -0.092  0.5750  0.0076 -0.1470
    92RH    C55 6228   5.128   1.420   0.047  0.1137 -0.0876 -0.1389
    92RH     O2 6229   5.143   1.334   0.135 -0.0696 -0.1180 -0.1368
    92RH     N6 6230   5.148   1.393  -0.090  0.1039 -0.1208 -0.1334
    92RH    C56 6231   5.128   1.495  -0.181  0.3183 -0.0824 -0.1366
    92RH    C57 6232   5.221   1.271  -0.136  0.6073  0.1247  0.5960
    92RH    C58 6233   5.378   1.280  -0.143  0.0860  0.5238  1.0331
    92RH     S8 6234   5.145   1.489  -0.348  0.3560 -0.1093 -0.1318
    72IDQ   C59 6235   5.174   2.651   0.352 -0.9995  1.7353 -0.1098
    72IDQ   C60 6236   5.093   2.646   0.229  0.1154 -0.3228  2.0036
    72IDQ   C61 6237   4.952   2.568   0.226 -0.2946  0.9110  0.5679
    72IDQ   C62 6238   4.828   2.608   0.145  0.0387 -0.1125 -0.0574
    72IDQ   C63 6239   4.864   2.610  -0.008 -0.7220  0.1022 -1.9815
    72IDQ   C64 6240   4.905   2.460  -0.054 -0.4018 -0.4584  0.8324
    72IDQ   C65 6241   4.878   2.491  -0.198  0.8386  0.2606  0.0809
    72IDQ   C66 6242   5.533   2.350   0.495 -0.9316 -0.2835 -1.0461
    72IDQ   C67 6243   5.548   2.335   0.334 -1.0165 -0.0255 -1.1273
    72IDQ   C68 6244   5.666   2.406   0.269  0.5343 -1.1050 -0.0385
    72IDQ   C69 6245   5.662   2.448   0.132  0.1764 -0.7445 -0.7312
    72IDQ   C70 6246   5.589   2.570   0.067 -0.9454 -0.6593 -1.6887
    72IDQ   C71 6247   5.562   2.694   0.167  0.0593 -0.1434 -0.8610
    72IDQ   C72 6248   5.455   2.781   0.108  1.0005 -0.7400  1.0911
    11RH     C1 6249   0.703   4.860   4.970  0.6655  0.0892  0.3889
    11RH     C2 6250   0.710   4.969   4.869  0.4777  0.0117  0.2918
    11RH     N1 6251   0.723   4.734   4.912  0.6437  0.0516  0.4626
    11RH     S1 6252   0.743   4.897   4.704  0.2845 -0.1059  0.3041
    11RH     C3 6253   0.746   4.727   4.776  0.4612 -0.0467  0.4365
    11RH     C4 6254   0.709   4.600   4.979  0.6051 -0.7679  0.5278
    11RH     S2 6255   0.773   4.590   4.682  0.3964 -0.1094  0.5102
    11RH     O1 6256   0.682   4.876   5.092  0.8242  0.1771  0.4051
    11RH     C5 6257   0.694   5.098   4.899  0.4583  0.0281  0.2095
    21BTZ    C6 6258   0.732   5.214   4.820 -0.0962  0.0901 -0.1121
    21BTZ    C7 6259   0.807   5.192   4.708 -0.1176 -0.0408 -0.1011
    21BTZ    C8 6260   0.688   5.348   4.849  0.0676  0.1543 -0.1590
    21BTZ    C9 6261   0.843   5.300   4.618  0.0198 -0.1147 -0.1352
    21BTZ   C10 6262   0.803   5.429   4.641  0.1784 -0.0577 -0.1806
    21BTZ   C11 6263   0.724   5.457   4.757  0.2072  0.0792 -0.1938
    21BTZ    N2 6264   0.614   5.381   4.955  0.1042  0.2813 -0.1740
    21BTZ    N3 6265   0.679   5.578   4.790  0.3560  0.1457 -0.2367
    21BTZ    S3 6266   0.587   5.558   4.943  0.3232  0.3107 -0.2349
    31IDT   C12 6267   0.812   5.528   4.530 -0.3988 -0.2005  0.3321
    31IDT   C13 6268   0.843   5.661   4.540 -0.0384 -0.3080  0.6413
    31IDT   C14 6269   0.849   5.727   4.413  0.3174 -0.0679  0.7811
    31IDT   C15 6270   0.822   5.645   4.306  0.2308  0.2229  0.5791
    31IDT    S4 6271   0.787   5.476   4.357 -0.3130  0.2157  0.1932
    4IDB    C16 6272   0.812   5.728   4.193 -0.2203  0.5517  0.1934
    4IDB    C17 6273   0.838   5.865   4.224 -0.7835  0.6871  0.0753
    51IDQ   C18 6274   0.874   5.876   4.376  0.6546  0.2605  0.5228
    4IDB    C19 6275   0.839   5.961   4.124 -0.5832  0.5115 -0.0918
    51IDQ   C20 6276   1.039   5.923   4.360 -1.3458  0.3369  0.0449
    51IDQ   C21 6277   0.790   5.992   4.449  0.0967 -0.8048 -0.3714
    51IDQ   C22 6278   0.654   6.033   4.388 -0.0323 -0.2136 -0.0486
    51IDQ   C23 6279   1.164   5.827   4.373 -0.5478 -0.7040 -0.4403
    51IDQ   C24 6280   0.535   5.956   4.431  1.3519  0.6322 -0.7177
    51IDQ   C25 6281   0.517   5.947   4.582  1.9044  0.1993 -0.3882
    51IDQ   C26 6282   0.412   5.858   4.645 -0.1620  0.5520  0.9497
    51IDQ   C27 6283   0.267   5.825   4.606  0.0324 -0.0381 -0.7715
    51IDQ   C28 6284   0.173   5.888   4.728 -1.0956  1.4743  0.6373
    51IDQ   C29 6285   0.014   5.862   4.752  0.1348  0.1587  1.1748
    51IDQ   C30 6286   1.312   5.877   4.408 -1.6221  0.8660 -0.0916
    51IDQ   C31 6287   1.433   5.804   4.358 -0.8491  0.3810 -0.8702
    51IDQ   C32 6288   1.543   5.914   4.354  0.4749  0.7935 -1.3024
    51IDQ   C33 6289   1.681   5.879   4.304 -0.6941 -0.1614 -0.9962
    51IDQ   C34 6290   1.756   5.956   4.192  0.0123 -0.7237 -0.0616
    51IDQ   C35 6291   1.696   5.998   4.063  2.1514 -0.7267  0.1234
    4IDB    C36 6292   0.788   5.687   4.061  0.5514  0.2382  0.1447
    4IDB    C37 6293   0.790   5.787   3.960  0.7455  0.0625 -0.0262
    11RH    C38 6294   0.845   4.538   5.003  0.7868  0.8917 -0.2756
    4IDB    C39 6295   0.815   5.920   3.992  0.1885  0.1979 -0.1405
    62IDT   C40 6296   0.822   5.998   3.871 -0.0467  0.2587 -0.5470
    72IDQ   C41 6297   0.812   5.760   3.812 -0.1430 -0.1292 -0.5463
    62IDT   C42 6298   0.823   5.913   3.762  1.1006  0.0813 -0.4061
    72IDQ   C43 6299   0.703   5.656   3.758  1.5150  0.8368 -0.2102
    72IDQ   C44 6300   0.971   5.704   3.783  1.1269 -0.2249 -0.4712
    62IDT    S5 6301   0.846   6.170   3.823 -0.7813  0.3267 -0.6829
    62IDT   C45 6302   0.857   6.115   3.650  0.5673  0.1003 -0.5348
    62IDT   C46 6303   0.843   5.979   3.637  1.4493 -0.0088 -0.3991
    82BTZ   C47 6304   0.883   6.204   3.541 -0.4952  0.0994  0.0891
    82BTZ   C48 6305   0.942   6.148   3.431 -0.2014  0.0834  0.2552
    82BTZ   C49 6306   0.958   6.222   3.308  0.3985  0.1671  0.3800
    82BTZ   C50 6307   0.915   6.351   3.295  0.7037  0.2666  0.3385
    82BTZ   C51 6308   0.836   6.339   3.533 -0.1945  0.2019  0.0395
    82BTZ   C52 6309   0.852   6.414   3.407  0.4152  0.2871  0.1663
    92RH    C53 6310   0.902   6.420   3.162 -0.0844  0.4127  0.4619
    82BTZ    N4 6311   0.776   6.404   3.633 -0.4338  0.2275 -0.1184
    82BTZ    N5 6312   0.805   6.539   3.407  0.6660  0.3808  0.1104
    82BTZ    S6 6313   0.737   6.567   3.570  0.1220  0.3639 -0.1112
    92RH    C54 6314   0.937   6.384   3.038 -0.0720  0.6428  0.3995
    92RH     S7 6315   1.022   6.230   2.988  0.4169  0.9776  0.1888
    92RH    C55 6316   0.912   6.469   2.919 -0.4672  0.6616  0.4952
    92RH     O2 6317   0.856   6.579   2.919 -0.8491  0.4706  0.6413
    92RH     N6 6318   0.960   6.407   2.801 -0.3584  0.9282  0.3987
    92RH    C56 6319   1.020   6.284   2.812  0.0757  1.1258  0.2375
    92RH    C57 6320   0.949   6.459   2.664  0.1828  1.1092  0.1499
    92RH    C58 6321   0.816   6.475   2.591  1.2791  0.3003 -0.2875
    92RH     S8 6322   1.085   6.190   2.688  0.2908  1.4567  0.0976
    72IDQ   C59 6323   1.099   5.793   3.820  0.5000 -0.5337 -0.6308
    72IDQ   C60 6324   1.156   5.748   3.967 -0.3016 -0.6288  1.1330
    72IDQ   C61 6325   1.209   5.610   3.968  0.1093 -0.5738 -0.6157
    72IDQ   C62 6326   1.323   5.603   3.858  1.4077  1.0288 -0.1751
    72IDQ   C63 6327   1.455   5.577   3.896 -0.5786 -0.2403 -0.4968
    72IDQ   C64 6328   1.496   5.505   4.032  1.1032  0.2947 -0.4981
    72IDQ   C65 6329   1.627   5.448   3.992 -0.1116 -0.5145  0.5912
    72IDQ   C66 6330   0.585   5.706   3.677  0.1026 -0.3596  0.8290
    72IDQ   C67 6331   0.451   5.740   3.749 -0.2775  0.8280  0.5714
    72IDQ   C68 6332   0.447   5.855   3.861  1.0884  0.1937  0.0669
    72IDQ   C69 6333   0.407   5.975   3.766  2.3008  0.4653 -0.4757
    72IDQ   C70 6334   0.401   6.108   3.826  0.4762 -0.1057  0.5903
    72IDQ   C71 6335   0.379   6.206   3.707 -0.2329  0.3617  1.8112
    72IDQ   C72 6336   0.499   6.259   3.619 -0.3889  0.9038 -1.1390
    11RH     C1 6337   0.088   4.553   2.684 -0.3579  0.5538 -0.2472
    11RH     C2 6338   0.197   4.502   2.597 -0.4344  0.3560 -0.2289
    11RH     N1 6339   0.140   4.621   2.797 -0.2485  0.2517 -0.1138
    11RH     S1 6340   0.360   4.548   2.668 -0.3575 -0.2146 -0.0375
    11RH     C3 6341   0.277   4.631   2.810 -0.2280 -0.1640  0.0091
    11RH     C4 6342   0.054   4.707   2.895 -0.0164 -0.9191  1.7291
    11RH     S2 6343   0.363   4.706   2.934 -0.1059 -0.5822  0.1801
    11RH     O1 6344  -0.033   4.538   2.663 -0.3843  0.9353 -0.3637
    11RH     C5 6345   0.176   4.435   2.484 -0.5427  0.5723 -0.3386
    21BTZ    C6 6346   0.262   4.366   2.384 -0.0324  0.0203  0.0955
    21BTZ    C7 6347   0.395   4.371   2.418  0.0108  0.1886 -0.0973
    21BTZ    C8 6348   0.223   4.282   2.275 -0.0602  0.1109  0.0359
    21BTZ    C9 6349   0.495   4.295   2.347  0.0289  0.4532 -0.3567
    21BTZ   C10 6350   0.461   4.214   2.242  0.0036  0.5487 -0.4229
    21BTZ   C11 6351   0.324   4.205   2.202 -0.0419  0.3800 -0.2277
    21BTZ    N2 6352   0.097   4.269   2.232 -0.1028 -0.0346  0.2068
    21BTZ    N3 6353   0.279   4.129   2.101 -0.0698  0.4506 -0.2686
    21BTZ    S3 6354   0.102   4.154   2.095 -0.1217  0.1704  0.0345
    31IDT   C12 6355   0.561   4.134   2.163  1.3947  0.0340  0.1906
    31IDT   C13 6356   0.664   4.056   2.210  1.2412 -0.7722 -0.7746
    31IDT   C14 6357   0.742   3.998   2.106  0.1909 -0.8811 -1.5156
    31IDT   C15 6358   0.700   4.031   1.979 -0.4615 -0.1605 -1.1212
    31IDT    S4 6359   0.556   4.139   1.981  0.2096  0.7200  0.2317
    4IDB    C16 6360   0.799   3.962   1.880  0.5772 -0.2009 -0.3510
    4IDB    C17 6361   0.906   3.902   1.953  0.7142  0.1373 -0.2716
    51IDQ   C18 6362   0.870   3.899   2.106  0.1620 -0.1182  0.1123
    4IDB    C19 6363   1.008   3.833   1.887  0.8272  0.2105 -0.1744
    51IDQ   C20 6364   0.866   3.748   2.159 -1.6921  0.7895 -0.5481
    51IDQ   C21 6365   0.981   3.967   2.200 -0.2551 -1.1058  0.3848
    51IDQ   C22 6366   1.112   4.010   2.135  0.5495  1.0600 -0.6115
    51IDQ   C23 6367   0.736   3.670   2.161  1.2905 -0.1738 -0.4058
    51IDQ   C24 6368   1.226   3.928   2.183  0.5631 -0.5096  0.2033
    51IDQ   C25 6369   1.359   3.942   2.112 -0.0940  0.2685 -0.5342
    51IDQ   C26 6370   1.496   3.893   2.166 -0.7042  1.0254 -0.2395
    51IDQ   C27 6371   1.472   3.777   2.258 -0.5699 -0.4502  1.5520
    51IDQ   C28 6372   1.587   3.747   2.341 -0.6962  0.3177  0.4782
    51IDQ   C29 6373   1.711   3.664   2.312  0.1634 -0.5210  1.1483
    51IDQ   C30 6374   0.755   3.523   2.182  0.6730 -0.6425 -0.1015
    51IDQ   C31 6375   0.645   3.436   2.183  1.4497  0.7337 -0.0679
    51IDQ   C32 6376   0.553   3.430   2.310 -0.9571 -0.0528 -0.6785
    51IDQ   C33 6377   0.476   3.303   2.338 -0.4336 -1.5154 -0.9012
    51IDQ   C34 6378   0.493   3.164   2.291  0.0914  0.5362 -0.1911
    51IDQ   C35 6379   0.626   3.090   2.284  0.4805 -0.6020  0.2907
    4IDB    C36 6380   0.793   3.953   1.740  0.5523 -0.4693 -0.3335
    4IDB    C37 6381   0.898   3.882   1.674  0.6690 -0.3899 -0.2337
    11RH    C38 6382   0.029   4.849   2.872  0.4108 -1.8246 -0.4856
    4IDB    C39 6383   1.001   3.824   1.747  0.8022 -0.0582 -0.1569
    62IDT   C40 6384   1.080   3.750   1.642  1.0542  0.7249 -0.0853
    72IDQ   C41 6385   0.920   3.875   1.523 -0.9219 -1.0697  0.0517
    62IDT   C42 6386   1.033   3.776   1.515  1.0130  0.6188 -0.0924
    72IDQ   C43 6387   0.947   4.016   1.457  0.5215  0.1331  1.3487
    72IDQ   C44 6388   0.790   3.814   1.453 -1.3960  0.5446  0.0130
    62IDT    S5 6389   1.223   3.641   1.639  0.5815  0.0948  0.0026
    62IDT   C45 6390   1.211   3.637   1.458  0.3415 -0.2981  0.0264
    62IDT   C46 6391   1.107   3.712   1.411  0.6101  0.0402 -0.0291
    82BTZ   C47 6392   1.306   3.553   1.368 -0.3906 -0.4245 -0.1210
    82BTZ   C48 6393   1.269   3.526   1.239 -0.3549 -0.4561 -0.1246
    82BTZ   C49 6394   1.353   3.448   1.150 -0.2109 -0.2559 -0.1636
    82BTZ   C50 6395   1.474   3.399   1.191 -0.1028 -0.0244 -0.1989
    82BTZ   C51 6396   1.432   3.503   1.415 -0.2812 -0.1851 -0.1572
    82BTZ   C52 6397   1.517   3.424   1.325 -0.1348  0.0182 -0.1968
    92RH    C53 6398   1.552   3.280   1.119  0.4334 -0.3669  0.1317
    82BTZ    N4 6399   1.479   3.523   1.539 -0.3029 -0.1315 -0.1575
    82BTZ    N5 6400   1.633   3.381   1.377 -0.0389  0.2356 -0.2289
    82BTZ    S6 6401   1.638   3.440   1.545 -0.1335  0.1882 -0.2096
    92RH    C54 6402   1.526   3.181   1.033  0.1612 -0.3326  0.1742
    92RH     S7 6403   1.373   3.158   0.935  0.1739  0.1537  0.0406
    92RH    C55 6404   1.621   3.071   1.003 -0.2047 -0.6969  0.3422
    92RH     O2 6405   1.734   3.057   1.053 -0.3010 -1.0697  0.4612
    92RH     N6 6406   1.568   2.981   0.908 -0.4384 -0.5697  0.3524
    92RH    C56 6407   1.441   3.005   0.859 -0.3046 -0.1478  0.2131
    92RH    C57 6408   1.634   2.853   0.882 -0.7432 -0.3444  0.4792
    92RH    C58 6409   1.578   2.724   0.945  0.4100  0.9090  0.5806
    92RH     S8 6410   1.355   2.914   0.746 -0.5251  0.0843  0.1924
    72IDQ   C59 6411   0.775   3.798   1.295 -0.2382  0.2776 -0.5360
    72IDQ   C60 6412   0.615   3.764   1.278 -0.0945 -0.2256  0.0454
    72IDQ   C61 6413   0.570   3.744   1.140  0.3800 -0.1572 -0.1216
    72IDQ   C62 6414   0.437   3.816   1.112 -0.4079  0.2870  0.2379
    72IDQ   C63 6415   0.440   3.973   1.070 -0.1316  0.2010  0.3482
    72IDQ   C64 6416   0.557   4.059   1.130 -1.0599  0.4381  0.1276
    72IDQ   C65 6417   0.615   4.170   1.041 -0.0638 -1.2451 -0.0409
    72IDQ   C66 6418   1.037   4.117   1.531 -0.9171  0.0532  0.1928
    72IDQ   C67 6419   1.035   4.256   1.474 -0.5714 -0.5486 -0.4371
    72IDQ   C68 6420   1.122   4.371   1.528  1.6276  0.0719  0.2655
    72IDQ   C69 6421   1.149   4.370   1.681 -0.3492  0.0397  0.7002
    72IDQ   C70 6422   1.176   4.513   1.727 -0.6966  0.1140 -0.6375
    72IDQ   C71 6423   1.242   4.520   1.861 -0.5784  1.4381 -0.6674
    72IDQ   C72 6424   1.406   4.494   1.873  1.1282  0.5205 -0.2897
    11RH     C1 6425   4.957   6.585   4.644 -0.0343  0.7942 -0.5245
    11RH     C2 6426   5.022   6.482   4.559  0.2978  0.7231 -0.1886
    11RH     N1 6427   4.819   6.595   4.617  0.0049  0.5294 -0.8293
    11RH     S1 6428   4.897   6.405   4.449  0.6402  0.3126 -0.2956
    11RH     C3 6429   4.765   6.513   4.520  0.3281  0.2546 -0.7789
    11RH     C4 6430   4.754   6.716   4.677 -0.7846  0.9487 -0.2789
    11RH     S2 6431   4.605   6.506   4.469  0.4435 -0.0916 -1.0943
    11RH     O1 6432   5.015   6.654   4.729 -0.3154  1.0514 -0.5438
    11RH     C5 6433   5.152   6.452   4.565  0.3313  0.9335  0.1379
    21BTZ    C6 6434   5.227   6.363   4.472  0.1183  0.2982 -0.5792
    21BTZ    C7 6435   5.166   6.282   4.380  0.1040  0.4492 -0.7029
    21BTZ    C8 6436   5.370   6.363   4.480  0.1080  0.0472 -0.3834
    21BTZ    C9 6437   5.243   6.198   4.292  0.0787  0.3624 -0.6416
    21BTZ   C10 6438   5.380   6.194   4.296  0.0677  0.1242 -0.4562
    21BTZ   C11 6439   5.448   6.277   4.391  0.0820 -0.0412 -0.3209
    21BTZ    N2 6440   5.441   6.438   4.566  0.1197 -0.1180 -0.2496
    21BTZ    N3 6441   5.581   6.283   4.404  0.0734 -0.2775 -0.1369
    21BTZ    S3 6442   5.613   6.400   4.535  0.0986 -0.3996 -0.0330
    31IDT   C12 6443   5.452   6.107   4.201  0.5962  0.1128 -0.2309
    31IDT   C13 6444   5.425   6.088   4.068  1.4312  0.7610 -0.5074
    31IDT   C14 6445   5.495   5.977   4.012  1.3425  0.6812 -0.4594
    31IDT   C15 6446   5.576   5.911   4.102  0.4427 -0.0274 -0.1464
    31IDT    S4 6447   5.570   5.985   4.265 -0.3709 -0.6533  0.1136
    4IDB    C16 6448   5.636   5.797   4.045  0.1001 -0.7257  0.3465
    4IDB    C17 6449   5.587   5.785   3.911  0.3073 -0.2034  0.2173
    51IDQ   C18 6450   5.485   5.894   3.879  0.7929 -1.3155  0.8899
    4IDB    C19 6451   5.620   5.675   3.833  0.4790  0.1335 -0.1873
    51IDQ   C20 6452   5.536   5.967   3.752 -1.3963  0.1749  0.7944
    51IDQ   C21 6453   5.328   5.859   3.868  0.7238 -1.1610  0.6577
    51IDQ   C22 6454   5.278   5.712   3.855 -2.4667 -0.3024 -0.2095
    51IDQ   C23 6455   5.639   6.082   3.744 -0.1682 -0.2958 -0.7234
    51IDQ   C24 6456   5.138   5.653   3.807  0.1513  0.8018 -0.1916
    51IDQ   C25 6457   5.062   5.753   3.734 -0.2648 -0.2523 -0.5994
    51IDQ   C26 6458   4.941   5.692   3.663  0.2246  0.0976 -1.1389
    51IDQ   C27 6459   4.902   5.785   3.546 -0.1343  1.1127 -0.2259
    51IDQ   C28 6460   4.838   5.740   3.424  1.1307  0.6672 -1.2058
    51IDQ   C29 6461   4.930   5.643   3.357  1.4586 -0.7996 -0.0186
    51IDQ   C30 6462   5.695   6.132   3.604  0.5318 -0.1458 -1.6991
    51IDQ   C31 6463   5.761   6.032   3.509  0.8200 -0.0090 -1.0065
    51IDQ   C32 6464   5.849   6.102   3.409 -0.5385 -1.3652  0.4568
    51IDQ   C33 6465   5.947   5.999   3.344 -0.0587 -0.2438 -0.4251
    51IDQ   C34 6466   6.081   6.050   3.353 -1.0591  0.5953  0.1343
    51IDQ   C35 6467   6.177   5.941   3.319  1.0433 -0.2349  0.0011
    4IDB    C36 6468   5.720   5.699   4.101  0.0646 -0.9148  0.0703
    4IDB    C37 6469   5.752   5.587   4.019  0.2425 -0.5648 -0.3419
    11RH    C38 6470   4.705   6.688   4.819 -0.2893 -0.4174  0.8163
    4IDB    C39 6471   5.703   5.577   3.889  0.4436 -0.0557 -0.4635
    62IDT   C40 6472   5.747   5.454   3.826  0.1974  0.1961  0.2376
    72IDQ   C41 6473   5.868   5.479   4.032  2.1098  1.4441  0.1254
    62IDT   C42 6474   5.843   5.394   3.904  0.1779  0.1149  0.1996
    72IDQ   C43 6475   5.837   5.379   4.169 -1.5315  0.3815  1.2182
    72IDQ   C44 6476   6.002   5.557   4.047  1.0880 -0.6653  0.3461
    62IDT    S5 6477   5.723   5.368   3.670 -0.0755  0.1011  0.3311
    62IDT   C45 6478   5.851   5.250   3.721 -0.2079 -0.0508  0.3129
    62IDT   C46 6479   5.903   5.278   3.845 -0.0510 -0.0248  0.2422
    82BTZ   C47 6480   5.917   5.165   3.627 -0.2435 -0.1111  0.3141
    82BTZ   C48 6481   5.913   5.189   3.492 -0.2661 -0.0780  0.3207
    82BTZ   C49 6482   5.990   5.110   3.399 -0.2227 -0.0062  0.2955
    82BTZ   C50 6483   6.071   5.007   3.440 -0.1572  0.0322  0.2639
    82BTZ   C51 6484   6.000   5.058   3.675 -0.1752 -0.0734  0.2815
    82BTZ   C52 6485   6.078   4.978   3.581 -0.1314 -0.0005  0.2559
    92RH    C53 6486   6.138   4.922   3.350 -0.7874 -0.2475 -0.3154
    82BTZ    N4 6487   6.012   5.025   3.804 -0.1478 -0.1001  0.2720
    82BTZ    N5 6488   6.152   4.881   3.633 -0.0684  0.0312  0.2260
    82BTZ    S6 6489   6.125   4.887   3.810 -0.0626 -0.0318  0.2292
    92RH    C54 6490   6.136   4.909   3.217 -0.4880 -0.1881 -0.3263
    92RH     S7 6491   6.062   5.025   3.097  0.1040  0.0511 -0.4669
    92RH    C55 6492   6.197   4.794   3.145 -0.5968 -0.3111 -0.2218
    92RH     O2 6493   6.255   4.698   3.198 -0.9696 -0.4807 -0.1144
    92RH     N6 6494   6.180   4.806   3.006 -0.2184 -0.2112 -0.2596
    92RH    C56 6495   6.114   4.917   2.957  0.1798 -0.0236 -0.3812
    92RH    C57 6496   6.192   4.684   2.921  0.6266  0.2541 -1.0151
    92RH    C58 6497   6.312   4.687   2.835 -0.0630 -0.6122  1.1093
    92RH     S8 6498   6.081   4.955   2.796  0.6759  0.1259 -0.4493
    72IDQ   C59 6499   6.024   5.628   4.181  1.7282 -0.5980 -0.0291
    72IDQ   C60 6500   6.160   5.685   4.177 -0.3097 -1.7153  0.4715
    72IDQ   C61 6501   6.178   5.830   4.148  0.3930  0.0052  0.2491
    72IDQ   C62 6502   6.284   5.886   4.048  0.7931  0.6083  1.7348
    72IDQ   C63 6503   6.268   6.026   3.992  0.6544 -0.5534 -1.0293
    72IDQ   C64 6504   6.161   6.129   3.994  0.2310  0.3250  0.6523
    72IDQ   C65 6505   6.043   6.095   3.902 -0.3655  1.1837 -0.1530
    72IDQ   C66 6506   5.942   5.256   4.186  0.9759 -1.0323 -0.6320
    72IDQ   C67 6507   5.909   5.169   4.305  0.5186 -0.9351 -1.0194
    72IDQ   C68 6508   6.033   5.095   4.351 -0.0551  0.1489  0.7377
    72IDQ   C69 6509   6.006   5.008   4.465  0.9405 -0.8286 -1.2775
    72IDQ   C70 6510   6.075   5.063   4.594 -0.1574 -0.5037 -0.9619
    72IDQ   C71 6511   6.071   4.962   4.692  0.8083 -0.6552  0.0392
    72IDQ   C72 6512   6.067   5.030   4.835 -0.3310  0.7440 -0.4366
    11RH     C1 6513   3.941   6.293   1.558  0.0741  0.2913 -0.4485
    11RH     C2 6514   3.952   6.370   1.432  0.2376  0.4551 -0.3331
    11RH     N1 6515   3.969   6.156   1.538 -0.0941  0.2834 -0.6283
    11RH     S1 6516   4.000   6.258   1.295  0.1593  0.5877 -0.4685
    11RH     C3 6517   4.002   6.114   1.410 -0.0856  0.4206 -0.6711
    11RH     C4 6518   3.971   6.052   1.650 -1.0718 -0.1345 -0.5163
    11RH     S2 6519   4.040   5.958   1.359 -0.2644  0.4430 -0.8737
    11RH     O1 6520   3.910   6.339   1.669  0.0802  0.1736 -0.3973
    11RH     C5 6521   3.931   6.502   1.425  0.4135  0.4951 -0.1571
    21BTZ    C6 6522   3.927   6.603   1.317 -0.0341  0.0240  0.7797
    21BTZ    C7 6523   3.953   6.573   1.186 -0.2391 -0.1874  0.7862
    21BTZ    C8 6524   3.922   6.741   1.357 -0.1798  0.0932  0.5226
    21BTZ    C9 6525   3.976   6.677   1.088 -0.5952 -0.3402  0.5421
    21BTZ   C10 6526   3.972   6.809   1.121 -0.7455 -0.2818  0.2919
    21BTZ   C11 6527   3.945   6.846   1.257 -0.5416 -0.0625  0.2745
    21BTZ    N2 6528   3.897   6.783   1.482 -0.0061  0.2944  0.4902
    21BTZ    N3 6529   3.938   6.972   1.301 -0.6589  0.0138  0.0427
    21BTZ    S3 6530   3.902   6.961   1.476 -0.3043  0.2940  0.1337
    31IDT   C12 6531   3.987   6.906   1.005  0.9135  0.0421  0.7449
    31IDT   C13 6532   3.957   7.039   1.020  0.0874 -0.1285  0.6753
    31IDT   C14 6533   3.933   7.105   0.896 -0.8415 -0.4547  0.6761
    31IDT   C15 6534   3.944   7.023   0.786 -0.7299 -0.5341  0.7461
    31IDT    S4 6535   3.986   6.855   0.831  0.5720 -0.1993  0.8170
    4IDB    C16 6536   3.919   7.089   0.675 -0.0185  0.4083  0.9967
    4IDB    C17 6537   3.901   7.229   0.698 -0.2193  0.4817  0.4158
    51IDQ   C18 6538   3.893   7.252   0.847 -0.0974  0.2855 -0.1447
    4IDB    C19 6539   3.899   7.319   0.593 -0.2286  0.0533  0.0481
    51IDQ   C20 6540   4.004   7.352   0.907 -0.3124  0.1227 -0.9143
    51IDQ   C21 6541   3.759   7.289   0.912 -0.6496 -0.3333 -0.0636
    51IDQ   C22 6542   3.631   7.324   0.815 -0.5229  0.7945 -1.9518
    51IDQ   C23 6543   3.992   7.426   1.037 -0.2380  0.5705  0.2554
    51IDQ   C24 6544   3.519   7.359   0.917 -0.8115 -0.2045 -0.6412
    51IDQ   C25 6545   3.574   7.496   0.992 -0.4391  0.9285  0.4090
    51IDQ   C26 6546   3.581   7.492   1.148  0.5714 -0.9644 -0.5085
    51IDQ   C27 6547   3.446   7.476   1.228  0.9859 -0.2796 -0.4233
    51IDQ   C28 6548   3.395   7.339   1.248 -0.1564 -0.5385 -0.8141
    51IDQ   C29 6549   3.389   7.305   1.399 -0.2686 -0.0607  0.0580
    51IDQ   C30 6550   4.093   7.374   1.140  0.3798  0.3304 -0.1013
    51IDQ   C31 6551   4.044   7.415   1.274  0.0782  0.7649  0.8399
    51IDQ   C32 6552   3.950   7.321   1.348 -0.4737  0.1130 -0.5792
    51IDQ   C33 6553   3.899   7.375   1.494  0.2929  0.1288  0.8320
    51IDQ   C34 6554   3.760   7.339   1.544  0.3970  0.3541  0.1225
    51IDQ   C35 6555   3.661   7.452   1.535  1.6503 -0.1420 -0.2027
    4IDB    C36 6556   3.935   7.039   0.545  0.1754 -0.0975  1.2140
    4IDB    C37 6557   3.932   7.132   0.438  0.1627 -0.5306  0.8318
    11RH    C38 6558   3.836   5.995   1.691  0.4837 -0.1401  0.5501
    4IDB    C39 6559   3.914   7.269   0.463 -0.0347 -0.4525  0.2654
    62IDT   C40 6560   3.908   7.331   0.337  0.0975  0.2620 -0.6914
    72IDQ   C41 6561   3.932   7.100   0.279 -1.0686 -0.1086  0.4300
    62IDT   C42 6562   3.905   7.241   0.232  0.2735  0.5490 -0.9445
    72IDQ   C43 6563   3.819   6.984   0.242  0.8269  0.7227 -0.1500
    72IDQ   C44 6564   4.056   7.025   0.233  0.6132  0.8243 -0.3358
    62IDT    S5 6565   3.891   7.501   0.281  0.1537  0.4153 -0.2514
    62IDT   C45 6566   3.880   7.438   0.110  0.4256  0.8821 -0.4420
    62IDT   C46 6567   3.889   7.302   0.104  0.4592  0.8999 -0.8039
    82BTZ   C47 6568   3.886   7.524  -0.007  0.3491 -0.4974 -0.0594
    82BTZ   C48 6569   3.836   7.650   0.010  0.5225 -0.4737  0.2840
    82BTZ   C49 6570   3.829   7.745  -0.098  0.4027 -0.2616  0.4756
    82BTZ   C50 6571   3.874   7.714  -0.224  0.1095 -0.0736  0.3240
    82BTZ   C51 6572   3.934   7.487  -0.137  0.0407 -0.3054 -0.2296
    82BTZ   C52 6573   3.928   7.583  -0.247 -0.0812 -0.0899 -0.0348
    92RH    C53 6574   3.891   7.822  -0.336  0.5089  0.6426 -0.6627
    82BTZ    N4 6575   3.986   7.367  -0.166 -0.1507 -0.3075 -0.5629
    82BTZ    N5 6576   3.975   7.541  -0.365 -0.3701  0.0812 -0.2117
    82BTZ    S6 6577   4.030   7.373  -0.340 -0.5016 -0.0282 -0.6431
    92RH    C54 6578   3.852   7.950  -0.338  0.2573  0.5697 -0.5672
    92RH     S7 6579   3.725   8.029  -0.232  0.6230  0.4041 -0.0018
    92RH    C55 6580   3.910   8.051  -0.431 -0.3786  0.6140 -0.9179
    92RH     O2 6581   3.998   8.030  -0.515 -0.7465  0.7216 -1.3340
    92RH     N6 6582   3.851   8.178  -0.411 -0.5234  0.5176 -0.7217
    92RH    C56 6583   3.754   8.191  -0.315 -0.0815  0.4014 -0.2565
    92RH    C57 6584   3.897   8.292  -0.502 -0.2092  0.4093  1.2216
    92RH    C58 6585   3.986   8.399  -0.445  0.5126 -0.5086 -0.2945
    92RH     S8 6586   3.668   8.330  -0.272 -0.1369  0.2716  0.0594
    72IDQ   C59 6587   4.204   7.081   0.240  0.6545 -0.2345  1.3848
    72IDQ   C60 6588   4.265   7.115   0.384  1.0258 -1.1804  0.7678
    72IDQ   C61 6589   4.353   7.234   0.389 -0.4669  0.1759 -0.1140
    72IDQ   C62 6590   4.464   7.266   0.290 -0.3910 -0.8522 -0.2217
    72IDQ   C63 6591   4.430   7.285   0.142 -0.9094  1.1994 -0.3048
    72IDQ   C64 6592   4.354   7.396   0.065  0.6594 -0.5040 -0.9952
    72IDQ   C65 6593   4.414   7.523   0.116  0.2955  0.7860  1.0327
    72IDQ   C66 6594   3.776   6.959   0.109 -1.6061 -0.7165  1.1413
    72IDQ   C67 6595   3.642   6.897   0.113  1.0809  0.0937  0.2064
    72IDQ   C68 6596   3.616   6.752   0.075 -0.2514  0.2487  0.2693
    72IDQ   C69 6597   3.683   6.713  -0.052  0.5391  1.0287 -0.0287
    72IDQ   C70 6598   3.837   6.668  -0.047 -0.2371 -0.4649 -0.2437
    72IDQ   C71 6599   3.913   6.611  -0.167 -0.0140 -0.4979 -0.1221
    72IDQ   C72 6600   4.034   6.698  -0.202 -0.5181 -0.9087  0.3762
    11RH     C1 6601   3.016   6.991   4.640 -0.0521 -0.4208  0.0534
    11RH     C2 6602   3.096   7.004   4.516 -0.1829 -0.3753 -0.0269
    11RH     N1 6603   3.027   6.862   4.696  0.3811 -0.2970  0.2518
    11RH     S1 6604   3.182   6.845   4.481  0.2725 -0.1723  0.1636
    11RH     C3 6605   3.107   6.770   4.632  0.6136 -0.1576  0.3402
    11RH     C4 6606   2.960   6.824   4.833  0.2050  0.2255  1.0664
    11RH     S2 6607   3.138   6.610   4.678  1.1309  0.0069  0.5729
    11RH     O1 6608   2.946   7.080   4.690 -0.2866 -0.5507 -0.0384
    11RH     C5 6609   3.102   7.116   4.443 -0.5768 -0.4713 -0.2116
    21BTZ    C6 6610   3.169   7.174   4.326 -0.3099  0.2387 -0.0789
    21BTZ    C7 6611   3.264   7.092   4.271 -0.4489  0.1092 -0.1235
    21BTZ    C8 6612   3.178   7.315   4.301 -0.2166  0.2102 -0.2084
    21BTZ    C9 6613   3.371   7.143   4.189 -0.5031 -0.0538 -0.2966
    21BTZ   C10 6614   3.383   7.277   4.162 -0.4179 -0.0870 -0.4247
    21BTZ   C11 6615   3.287   7.367   4.217 -0.2716  0.0445 -0.3841
    21BTZ    N2 6616   3.092   7.405   4.349 -0.0794  0.3264 -0.1807
    21BTZ    N3 6617   3.288   7.499   4.199 -0.1785  0.0275 -0.4981
    21BTZ    S3 6618   3.148   7.564   4.289 -0.0131  0.2268 -0.3824
    31IDT   C12 6619   3.496   7.318   4.075  0.0661  0.5470 -0.9543
    31IDT   C13 6620   3.528   7.442   4.025  0.0515  0.4924 -1.0982
    31IDT   C14 6621   3.660   7.448   3.973  0.1597  0.5362 -0.8183
    31IDT   C15 6622   3.731   7.330   3.983  0.2573  0.6243 -0.4606
    31IDT    S4 6623   3.634   7.200   4.060  0.2194  0.6589 -0.4498
    4IDB    C16 6624   3.862   7.356   3.913 -0.5334 -0.7055 -0.1950
    4IDB    C17 6625   3.874   7.496   3.887 -0.2847 -0.4900  0.9822
    51IDQ   C18 6626   3.743   7.562   3.920 -0.9177 -0.0474 -0.5896
    4IDB    C19 6627   3.989   7.548   3.829 -0.2230 -0.2141  1.3498
    51IDQ   C20 6628   3.762   7.690   4.006 -1.4416 -1.1144  0.6917
    51IDQ   C21 6629   3.658   7.633   3.801 -0.0998 -0.5426  0.1921
    51IDQ   C22 6630   3.698   7.634   3.652 -0.3600  0.5602 -0.2564
    51IDQ   C23 6631   3.694   7.701   4.144 -1.1018 -0.1542 -0.1750
    51IDQ   C24 6632   3.614   7.539   3.572  0.4338 -0.7307 -0.1290
    51IDQ   C25 6633   3.692   7.431   3.495 -2.2051 -0.1833 -0.9483
    51IDQ   C26 6634   3.845   7.427   3.464  0.0014 -0.2525  0.0038
    51IDQ   C27 6635   3.852   7.543   3.354  0.3354  0.4095 -1.2879
    51IDQ   C28 6636   3.799   7.532   3.204 -0.1840 -1.2020 -0.8790
    51IDQ   C29 6637   3.827   7.385   3.129 -1.5710 -0.0290 -0.8868
    51IDQ   C30 6638   3.686   7.842   4.201  0.2320  0.3016  1.0296
    51IDQ   C31 6639   3.590   7.947   4.133  0.7402  0.5649 -0.0683
    51IDQ   C32 6640   3.448   7.916   4.063  0.6841  0.5070 -0.2404
    51IDQ   C33 6641   3.345   8.023   4.053  0.6930  1.4077 -0.1387
    51IDQ   C34 6642   3.292   8.109   4.166 -0.5468  0.9214 -1.3544
    51IDQ   C35 6643   3.169   8.191   4.146 -0.5245 -0.0238  0.8086
    4IDB    C36 6644   3.966   7.267   3.882 -0.7231 -0.6457 -1.0160
    4IDB    C37 6645   4.083   7.323   3.823 -0.6564 -0.3625 -0.6243
    11RH    C38 6646   3.020   6.775   4.968 -2.2041  1.3974 -0.0400
    4IDB    C39 6647   4.093   7.459   3.797 -0.4127 -0.1543  0.5290
    62IDT   C40 6648   4.219   7.484   3.725  0.3342  0.0305  0.2765
    72IDQ   C41 6649   4.220   7.260   3.789  0.0577  0.1264 -0.3505
    62IDT   C42 6650   4.284   7.365   3.702  0.0298 -0.0699 -0.0818
    72IDQ   C43 6651   4.198   7.126   3.700  0.4350 -0.6835  0.2344
    72IDQ   C44 6652   4.289   7.238   3.933 -0.0574  0.1045  0.9971
    62IDT    S5 6653   4.298   7.622   3.641  0.1174 -0.0840 -0.1204
    62IDT   C45 6654   4.422   7.505   3.577 -0.3981 -0.2707 -0.7822
    62IDT   C46 6655   4.399   7.376   3.618 -0.3848 -0.2403 -0.6807
    82BTZ   C47 6656   4.537   7.540   3.500 -0.5399 -0.4002 -1.1625
    82BTZ   C48 6657   4.548   7.672   3.463 -0.3586 -0.4148 -1.1650
    82BTZ   C49 6658   4.657   7.720   3.383 -0.0103 -0.4659 -0.7256
    82BTZ   C50 6659   4.757   7.636   3.339  0.1555 -0.5023 -0.2842
    82BTZ   C51 6660   4.639   7.449   3.456 -0.3774 -0.4369 -0.7092
    82BTZ   C52 6661   4.750   7.497   3.375 -0.0236 -0.4888 -0.2626
    92RH    C53 6662   4.862   7.694   3.255 -0.1100  0.0892 -0.0828
    82BTZ    N4 6663   4.640   7.318   3.486 -0.5276 -0.4272 -0.6603
    82BTZ    N5 6664   4.841   7.406   3.338  0.1109 -0.5208  0.1454
    82BTZ    S6 6665   4.786   7.251   3.408 -0.2163 -0.4853 -0.0278
    92RH    C54 6666   4.889   7.812   3.197 -0.3242  0.1273 -0.1065
    92RH     S7 6667   4.770   7.948   3.165 -0.5788 -0.1062 -0.1598
    92RH    C55 6668   5.024   7.851   3.150 -0.3896  0.3735 -0.0926
    92RH     O2 6669   5.126   7.780   3.157 -0.2565  0.5699 -0.0578
    92RH     N6 6670   5.023   7.980   3.093 -0.6265  0.3598 -0.1237
    92RH    C56 6671   4.905   8.050   3.090 -0.7594  0.1326 -0.1609
    92RH    C57 6672   5.143   8.029   3.018 -0.1341  0.8726  0.6269
    92RH    C58 6673   5.248   8.102   3.097 -1.2240 -0.7418 -0.3081
    92RH     S8 6674   4.877   8.204   3.028 -1.0436  0.0664 -0.2028
    72IDQ   C59 6675   4.263   7.100   4.013  0.3450 -0.2390 -1.5893
    72IDQ   C60 6676   4.283   7.126   4.173  0.2784  0.7410 -0.2084
    72IDQ   C61 6677   4.169   7.192   4.245  0.7808  1.1650  0.4720
    72IDQ   C62 6678   4.197   7.221   4.398  0.8008  0.8352 -0.6662
    72IDQ   C63 6679   4.091   7.185   4.493 -1.4098  0.5601 -1.2754
    72IDQ   C64 6680   3.950   7.137   4.434  0.2413  0.0570 -1.1570
    72IDQ   C65 6681   3.928   6.987   4.440 -0.1151 -0.6682 -0.4363
    72IDQ   C66 6682   4.323   7.041   3.704  1.5574  0.1917 -0.5414
    72IDQ   C67 6683   4.268   6.917   3.621 -0.0029 -0.5023 -0.7282
    72IDQ   C68 6684   4.371   6.818   3.563  1.0431  0.5030  0.3008
    72IDQ   C69 6685   4.419   6.863   3.430  1.7615 -1.2313  1.3478
    72IDQ   C70 6686   4.553   6.809   3.404  0.1662 -0.1805 -0.0573
    72IDQ   C71 6687   4.666   6.895   3.407 -0.4212 -1.0814 -0.3060
    72IDQ   C72 6688   4.742   6.912   3.544 -0.1478 -1.3877  1.3161
    11RH     C1 6689   5.113   4.797   2.798  0.2031  0.2561 -0.0939
    11RH     C2 6690   5.258   4.820   2.776  0.2086  0.3524  0.0367
    11RH     N1 6691   5.089   4.668   2.852  0.2399  0.2410 -0.1139
    11RH     S1 6692   5.353   4.671   2.827  0.2616  0.4162  0.1247
    11RH     C3 6693   5.197   4.586   2.876  0.2739  0.3130 -0.0153
    11RH     C4 6694   4.953   4.625   2.871  0.1792  0.3540 -0.1967
    11RH     S2 6695   5.195   4.430   2.939  0.3211  0.3130 -0.0144
    11RH     O1 6696   5.023   4.878   2.774  0.1709  0.1953 -0.1771
    11RH     C5 6697   5.308   4.933   2.725  0.1785  0.3844  0.0800
    21BTZ    C6 6698   5.444   4.977   2.686 -0.6414 -0.4261 -0.6366
    21BTZ    C7 6699   5.551   4.895   2.711 -0.5758 -0.3512 -0.6703
    21BTZ    C8 6700   5.456   5.076   2.582 -0.6633 -0.2644 -0.4842
    21BTZ    C9 6701   5.674   4.907   2.637 -0.5288 -0.1149 -0.5571
    21BTZ   C10 6702   5.690   5.000   2.538 -0.5477  0.0462 -0.4101
    21BTZ   C11 6703   5.581   5.087   2.507 -0.6156 -0.0238 -0.3691
    21BTZ    N2 6704   5.358   5.161   2.548 -0.7260 -0.3169 -0.4377
    21BTZ    N3 6705   5.584   5.182   2.413 -0.6397  0.1168 -0.2300
    21BTZ    S3 6706   5.424   5.262   2.416 -0.7265 -0.0555 -0.2405
    31IDT   C12 6707   5.817   4.994   2.459 -0.1581 -0.8144 -0.2049
    31IDT   C13 6708   5.940   5.024   2.511 -0.1295 -0.9429 -0.1975
    31IDT   C14 6709   6.042   5.036   2.411 -0.1695 -0.7644 -0.2179
    31IDT   C15 6710   5.997   5.015   2.283 -0.2290 -0.4994 -0.2405
    31IDT    S4 6711   5.821   4.979   2.278 -0.2385 -0.4547 -0.2378
    4IDB    C16 6712   6.115   5.025   2.196 -0.4747  0.1746  0.2011
    4IDB    C17 6713   6.235   5.052   2.270 -0.4737  1.1835 -0.1545
    51IDQ   C18 6714   6.196   5.062   2.417 -1.5746  0.3112 -0.0563
    4IDB    C19 6715   6.359   5.046   2.209 -0.4937  0.6190 -0.1479
    51IDQ   C20 6716   6.248   4.959   2.519 -0.3094  0.0885 -0.0898
    51IDQ   C21 6717   6.212   5.216   2.468 -0.8084 -1.0643  1.1927
    51IDQ   C22 6718   6.287   5.243   2.598  0.6571 -0.3777 -0.6034
    51IDQ   C23 6719   6.368   4.862   2.509  1.4731 -0.2972  0.2188
    51IDQ   C24 6720   6.343   5.386   2.620  0.5624 -0.1201 -0.2095
    51IDQ   C25 6721   6.409   5.416   2.755  0.5984 -0.0808  0.4213
    51IDQ   C26 6722   6.311   5.391   2.863  0.3257 -0.4442  0.0603
    51IDQ   C27 6723   6.391   5.370   2.990 -0.2058 -0.6903 -1.3049
    51IDQ   C28 6724   6.298   5.323   3.103 -0.3676  1.3173 -0.6302
    51IDQ   C29 6725   6.327   5.334   3.251 -1.0027 -0.0681  0.1401
    51IDQ   C30 6726   6.362   4.750   2.393 -0.2619  0.0776 -0.1197
    51IDQ   C31 6727   6.508   4.704   2.380 -1.0839 -1.1308 -0.3561
    51IDQ   C32 6728   6.486   4.560   2.349  1.5462  0.6572 -0.4078
    51IDQ   C33 6729   6.603   4.480   2.379 -0.2878  0.4307  0.5141
    51IDQ   C34 6730   6.548   4.332   2.372 -0.9662 -0.6080 -0.5014
    51IDQ   C35 6731   6.518   4.273   2.233  0.1850 -0.2836  0.0289
    4IDB    C36 6732   6.120   4.992   2.060 -0.4954 -1.4148  0.5676
    4IDB    C37 6733   6.249   4.986   1.999 -0.5159 -1.9710  0.5685
    11RH    C38 6734   4.897   4.566   2.734  0.9862  0.2745 -0.4438
    4IDB    C39 6735   6.364   5.013   2.072 -0.5151 -0.9705  0.2186
    62IDT   C40 6736   6.487   5.013   2.001 -0.2513 -0.7555 -0.0843
    72IDQ   C41 6737   6.300   4.959   1.857  0.5998  2.2005 -1.0666
    62IDT   C42 6738   6.461   4.949   1.881 -0.3862 -1.0531  0.1053
    72IDQ   C43 6739   6.250   5.067   1.761  0.7994  0.6162  1.0958
    72IDQ   C44 6740   6.280   4.800   1.800  0.9058 -0.0021 -0.2250
    62IDT    S5 6741   6.661   5.057   2.016 -0.3607 -0.0932 -0.6931
    62IDT   C45 6742   6.689   4.983   1.852 -0.5944 -0.2624 -0.6573
    62IDT   C46 6743   6.575   4.932   1.797 -0.5803 -0.7751 -0.2185
    82BTZ   C47 6744   6.820   4.985   1.783 -0.0800  0.3069 -0.7113
    82BTZ   C48 6745   6.890   5.103   1.785 -0.0899  0.3231 -1.2216
    82BTZ   C49 6746   7.016   5.118   1.717 -0.1265  0.0627 -1.3473
    82BTZ   C50 6747   7.073   5.015   1.647 -0.1532 -0.2136 -0.9625
    82BTZ   C51 6748   6.876   4.874   1.711 -0.1070  0.0224 -0.2943
    82BTZ   C52 6749   7.004   4.889   1.642 -0.1442 -0.2422 -0.4221
    92RH    C53 6750   7.189   5.052   1.552  0.4103  0.1897 -0.6997
    82BTZ    N4 6751   6.817   4.754   1.702 -0.1009 -0.0219  0.2177
    82BTZ    N5 6752   7.049   4.781   1.577 -0.1681 -0.4992 -0.0128
    82BTZ    S6 6753   6.927   4.653   1.602 -0.1430 -0.4121  0.5654
    92RH    C54 6754   7.247   5.167   1.514  0.3956  0.1872 -0.7295
    92RH     S7 6755   7.236   5.329   1.600  0.6178  0.1390 -0.6086
    92RH    C55 6756   7.331   5.180   1.393  0.1895  0.2248 -0.8700
    92RH     O2 6757   7.358   5.088   1.314  0.0096  0.2618 -0.9748
    92RH     N6 6758   7.379   5.311   1.378  0.2214  0.2130 -0.8716
    92RH    C56 6759   7.343   5.406   1.472  0.4278  0.1709 -0.7495
    92RH    C57 6760   7.474   5.331   1.271  0.0461  1.0268  0.9777
    92RH    C58 6761   7.423   5.343   1.126  0.0435 -0.3748  0.4325
    92RH     S8 6762   7.386   5.569   1.476  0.5088  0.1488 -0.7234
    72IDQ   C59 6763   6.157   4.781   1.695  0.7560  0.5543  0.2301
    72IDQ   C60 6764   6.193   4.828   1.561  0.0783  0.3802 -0.5106
    72IDQ   C61 6765   6.333   4.780   1.487  0.5639 -1.2601  1.3790
    72IDQ   C62 6766   6.316   4.664   1.384 -0.4163 -0.5439 -0.3449
    72IDQ   C63 6767   6.218   4.697   1.264  1.0524  0.2816 -0.4955
    72IDQ   C64 6768   6.097   4.591   1.272 -1.8863  0.3869 -0.3139
    72IDQ   C65 6769   6.030   4.583   1.135 -0.7449 -1.8855  1.0976
    72IDQ   C66 6770   6.294   5.212   1.783 -0.4838 -1.3881 -1.0040
    72IDQ   C67 6771   6.300   5.297   1.659  0.6270  0.0296  1.6393
    72IDQ   C68 6772   6.174   5.378   1.644 -0.3835 -1.1950  0.2394
    72IDQ   C69 6773   6.165   5.423   1.492  0.6398  0.4802 -0.5093
    72IDQ   C70 6774   6.062   5.531   1.431  0.1578  1.3884 -0.5633
    72IDQ   C71 6775   5.917   5.469   1.427 -1.2314  0.1018 -0.0377
    72IDQ   C72 6776   5.806   5.559   1.478 -0.8238  1.1367  1.2337
    11RH     C1 6777   2.520   4.317   4.260 -0.0806 -0.2186 -0.7508
    11RH     C2 6778   2.483   4.203   4.348  0.1551 -0.0246 -0.4001
    11RH     N1 6779   2.444   4.432   4.289 -0.1836 -0.2306 -0.9755
    11RH     S1 6780   2.350   4.255   4.463  0.2257  0.1295 -0.3870
    11RH     C3 6781   2.350   4.424   4.389 -0.0596 -0.0701 -0.8466
    11RH     C4 6782   2.488   4.576   4.252 -0.2141 -1.0109  0.8766
    11RH     S2 6783   2.246   4.546   4.443 -0.1421 -0.0460 -1.0579
    11RH     O1 6784   2.607   4.314   4.171 -0.1791 -0.3557 -0.8440
    11RH     C5 6785   2.541   4.083   4.341  0.2901  0.0247 -0.1383
    21BTZ    C6 6786   2.531   3.948   4.403 -0.3931 -0.4016 -0.2508
    21BTZ    C7 6787   2.430   3.896   4.478 -0.3921 -0.6845 -0.4456
    21BTZ    C8 6788   2.633   3.860   4.353 -0.2409 -0.1720 -0.3476
    21BTZ    C9 6789   2.423   3.755   4.508 -0.2425 -0.7555 -0.7429
    21BTZ   C10 6790   2.518   3.667   4.463 -0.0941 -0.5436 -0.8451
    21BTZ   C11 6791   2.626   3.717   4.383 -0.0888 -0.2443 -0.6497
    21BTZ    N2 6792   2.736   3.900   4.278 -0.2263  0.1115 -0.1783
    21BTZ    N3 6793   2.724   3.641   4.333  0.0480 -0.0188 -0.7236
    21BTZ    S3 6794   2.831   3.753   4.243 -0.0129  0.3021 -0.4033
    31IDT   C12 6795   2.487   3.524   4.474  0.1155  0.5444  0.4922
    31IDT   C13 6796   2.556   3.410   4.443  0.1798  0.4710  0.8960
    31IDT   C14 6797   2.479   3.291   4.460  0.0843  0.5243  0.8397
    31IDT   C15 6798   2.350   3.313   4.505 -0.0525  0.6383  0.3942
    31IDT    S4 6799   2.317   3.488   4.529 -0.0720  0.6878  0.0075
    4IDB    C16 6800   2.278   3.186   4.539 -0.0340  0.2114  0.1195
    4IDB    C17 6801   2.357   3.087   4.474 -0.3507 -0.1328  0.2549
    51IDQ   C18 6802   2.495   3.137   4.450 -0.4826  0.0254 -1.4454
    4IDB    C19 6803   2.307   2.959   4.452 -0.9258  0.1239  0.0353
    51IDQ   C20 6804   2.553   3.058   4.570  0.5784 -0.1151 -0.7277
    51IDQ   C21 6805   2.550   3.100   4.314 -0.1241 -0.4110  0.8659
    51IDQ   C22 6806   2.688   3.041   4.299 -0.8499  0.0151 -0.0796
    51IDQ   C23 6807   2.633   3.110   4.689  0.1012  1.4902 -0.3636
    51IDQ   C24 6808   2.686   2.891   4.318  0.6996 -0.1780  0.5556
    51IDQ   C25 6809   2.831   2.817   4.309  0.9573 -1.5025 -0.0398
    51IDQ   C26 6810   2.849   2.733   4.430  0.9623 -1.1352 -1.2811
    51IDQ   C27 6811   2.951   2.755   4.542 -0.8387 -1.5208  0.4619
    51IDQ   C28 6812   2.956   2.891   4.594  0.3381  0.2493 -1.1804
    51IDQ   C29 6813   3.031   2.887   4.722 -1.7545  1.0030 -0.9617
    51IDQ   C30 6814   2.669   2.988   4.797 -0.3617 -1.2199  1.4224
    51IDQ   C31 6815   2.614   2.999   4.942  1.3540 -0.1516 -0.1719
    51IDQ   C32 6816   2.543   2.867   5.008  1.5365  0.6802 -0.4507
    51IDQ   C33 6817   2.622   2.733   5.030 -0.2147  0.1799 -0.1417
    51IDQ   C34 6818   2.754   2.750   5.088 -1.4547 -0.1165  0.3508
    51IDQ   C35 6819   2.861   2.657   5.045 -0.2292  1.0095 -0.4370
    4IDB    C36 6820   2.147   3.158   4.583 -0.2927  0.8183 -0.2379
    4IDB    C37 6821   2.098   3.026   4.560 -0.8807  1.0731 -0.4582
    11RH    C38 6822   2.579   4.654   4.352  0.5967  0.3628  0.7499
    4IDB    C39 6823   2.177   2.930   4.496 -1.1844  0.7307 -0.3221
    62IDT   C40 6824   2.117   2.800   4.497  0.2548  0.3843 -0.2643
    72IDQ   C41 6825   1.960   2.955   4.585  1.2145  0.7488 -1.1017
    62IDT   C42 6826   1.987   2.806   4.542  0.1964  0.3165 -0.4237
    72IDQ   C43 6827   1.834   3.016   4.494  1.1056  0.7046  0.8192
    72IDQ   C44 6828   1.920   2.968   4.737  0.7155 -1.6035 -0.3232
    62IDT    S5 6829   2.165   2.633   4.451  0.5113  0.3482  0.1274
    62IDT   C45 6830   1.998   2.577   4.497  0.5269  0.2380  0.0514
    62IDT   C46 6831   1.919   2.680   4.542  0.3502  0.2338 -0.2453
    82BTZ   C47 6832   1.966   2.430   4.485 -0.1868 -0.1563 -0.7578
    82BTZ   C48 6833   2.063   2.343   4.526 -0.5963 -0.2668 -0.0029
    82BTZ   C49 6834   2.045   2.200   4.516 -1.0951 -0.2716  0.8388
    82BTZ   C50 6835   1.930   2.145   4.465 -1.1837 -0.1661  0.9242
    82BTZ   C51 6836   1.844   2.378   4.431 -0.2601 -0.0434 -0.7029
    82BTZ   C52 6837   1.826   2.233   4.421 -0.7672 -0.0483  0.1528
    92RH    C53 6838   1.907   1.995   4.449  0.2300  0.5852  0.4030
    82BTZ    N4 6839   1.742   2.453   4.388  0.1088  0.0696 -1.3914
    82BTZ    N5 6840   1.710   2.191   4.369 -0.8058  0.0608  0.1519
    82BTZ    S6 6841   1.617   2.339   4.331 -0.1826  0.1769 -0.9658
    92RH    C54 6842   1.987   1.890   4.467  0.1865  0.5177  0.2024
    92RH     S7 6843   2.169   1.893   4.489  0.2849  0.3416 -0.5684
    92RH    C55 6844   1.939   1.749   4.472  0.0470  0.5780  0.5889
    92RH     O2 6845   1.820   1.713   4.460 -0.0443  0.6958  1.1334
    92RH     N6 6846   2.045   1.659   4.492  0.0292  0.4843  0.2600
    92RH    C56 6847   2.173   1.709   4.503  0.1371  0.3561 -0.3428
    92RH    C57 6848   2.021   1.516   4.499  0.4886 -1.5665  1.2020
    92RH    C58 6849   2.008   1.446   4.354 -0.2658  0.5727  0.1486
    92RH     S8 6850   2.316   1.623   4.527  0.1423  0.2264 -0.8318
    72IDQ   C59 6851   1.801   2.913   4.806 -0.4488  0.8966  0.2348
    72IDQ   C60 6852   1.821   2.920   4.962 -1.6830  0.7947 -0.0721
    72IDQ   C61 6853   1.900   2.814   5.022  0.2937 -1.3042 -0.0818
    72IDQ   C62 6854   1.934   2.848   5.166 -0.6852  1.0793  0.3514
    72IDQ   C63 6855   2.040   2.968   5.179 -0.1419  1.1595  0.4965
    72IDQ   C64 6856   2.042   3.017   5.320  0.0977  0.2011 -0.3765
    72IDQ   C65 6857   2.158   3.117   5.355  0.3947  0.8041 -0.8658
    72IDQ   C66 6858   1.867   3.050   4.345 -1.6443  0.0290  0.3146
    72IDQ   C67 6859   1.905   3.185   4.304 -0.3635 -0.7738  0.2893
    72IDQ   C68 6860   1.938   3.195   4.156 -0.0678  0.7113 -0.5157
    72IDQ   C69 6861   2.092   3.177   4.121 -0.0861 -0.2012  0.6380
    72IDQ   C70 6862   2.134   3.297   4.025 -0.2922 -0.4948 -0.3962
    72IDQ   C71 6863   2.067   3.285   3.891 -0.7419 -0.4167 -0.1416
    72IDQ   C72 6864   2.108   3.406   3.806  1.0133  0.9205 -0.5663
    11RH     C1 6865   6.438   6.493   3.918 -0.5300  0.4656  0.4938
    11RH     C2 6866   6.521   6.611   3.954 -0.1729  0.3283  0.1259
    11RH     N1 6867   6.465   6.449   3.787 -0.8538  0.1347  0.5374
    11RH     S1 6868   6.629   6.656   3.812 -0.2862 -0.2270 -0.1390
    11RH     C3 6869   6.559   6.516   3.713 -0.7997 -0.2511  0.2491
    11RH     C4 6870   6.378   6.354   3.717  0.1914  1.2439  1.7841
    11RH     S2 6871   6.609   6.484   3.555 -1.1342 -0.6936  0.2306
    11RH     O1 6872   6.355   6.438   3.992 -0.5507  0.8237  0.7381
    11RH     C5 6873   6.514   6.672   4.072  0.1737  0.5816  0.0145
    21BTZ    C6 6874   6.573   6.764   4.162 -0.4587  0.1311 -0.0543
    21BTZ    C7 6875   6.683   6.837   4.125 -0.5405  0.1500 -0.2635
    21BTZ    C8 6876   6.521   6.779   4.294 -0.1991  0.1104  0.0494
    21BTZ    C9 6877   6.747   6.928   4.217 -0.3722  0.1493 -0.3805
    21BTZ   C10 6878   6.701   6.946   4.345 -0.1225  0.1294 -0.2884
    21BTZ   C11 6879   6.587   6.871   4.388 -0.0279  0.1094 -0.0699
    21BTZ    N2 6880   6.415   6.713   4.342 -0.0978  0.0904  0.2518
    21BTZ    N3 6881   6.533   6.880   4.510  0.2112  0.0887  0.0370
    21BTZ    S3 6882   6.394   6.768   4.511  0.2280  0.0700  0.3004
    31IDT   C12 6883   6.747   7.054   4.425 -0.3624  0.0739 -0.4830
    31IDT   C13 6884   6.758   7.062   4.561 -0.8011  0.1679 -0.4518
    31IDT   C14 6885   6.843   7.169   4.603 -0.4585 -0.1692 -0.2739
    31IDT   C15 6886   6.896   7.243   4.500  0.2417 -0.5215 -0.1684
    31IDT    S4 6887   6.844   7.182   4.339  0.5245 -0.4531 -0.2877
    4IDB    C16 6888   6.977   7.353   4.542  0.0584 -0.0415 -0.0068
    4IDB    C17 6889   6.970   7.363   4.684 -0.5305  0.2371 -0.0513
    51IDQ   C18 6890   6.897   7.233   4.728 -0.3798 -0.5024  0.9003
    4IDB    C19 6891   7.023   7.472   4.751 -0.5205  0.2148 -0.0226
    51IDQ   C20 6892   6.995   7.141   4.794  0.0744 -0.0741 -0.1757
    51IDQ   C21 6893   6.779   7.235   4.833  0.4869  0.0052  0.5839
    51IDQ   C22 6894   6.696   7.370   4.874 -1.5378  1.1567 -0.9803
    51IDQ   C23 6895   7.055   7.005   4.741  0.8818  0.0094  0.7217
    51IDQ   C24 6896   6.650   7.348   5.019 -0.4729 -0.2902 -0.2378
    51IDQ   C25 6897   6.704   7.427   5.131 -0.4439 -0.2804  0.2438
    51IDQ   C26 6898   6.724   7.584   5.103  2.0239  1.3129  0.2630
    51IDQ   C27 6899   6.871   7.622   5.098 -0.5588  0.5028  1.2203
    51IDQ   C28 6900   6.943   7.685   5.234 -0.1544  1.0443  1.2884
    51IDQ   C29 6901   6.892   7.611   5.361  0.1872 -0.0532  0.4327
    51IDQ   C30 6902   7.151   6.926   4.827  1.0868  0.4740  0.7257
    51IDQ   C31 6903   7.126   6.913   4.983 -1.1921  0.1061 -0.9807
    51IDQ   C32 6904   7.249   6.842   5.048 -1.0363  0.2177  0.8627
    51IDQ   C33 6905   7.201   6.802   5.190 -1.0053 -0.0199 -0.3915
    51IDQ   C34 6906   7.245   6.672   5.247  0.1294 -2.0699 -1.3043
    51IDQ   C35 6907   7.339   6.716   5.359  0.0953  1.4897 -1.0000
    4IDB    C36 6908   7.037   7.454   4.465  0.6645 -0.3458  0.0672
    4IDB    C37 6909   7.091   7.565   4.535  0.6649 -0.3639  0.0956
    11RH    C38 6910   6.439   6.207   3.736  0.4983 -0.5958  0.3567
    4IDB    C39 6911   7.084   7.573   4.674  0.0853 -0.0895  0.0513
    62IDT   C40 6912   7.166   7.683   4.716 -0.4895  0.0640  0.3244
    72IDQ   C41 6913   7.170   7.688   4.478 -1.9904  1.2900  1.3099
    62IDT   C42 6914   7.207   7.756   4.606  0.3067 -0.5635  0.1924
    72IDQ   C43 6915   7.091   7.766   4.359 -0.8815  0.5347 -0.2472
    72IDQ   C44 6916   7.309   7.643   4.419 -0.1208  1.1727 -0.3512
    62IDT    S5 6917   7.212   7.762   4.870 -0.6248  0.3995  0.1923
    62IDT   C45 6918   7.287   7.897   4.773  0.4548 -0.3636 -0.0464
    62IDT   C46 6919   7.275   7.877   4.638  0.8416 -0.8061 -0.0179
    82BTZ   C47 6920   7.366   8.002   4.843  0.3772 -0.2496 -0.3695
    82BTZ   C48 6921   7.350   8.032   4.976  0.3510 -0.2156 -0.3803
    82BTZ   C49 6922   7.427   8.135   5.040  0.1898 -0.0570 -0.4411
    82BTZ   C50 6923   7.520   8.209   4.971  0.0549  0.0670 -0.4912
    82BTZ   C51 6924   7.462   8.077   4.767  0.2398 -0.1237 -0.4206
    82BTZ   C52 6925   7.540   8.182   4.832  0.0759  0.0374 -0.4826
    92RH    C53 6926   7.619   8.294   5.030  0.2257 -0.5125  0.0903
    82BTZ    N4 6927   7.486   8.057   4.637  0.2497 -0.1422 -0.4158
    82BTZ    N5 6928   7.628   8.247   4.755 -0.0460  0.1484 -0.5274
    82BTZ    S6 6929   7.613   8.175   4.592  0.0455  0.0497 -0.4919
    92RH    C54 6930   7.660   8.332   5.152  0.2069 -0.3216  0.0377
    92RH     S7 6931   7.577   8.297   5.312  0.0798  0.0955  0.0642
    92RH    C55 6932   7.783   8.410   5.176  0.2894 -0.4233 -0.0522
    92RH     O2 6933   7.862   8.449   5.089  0.3837 -0.6918 -0.0894
    92RH     N6 6934   7.802   8.436   5.314  0.2475 -0.1739 -0.0926
    92RH    C56 6935   7.709   8.387   5.403  0.1416  0.1153 -0.0455
    92RH    C57 6936   7.931   8.515   5.359 -0.2906  0.3820  0.3761
    92RH    C58 6937   7.871   8.654   5.373  1.1653 -0.4990 -0.3257
    92RH     S8 6938   7.708   8.404   5.570  0.0727  0.4485 -0.0777
    72IDQ   C59 6939   7.342   7.499   4.370  0.3158 -0.0293 -1.0154
    72IDQ   C60 6940   7.473   7.422   4.383  1.4306  0.6223  0.1219
    72IDQ   C61 6941   7.525   7.414   4.535 -0.5352 -0.3160  0.3951
    72IDQ   C62 6942   7.431   7.316   4.620  0.0750 -0.3484  0.6125
    72IDQ   C63 6943   7.407   7.403   4.753  0.4934  0.1370 -0.0714
    72IDQ   C64 6944   7.359   7.333   4.884 -0.1878  0.8753 -1.0034
    72IDQ   C65 6945   7.441   7.211   4.941  0.5904  0.3966  0.6597
    72IDQ   C66 6946   7.046   7.921   4.353  0.2043 -0.5376 -0.1436
    72IDQ   C67 6947   7.160   8.027   4.369  1.2579 -1.8461 -0.0443
    72IDQ   C68 6948   7.144   8.170   4.302 -0.2145 -0.6789 -0.6138
    72IDQ   C69 6949   7.291   8.227   4.315 -1.2172 -0.7167 -0.1058
    72IDQ   C70 6950   7.413   8.137   4.274  0.6690  0.7664  1.4306
    72IDQ   C71 6951   7.401   8.112   4.124  0.2111  1.1394  1.4644
    72IDQ   C72 6952   7.518   8.033   4.089  0.0364  1.2586  1.0166
    11RH     C1 6953   0.283   0.542   2.917  0.1442  0.2338 -0.1409
    11RH     C2 6954   0.170   0.609   2.986  0.2106  0.3854 -0.1811
    11RH     N1 6955   0.341   0.625   2.819  0.1088  0.0509 -0.3173
    11RH     S1 6956   0.148   0.778   2.917  0.2220  0.2776 -0.4487
    11RH     C3 6957   0.289   0.751   2.801  0.1386  0.0374 -0.4944
    11RH     C4 6958   0.471   0.577   2.748  1.5127 -0.2466  0.2886
    11RH     S2 6959   0.339   0.868   2.691  0.1073 -0.1619 -0.7240
    11RH     O1 6960   0.323   0.427   2.941  0.1214  0.2601  0.0255
    11RH     C5 6961   0.098   0.553   3.083  0.2541  0.5714 -0.0394
    21BTZ    C6 6962  -0.022   0.583   3.150  0.4381 -0.1456 -0.5852
    21BTZ    C7 6963  -0.109   0.686   3.130  0.7195  0.0943 -0.5759
    21BTZ    C8 6964  -0.042   0.496   3.262  0.2460 -0.0569 -0.5516
    21BTZ    C9 6965  -0.220   0.710   3.219  0.8256  0.4312 -0.5333
    21BTZ   C10 6966  -0.243   0.631   3.327  0.6502  0.5277 -0.5003
    21BTZ   C11 6967  -0.155   0.521   3.353  0.3538  0.2856 -0.5083
    21BTZ    N2 6968   0.036   0.392   3.292 -0.0324 -0.2682 -0.5567
    21BTZ    N3 6969  -0.167   0.436   3.455  0.1621  0.3494 -0.4786
    21BTZ    S3 6970  -0.033   0.319   3.440 -0.1714 -0.0336 -0.5053
    31IDT   C12 6971  -0.365   0.666   3.411 -0.5587 -0.6074 -0.7503
    31IDT   C13 6972  -0.392   0.615   3.535 -1.5786 -1.5784 -1.3481
    31IDT   C14 6973  -0.476   0.700   3.613 -1.3788 -1.6899 -1.0073
    31IDT   C15 6974  -0.514   0.816   3.548 -0.2079 -0.8069 -0.1500
    31IDT    S4 6975  -0.446   0.827   3.383  0.7411  0.2440  0.2968
    4IDB    C16 6976  -0.628   0.879   3.622  0.4391  0.2221  0.1961
    4IDB    C17 6977  -0.631   0.822   3.753  0.2384  0.3803  0.2609
    51IDQ   C18 6978  -0.530   0.708   3.753 -1.5791 -0.5542 -0.1288
    4IDB    C19 6979  -0.720   0.868   3.848 -0.1420  0.2629 -0.0374
    51IDQ   C20 6980  -0.437   0.728   3.874 -0.5867 -0.5020 -0.4686
    51IDQ   C21 6981  -0.590   0.555   3.790 -0.8475 -0.8328 -1.4632
    51IDQ   C22 6982  -0.743   0.508   3.811  0.4082 -0.0025  0.8752
    51IDQ   C23 6983  -0.285   0.788   3.866  0.9757 -0.0420 -0.4545
    51IDQ   C24 6984  -0.774   0.370   3.879  1.1362  0.3039  1.5853
    51IDQ   C25 6985  -0.710   0.329   4.003  0.8355 -0.9683  0.5604
    51IDQ   C26 6986  -0.758   0.209   4.078  0.1083 -0.7822 -0.8695
    51IDQ   C27 6987  -0.784   0.068   4.015  0.3260 -0.5597  0.6626
    51IDQ   C28 6988  -0.845  -0.042   4.087  0.4568 -0.9722 -0.0896
    51IDQ   C29 6989  -0.790  -0.056   4.229 -0.3208  0.1512 -0.5294
    51IDQ   C30 6990  -0.179   0.683   3.826  0.1991  0.0768  1.7035
    51IDQ   C31 6991  -0.072   0.615   3.902 -0.4197  0.7623 -1.5366
    51IDQ   C32 6992   0.013   0.697   4.002  0.3424  0.8402  0.6182
    51IDQ   C33 6993   0.127   0.597   4.045 -1.1150 -0.2185  0.3311
    51IDQ   C34 6994   0.231   0.554   3.953 -2.4574  0.1578  0.8544
    51IDQ   C35 6995   0.337   0.459   4.002  0.1433  0.0616  0.9895
    4IDB    C36 6996  -0.716   0.983   3.586  0.2584 -0.0562 -0.1699
    4IDB    C37 6997  -0.807   1.028   3.685 -0.1307 -0.1728 -0.4714
    11RH    C38 6998   0.609   0.608   2.807  0.0682  0.2459  0.0109
    4IDB    C39 6999  -0.808   0.972   3.812 -0.3229 -0.0154 -0.4035
    62IDT   C40 7000  -0.919   1.003   3.890  0.0138 -0.0062 -0.1056
    72IDQ   C41 7001  -0.921   1.137   3.694 -0.0710 -0.4253  0.1348
    62IDT   C42 7002  -0.983   1.110   3.832 -0.2580 -0.3802 -0.4967
    72IDQ   C43 7003  -1.018   1.099   3.569  0.8315  1.1198  1.1265
    72IDQ   C44 7004  -0.864   1.286   3.657  1.0696 -0.7473  0.2158
    62IDT    S5 7005  -1.007   0.941   4.034  0.0630  0.1646 -0.0020
    62IDT   C45 7006  -1.133   1.070   4.006 -0.3042 -0.3015 -0.5183
    62IDT   C46 7007  -1.104   1.148   3.897 -0.4380 -0.5478 -0.7304
    82BTZ   C47 7008  -1.259   1.071   4.091  0.0138 -0.9046 -0.4470
    82BTZ   C48 7009  -1.376   1.113   4.034  0.0763 -1.0134 -0.6571
    82BTZ   C49 7010  -1.499   1.120   4.109  0.0508 -0.6130 -0.7305
    82BTZ   C50 7011  -1.505   1.084   4.241 -0.0375 -0.1044 -0.5939
    82BTZ   C51 7012  -1.260   1.032   4.229 -0.0792 -0.3778 -0.2975
    82BTZ   C52 7013  -1.385   1.039   4.306 -0.1051  0.0291 -0.3722
    92RH    C53 7014  -1.629   1.068   4.307  0.2759 -0.1111 -0.5257
    82BTZ    N4 7015  -1.152   0.989   4.296 -0.1459 -0.2237 -0.0887
    82BTZ    N5 7016  -1.377   1.001   4.434 -0.1934  0.5105 -0.2232
    82BTZ    S6 7017  -1.207   0.955   4.462 -0.2473  0.4627  0.0236
    92RH    C54 7018  -1.761   1.077   4.283  0.2577  0.0266 -0.3719
    92RH     S7 7019  -1.841   1.100   4.120  0.1072  0.4460 -0.2418
    92RH    C55 7020  -1.864   1.071   4.389  0.3610 -0.1467 -0.2816
    92RH     O2 7021  -1.842   1.057   4.511  0.4745 -0.4340 -0.3359
    92RH     N6 7022  -1.994   1.084   4.336  0.3151  0.0569 -0.1219
    92RH    C56 7023  -2.008   1.100   4.200  0.1874  0.3721 -0.0739
    92RH    C57 7024  -2.112   1.090   4.424  0.4735 -0.7916  0.9774
    92RH    C58 7025  -2.236   1.014   4.424  1.0469  0.0327 -0.3586
    92RH     S8 7026  -2.150   1.117   4.112  0.1097  0.6619  0.1085
    72IDQ   C59 7027  -0.877   1.413   3.754 -0.2560  0.7844 -0.0322
    72IDQ   C60 7028  -0.750   1.389   3.831 -1.1630 -1.1871 -0.6829
    72IDQ   C61 7029  -0.755   1.443   3.977  0.2035 -0.4050  0.7079
    72IDQ   C62 7030  -0.657   1.561   4.004  0.4185 -1.4747  0.5482
    72IDQ   C63 7031  -0.653   1.688   3.923  0.3534  0.7898  0.3774
    72IDQ   C64 7032  -0.783   1.780   3.909 -0.1240  0.4706  0.7426
    72IDQ   C65 7033  -0.887   1.784   4.028 -0.5480 -1.3747  0.1209
    72IDQ   C66 7034  -1.058   0.944   3.529  1.0456 -1.0166  0.2783
    72IDQ   C67 7035  -1.206   0.888   3.566  0.7525 -0.9009  0.9845
    72IDQ   C68 7036  -1.300   1.010   3.592  0.3254 -0.3509 -0.4020
    72IDQ   C69 7037  -1.337   1.124   3.503 -0.7779 -1.0966  1.5215
    72IDQ   C70 7038  -1.376   1.117   3.353  0.9711  0.9554 -0.2294
    72IDQ   C71 7039  -1.373   1.234   3.272 -1.0311 -0.1149 -0.0289
    72IDQ   C72 7040  -1.413   1.356   3.334 -0.8900  0.0073  0.3333
    11RH     C1 7041   1.156   4.384   4.550  0.1627  0.1533  0.3192
    11RH     C2 7042   1.122   4.374   4.694  0.0773  0.0143  0.2902
    11RH     N1 7043   1.045   4.353   4.468  0.2412  0.1222  0.2237
    11RH     S1 7044   0.946   4.326   4.713  0.1060 -0.1482  0.1388
    11RH     C3 7045   0.926   4.320   4.529  0.2294 -0.0250  0.1216
    11RH     C4 7046   1.057   4.335   4.320  0.5264 -1.7676  0.5153
    11RH     S2 7047   0.780   4.280   4.456  0.3110 -0.0920 -0.0043
    11RH     O1 7048   1.267   4.415   4.504  0.1667  0.2823  0.4144
    11RH     C5 7049   1.209   4.399   4.792 -0.0067  0.0126  0.3651
    21BTZ    C6 7050   1.204   4.380   4.945  0.3582 -0.1532 -0.5183
    21BTZ    C7 7051   1.102   4.333   5.023  0.2660 -0.3335 -0.7463
    21BTZ    C8 7052   1.331   4.407   5.007  0.1153  0.2632 -0.1979
    21BTZ    C9 7053   1.119   4.310   5.165 -0.0672 -0.1154 -0.6709
    21BTZ   C10 7054   1.238   4.335   5.228 -0.3076  0.2829 -0.3685
    21BTZ   C11 7055   1.348   4.384   5.151 -0.2234  0.4849 -0.1216
    21BTZ    N2 7056   1.438   4.453   4.941  0.1750  0.4716  0.0443
    21BTZ    N3 7057   1.469   4.412   5.201 -0.4358  0.8717  0.1822
    21BTZ    S3 7058   1.568   4.469   5.063 -0.2070  0.9708  0.3877
    31IDT   C12 7059   1.261   4.291   5.363  0.2023  0.3934 -0.4493
    31IDT   C13 7060   1.252   4.166   5.417 -0.0585  0.3700 -0.5426
    31IDT   C14 7061   1.298   4.160   5.552 -0.7671  0.3252 -0.2983
    31IDT   C15 7062   1.342   4.281   5.602 -1.0504  0.3144 -0.0173
    31IDT    S4 7063   1.328   4.413   5.480 -0.4362  0.3599 -0.0408
    4IDB    C16 7064   1.349   4.277   5.741 -1.2121 -0.3180  0.4995
    4IDB    C17 7065   1.322   4.145   5.787  0.0441 -0.6223  0.3929
    51IDQ   C18 7066   1.306   4.055   5.666 -0.4819 -0.8613  0.4124
    4IDB    C19 7067   1.324   4.116   5.923  0.6567 -0.8011  0.3504
    51IDQ   C20 7068   1.439   3.966   5.644  0.7015 -1.3856 -0.1241
    51IDQ   C21 7069   1.176   3.968   5.664  0.2409 -0.9034 -0.5812
    51IDQ   C22 7070   1.047   3.985   5.759  1.1755 -0.2580  1.5503
    51IDQ   C23 7071   1.501   3.964   5.515 -0.0096  0.7679  1.3245
    51IDQ   C24 7072   0.999   4.126   5.744  0.2478 -0.2144 -0.1587
    51IDQ   C25 7073   0.869   4.149   5.779 -0.0219  1.2426 -0.1820
    51IDQ   C26 7074   0.793   4.227   5.677  1.1524  1.1769  0.4825
    51IDQ   C27 7075   0.641   4.210   5.653  1.8337 -0.2099 -0.8856
    51IDQ   C28 7076   0.537   4.172   5.755 -0.0781  0.1920 -0.7131
    51IDQ   C29 7077   0.471   4.277   5.844 -0.2467 -0.3942 -0.1954
    51IDQ   C30 7078   1.615   3.859   5.548 -0.6212 -0.8703  0.4892
    51IDQ   C31 7079   1.715   3.803   5.444  0.1758  0.2222  1.7156
    51IDQ   C32 7080   1.801   3.914   5.381 -1.0291  0.3976  0.9986
    51IDQ   C33 7081   1.706   3.970   5.272  0.3905 -0.1116  0.3858
    51IDQ   C34 7082   1.741   4.054   5.153 -0.7281 -1.0830 -2.8570
    51IDQ   C35 7083   1.620   4.071   5.062 -0.5572 -0.8742 -0.0675
    4IDB    C36 7084   1.377   4.382   5.830 -1.8662 -0.1903  0.5648
    4IDB    C37 7085   1.378   4.350   5.969 -1.2249 -0.3757  0.5200
    11RH    C38 7086   1.048   4.457   4.231  0.7395  0.6709  0.4009
    4IDB    C39 7087   1.352   4.220   6.013  0.0027 -0.6729  0.4158
    62IDT   C40 7088   1.391   4.204   6.146  0.9989 -0.1069  0.0331
    72IDQ   C41 7089   1.411   4.438   6.098  1.2630 -0.3319  0.1225
    62IDT   C42 7090   1.409   4.332   6.195  1.1328 -0.0942 -0.0467
    72IDQ   C43 7091   1.305   4.555   6.137  1.0115  0.1470  0.9416
    72IDQ   C44 7092   1.551   4.508   6.079 -1.4258 -0.2734  0.1853
    62IDT    S5 7093   1.405   4.080   6.275 -0.1838  0.0272  0.2984
    62IDT   C45 7094   1.435   4.214   6.394 -0.4476  0.0968  0.2872
    62IDT   C46 7095   1.433   4.338   6.335  0.3152  0.0210  0.0973
    82BTZ   C47 7096   1.418   4.190   6.538 -0.9091 -0.5526  1.0565
    82BTZ   C48 7097   1.347   4.079   6.574 -0.2990 -0.8552  1.3330
    82BTZ   C49 7098   1.332   4.039   6.712  0.5721 -1.0371  1.3821
    82BTZ   C50 7099   1.388   4.112   6.814  0.8319 -0.9156  1.1548
    82BTZ   C51 7100   1.479   4.269   6.641 -0.6686 -0.4146  0.8116
    82BTZ   C52 7101   1.463   4.230   6.782  0.2168 -0.5994  0.8614
    92RH    C53 7102   1.380   4.095   6.961 -0.0140 -0.0983 -0.1753
    82BTZ    N4 7103   1.550   4.380   6.619 -1.2046 -0.1223  0.5322
    82BTZ    N5 7104   1.522   4.309   6.872  0.3924 -0.4559  0.6220
    82BTZ    S6 7105   1.601   4.440   6.780 -0.5870 -0.0697  0.3167
    92RH    C54 7106   1.323   4.006   7.044 -0.0902  0.0439 -0.0753
    92RH     S7 7107   1.231   3.855   6.997 -0.1374  0.0186  0.0984
    92RH    C55 7108   1.327   4.018   7.192 -0.1500  0.2508 -0.0908
    92RH     O2 7109   1.382   4.110   7.256 -0.1370  0.3154 -0.1957
    92RH     N6 7110   1.260   3.911   7.255 -0.2257  0.3690  0.0310
    92RH    C56 7111   1.202   3.815   7.175 -0.2337  0.2822  0.1419
    92RH    C57 7112   1.264   3.905   7.404 -1.1552  0.2453 -0.2940
    92RH    C58 7113   1.127   3.966   7.447 -0.6462  0.7381  0.8838
    92RH     S8 7114   1.117   3.678   7.224 -0.3167  0.3896  0.2975
    72IDQ   C59 7115   1.588   4.636   6.006 -0.7063  0.5020 -0.1158
    72IDQ   C60 7116   1.747   4.662   6.011 -0.2382 -0.7965  0.3887
    72IDQ   C61 7117   1.783   4.779   5.918 -0.4926 -0.0471 -0.6297
    72IDQ   C62 7118   1.869   4.895   5.976 -1.2944 -0.1048  0.1747
    72IDQ   C63 7119   1.827   5.017   6.067  0.6236 -0.3638 -0.0810
    72IDQ   C64 7120   1.716   5.024   6.172  0.8365  1.2499  0.6577
    72IDQ   C65 7121   1.657   5.154   6.228  1.1515 -0.6378  1.1481
    72IDQ   C66 7122   1.150   4.544   6.166  0.4747 -0.7431  0.1654
    72IDQ   C67 7123   1.090   4.672   6.251  0.3200 -0.8859  0.7922
    72IDQ   C68 7124   1.019   4.783   6.169 -0.1863  0.5460 -0.9362
    72IDQ   C69 7125   0.869   4.794   6.145 -0.6069 -0.1661  1.5661
    72IDQ   C70 7126   0.830   4.683   6.031 -0.3494  0.6645  0.3145
    72IDQ   C71 7127   0.682   4.659   5.979  0.3417 -0.1632 -0.8926
    72IDQ   C72 7128   0.583   4.773   6.020 -0.9007  1.1909 -0.6529
    11RH     C1 7129   1.195   2.169   0.861 -0.6447 -0.2269 -0.0632
    11RH     C2 7130   1.249   2.036   0.898  0.0339  0.0478 -0.0523
    11RH     N1 7131   1.135   2.166   0.733 -0.5772 -0.5297 -0.0898
    11RH     S1 7132   1.217   1.916   0.763  0.7166 -0.1102 -0.0776
    11RH     C3 7133   1.134   2.047   0.664  0.0726 -0.5314 -0.1014
    11RH     C4 7134   1.116   2.291   0.665  2.1247  0.2136  0.3135
    11RH     S2 7135   1.069   2.017   0.511  0.2923 -0.8566 -0.1326
    11RH     O1 7136   1.201   2.271   0.931 -1.2086 -0.2013 -0.0510
    11RH     C5 7137   1.311   2.011   1.014  0.1139  0.3603 -0.0275
    21BTZ    C6 7138   1.355   1.887   1.079 -0.6730 -0.3016 -0.0227
    21BTZ    C7 7139   1.345   1.765   1.019 -0.7020 -0.3518  0.0840
    21BTZ    C8 7140   1.418   1.896   1.208 -0.4256 -0.1640 -0.1519
    21BTZ    C9 7141   1.396   1.645   1.082 -0.4908 -0.2699  0.0693
    21BTZ   C10 7142   1.457   1.649   1.205 -0.2510 -0.1380 -0.0520
    21BTZ   C11 7143   1.470   1.775   1.272 -0.2109 -0.0808 -0.1668
    21BTZ    N2 7144   1.433   2.010   1.277 -0.3735 -0.1037 -0.2633
    21BTZ    N3 7145   1.527   1.791   1.391  0.0137  0.0464 -0.2901
    21BTZ    S3 7146   1.516   1.965   1.429 -0.0409  0.0656 -0.3946
    31IDT   C12 7147   1.535   1.525   1.245  0.2309  0.1257 -0.0938
    31IDT   C13 7148   1.493   1.433   1.337 -0.1398 -0.2026 -0.5869
    31IDT   C14 7149   1.568   1.311   1.332 -0.5060 -0.4094 -1.1117
    31IDT   C15 7150   1.667   1.309   1.236 -0.4170 -0.2405 -1.0225
    31IDT    S4 7151   1.674   1.464   1.144  0.1425  0.1975 -0.2598
    4IDB    C16 7152   1.739   1.190   1.253  0.3643  0.0451 -0.1185
    4IDB    C17 7153   1.724   1.147   1.388  0.3626  0.5123  0.0286
    51IDQ   C18 7154   1.593   1.203   1.431  0.3674 -0.7002 -1.6676
    4IDB    C19 7155   1.822   1.070   1.451  0.0122  0.0811  0.0509
    51IDQ   C20 7156   1.490   1.079   1.412 -0.3761  0.0562  0.1287
    51IDQ   C21 7157   1.598   1.242   1.585  0.0104  0.1192 -0.6509
    51IDQ   C22 7158   1.694   1.331   1.666  1.1373 -0.0791 -0.4059
    51IDQ   C23 7159   1.397   1.019   1.512 -0.7426 -0.8584  1.8085
    51IDQ   C24 7160   1.694   1.480   1.620  0.0536 -0.9256 -0.3634
    51IDQ   C25 7161   1.834   1.539   1.625 -0.5608 -0.6918  0.5565
    51IDQ   C26 7162   1.865   1.686   1.669 -0.5440  0.1507 -0.2617
    51IDQ   C27 7163   1.803   1.810   1.598 -0.5818  0.5410  1.0584
    51IDQ   C28 7164   1.879   1.845   1.470  0.0233 -0.0047  0.4526
    51IDQ   C29 7165   1.979   1.750   1.401 -0.4386  0.5754  0.6388
    51IDQ   C30 7166   1.329   0.891   1.482  0.7395  0.1707 -0.8818
    51IDQ   C31 7167   1.401   0.771   1.541  1.1742  0.0219 -0.2236
    51IDQ   C32 7168   1.541   0.721   1.500  0.5061  0.1245  0.1192
    51IDQ   C33 7169   1.564   0.711   1.354 -0.2296  0.2353  1.0269
    51IDQ   C34 7170   1.631   0.601   1.293  0.0226  0.6899  0.7497
    51IDQ   C35 7171   1.751   0.662   1.204  0.6484  0.4736  0.3914
    4IDB    C36 7172   1.853   1.155   1.178  0.0133 -0.8619 -0.2449
    4IDB    C37 7173   1.952   1.076   1.244 -0.3419 -1.2916 -0.2198
    11RH    C38 7174   0.970   2.344   0.681  0.5646 -0.6215 -0.2592
    4IDB    C39 7175   1.936   1.036   1.376 -0.3388 -0.8259 -0.0755
    62IDT   C40 7176   2.050   0.963   1.415  0.6220  0.2497 -0.4681
    72IDQ   C41 7177   2.091   1.037   1.189  0.4461 -1.2357  0.6620
    62IDT   C42 7178   2.138   0.954   1.310  0.9925 -0.6174 -0.0964
    72IDQ   C43 7179   2.181   1.162   1.166  0.5969  0.4214  1.2846
    72IDQ   C44 7180   2.080   0.969   1.054 -1.3906 -0.1467 -0.5108
    62IDT    S5 7181   2.113   0.883   1.563 -0.5509  0.0859 -0.0409
    62IDT   C45 7182   2.264   0.841   1.471 -0.4746 -1.2093  0.6514
    62IDT   C46 7183   2.260   0.886   1.341  0.3732 -1.4434  0.5369
    82BTZ   C47 7184   2.366   0.750   1.531 -0.0238  0.4902  0.0750
    82BTZ   C48 7185   2.329   0.694   1.651 -0.2120  0.3650 -0.0409
    82BTZ   C49 7186   2.418   0.606   1.724 -0.4874 -0.0527 -0.2005
    82BTZ   C50 7187   2.543   0.576   1.677 -0.5747 -0.3445 -0.2439
    82BTZ   C51 7188   2.496   0.721   1.478 -0.1051  0.1961  0.0354
    82BTZ   C52 7189   2.586   0.632   1.553 -0.3852 -0.2285 -0.1267
    92RH    C53 7190   2.646   0.491   1.754 -0.2004 -0.0404  0.3431
    82BTZ    N4 7191   2.543   0.769   1.363  0.0595  0.2811  0.1380
    82BTZ    N5 7192   2.705   0.610   1.497 -0.4458 -0.4848 -0.1546
    82BTZ    S6 7193   2.708   0.703   1.344 -0.1409 -0.1880  0.0293
    92RH    C54 7194   2.656   0.433   1.874 -0.3130  0.0552  0.3987
    92RH     S7 7195   2.560   0.475   2.025 -0.0223  0.5925  0.4399
    92RH    C55 7196   2.751   0.323   1.904 -0.7046 -0.2723  0.4366
    92RH     O2 7197   2.830   0.272   1.824 -0.9698 -0.6660  0.4218
    92RH     N6 7198   2.740   0.281   2.039 -0.7441 -0.0816  0.4931
    92RH    C56 7199   2.649   0.344   2.120 -0.4320  0.3587  0.5052
    92RH    C57 7200   2.808   0.162   2.099  1.3029 -0.2789  0.6633
    92RH    C58 7201   2.718   0.035   2.082  0.4879  0.3527 -0.2076
    92RH     S8 7202   2.616   0.314   2.283 -0.4038  0.6631  0.5686
    72IDQ   C59 7203   2.156   0.832   1.020  1.3435 -0.0468  0.9781
    72IDQ   C60 7204   2.076   0.721   1.077 -0.4802  1.2946 -0.5246
    72IDQ   C61 7205   2.114   0.593   1.003  0.3359 -0.5419 -1.2635
    72IDQ   C62 7206   2.068   0.460   1.037  0.7165 -1.1714  0.2160
    72IDQ   C63 7207   2.141   0.341   0.987 -0.9438 -0.2755 -0.7772
    72IDQ   C64 7208   2.095   0.223   1.074  0.1101 -0.9208 -1.1042
    72IDQ   C65 7209   2.103   0.086   1.021 -0.9467  0.1573  0.3436
    72IDQ   C66 7210   2.133   1.315   1.174 -0.8129 -0.1194 -0.0589
    72IDQ   C67 7211   2.137   1.355   1.331 -0.4473  0.3996  0.2560
    72IDQ   C68 7212   2.191   1.493   1.353 -0.3490  0.6527  0.3350
    72IDQ   C69 7213   2.240   1.534   1.493  0.1332 -0.0345 -0.9280
    72IDQ   C70 7214   2.383   1.517   1.474  0.3664  0.1953  1.4108
    72IDQ   C71 7215   2.463   1.615   1.550 -1.1355 -1.7066  0.1472
    72IDQ   C72 7216   2.449   1.763   1.518  1.2035  0.3620  0.3115
    11RH     C1 7217   2.199   2.489   1.250 -0.1074  0.1849 -0.4664
    11RH     C2 7218   2.120   2.536   1.367 -0.0275 -0.0947 -0.2974
    11RH     N1 7219   2.158   2.552   1.131 -0.4261  0.2165 -0.3413
    11RH     S1 7220   1.997   2.661   1.312 -0.3765 -0.2976  0.0151
    11RH     C3 7221   2.056   2.645   1.138 -0.6111 -0.0033 -0.0927
    11RH     C4 7222   2.254   2.526   1.017 -1.0321  0.4194  0.6688
    11RH     S2 7223   1.989   2.734   1.011 -0.9950 -0.0192  0.0978
    11RH     O1 7224   2.290   2.404   1.254  0.0772  0.3712 -0.6902
    11RH     C5 7225   2.139   2.492   1.491  0.2591 -0.1781 -0.3692
    21BTZ    C6 7226   2.082   2.526   1.625 -0.0209  0.1929 -0.0336
    21BTZ    C7 7227   1.972   2.605   1.646 -0.0835  0.0459  0.2005
    21BTZ    C8 7228   2.153   2.475   1.739 -0.0221 -0.1444 -0.1811
    21BTZ    C9 7229   1.926   2.638   1.779 -0.1495 -0.4363  0.3007
    21BTZ   C10 7230   1.991   2.592   1.890 -0.1530 -0.7707  0.1667
    21BTZ   C11 7231   2.106   2.509   1.874 -0.0890 -0.6344 -0.0793
    21BTZ    N2 7232   2.261   2.397   1.732  0.0354 -0.0439 -0.4114
    21BTZ    N3 7233   2.177   2.458   1.975 -0.0857 -0.9279 -0.2277
    21BTZ    S3 7234   2.309   2.363   1.901  0.0053 -0.5831 -0.5098
    31IDT   C12 7235   1.937   2.629   2.018  0.9833  0.1901  0.6367
    31IDT   C13 7236   1.971   2.579   2.142  0.8376  0.7861  0.9199
    31IDT   C14 7237   1.903   2.646   2.248  0.4166  1.0462  0.4950
    31IDT   C15 7238   1.817   2.746   2.208  0.2389  0.6514 -0.1137
    31IDT    S4 7239   1.816   2.764   2.029  0.5943 -0.0875 -0.1963
    4IDB    C16 7240   1.747   2.795   2.314 -0.4414 -0.1810  0.1372
    4IDB    C17 7241   1.791   2.729   2.433 -0.5274 -0.2377  0.1372
    51IDQ   C18 7242   1.905   2.625   2.404  0.1116 -0.3395 -0.7666
    4IDB    C19 7243   1.749   2.771   2.558 -0.3120 -0.0570  0.1487
    51IDQ   C20 7244   2.041   2.697   2.465 -0.0026  0.3274 -0.4775
    51IDQ   C21 7245   1.880   2.485   2.456 -0.7742 -0.1060 -0.5825
    51IDQ   C22 7246   1.938   2.428   2.592 -0.2598 -1.0258 -2.3544
    51IDQ   C23 7247   2.139   2.779   2.389 -0.7539  0.1322 -1.1016
    51IDQ   C24 7248   1.845   2.298   2.581 -2.0834 -0.8286  0.8326
    51IDQ   C25 7249   1.788   2.244   2.708 -0.4290  0.1991  0.4806
    51IDQ   C26 7250   1.887   2.242   2.818  0.4947 -0.5648 -1.0535
    51IDQ   C27 7251   1.866   2.364   2.909  0.2688 -0.4140 -0.6457
    51IDQ   C28 7252   1.924   2.317   3.038 -1.2024  0.2018 -1.4799
    51IDQ   C29 7253   1.820   2.246   3.149 -0.9984  0.0815  0.5845
    51IDQ   C30 7254   2.098   2.894   2.298  1.0820  0.3750 -1.0556
    51IDQ   C31 7255   2.040   3.033   2.360  2.1394 -0.3270  0.1809
    51IDQ   C32 7256   2.089   3.082   2.497 -1.0823 -0.9658  0.1579
    51IDQ   C33 7257   2.036   3.007   2.615  0.4354  1.3021  0.2525
    51IDQ   C34 7258   2.039   3.077   2.750  1.2216 -0.5424 -0.5103
    51IDQ   C35 7259   2.015   2.978   2.868  0.2128 -0.8659  0.4345
    4IDB    C36 7260   1.661   2.906   2.321 -0.1376  0.0587  0.1489
    4IDB    C37 7261   1.619   2.948   2.450  0.0794  0.2410  0.1607
    11RH    C38 7262   2.343   2.641   0.985  0.2375  0.0225  1.0492
    4IDB    C39 7263   1.663   2.882   2.565 -0.0081  0.1828  0.1603
    62IDT   C40 7264   1.594   2.936   2.690 -1.2019 -0.3304  0.1992
    72IDQ   C41 7265   1.514   3.059   2.490  0.0415 -0.3433 -0.9225
    62IDT   C42 7266   1.505   3.031   2.644 -2.0137 -1.1009  0.1410
    72IDQ   C43 7267   1.379   3.054   2.412  0.6479  0.1146  0.6379
    72IDQ   C44 7268   1.563   3.209   2.470  0.3637 -0.0931  0.7881
    62IDT    S5 7269   1.572   2.903   2.865 -0.1979  0.3530  0.4641
    62IDT   C45 7270   1.438   3.025   2.867 -0.9662 -0.4796  0.4832
    62IDT   C46 7271   1.417   3.082   2.744 -1.8817 -1.1864  0.3015
    82BTZ   C47 7272   1.367   3.061   2.993 -0.3218  0.1818 -0.4690
    82BTZ   C48 7273   1.272   2.977   3.044 -0.4370  0.1854 -0.6745
    82BTZ   C49 7274   1.206   3.004   3.170 -0.5219  0.0565 -0.6906
    82BTZ   C50 7275   1.235   3.116   3.243 -0.4914 -0.0758 -0.5012
    82BTZ   C51 7276   1.401   3.180   3.066 -0.2855  0.0460 -0.2654
    82BTZ   C52 7277   1.334   3.208   3.194 -0.3718 -0.0851 -0.2817
    92RH    C53 7278   1.161   3.151   3.367  0.1625  0.2755  0.5343
    82BTZ    N4 7279   1.492   3.269   3.027 -0.1758  0.0287 -0.0554
    82BTZ    N5 7280   1.371   3.320   3.256 -0.3315 -0.2075 -0.0850
    82BTZ    S6 7281   1.495   3.396   3.153 -0.1783 -0.1597  0.1342
    92RH    C54 7282   1.055   3.107   3.435  0.1814  0.0578  0.4230
    92RH     S7 7283   0.939   2.974   3.384  0.4047 -0.0595  0.2199
    92RH    C55 7284   1.014   3.161   3.567  0.0181 -0.1277  0.4483
    92RH     O2 7285   1.071   3.252   3.629 -0.1521 -0.1042  0.5733
    92RH     N6 7286   0.898   3.096   3.615  0.0792 -0.3400  0.3110
    92RH    C56 7287   0.842   2.996   3.539  0.2715 -0.3479  0.1786
    92RH    C57 7288   0.836   3.142   3.741  0.3479 -1.4213  0.3061
    92RH    C58 7289   0.864   3.068   3.860  0.0974  1.5986 -0.0031
    92RH     S8 7290   0.705   2.904   3.573  0.3807 -0.5774  0.0012
    72IDQ   C59 7291   1.709   3.245   2.483 -0.5742 -0.5047 -0.3631
    72IDQ   C60 7292   1.719   3.376   2.545 -0.7290 -0.4896 -0.7347
    72IDQ   C61 7293   1.850   3.423   2.578  0.2435  0.4027 -0.2987
    72IDQ   C62 7294   1.853   3.541   2.666 -0.6138  0.9638  0.3947
    72IDQ   C63 7295   1.910   3.670   2.602  0.6468 -0.0474 -0.0200
    72IDQ   C64 7296   1.877   3.788   2.695 -0.3697 -0.4975  0.7270
    72IDQ   C65 7297   1.925   3.894   2.601  0.6148  0.0001 -0.6496
    72IDQ   C66 7298   1.351   2.965   2.282  0.0638 -0.1393  0.4952
    72IDQ   C67 7299   1.236   2.873   2.259 -0.1387 -1.1904 -0.4245
    72IDQ   C68 7300   1.126   2.927   2.181  0.2878 -0.5025  1.1054
    72IDQ   C69 7301   1.036   3.025   2.229 -2.2216 -0.5070  0.1608
    72IDQ   C70 7302   1.092   3.159   2.211  0.3116 -0.1997  0.1428
    72IDQ   C71 7303   1.110   3.247   2.341  1.2692  1.1457 -0.3697
    72IDQ   C72 7304   1.175   3.378   2.324  0.4419  0.8634  0.7875
    11RH     C1 7305   2.595   4.131   5.334  0.3246  0.1771 -0.0625
    11RH     C2 7306   2.484   4.229   5.323  0.2252  0.0448 -0.2301
    11RH     N1 7307   2.621   4.068   5.210  0.4913  0.1035  0.0096
    11RH     S1 7308   2.421   4.231   5.150  0.3577 -0.1675 -0.2818
    11RH     C3 7309   2.544   4.103   5.101  0.5379 -0.0713 -0.0796
    11RH     C4 7310   2.728   3.967   5.202  0.4768  0.2530  1.2742
    11RH     S2 7311   2.555   4.044   4.944  0.7274 -0.1895 -0.0224
    11RH     O1 7312   2.659   4.106   5.437  0.2713  0.3338  0.0083
    11RH     C5 7313   2.439   4.302   5.425  0.0636  0.0801 -0.3252
    21BTZ    C6 7314   2.314   4.379   5.428  0.6464  0.2429 -0.6013
    21BTZ    C7 7315   2.211   4.377   5.338  0.7912  0.4520 -0.7727
    21BTZ    C8 7316   2.302   4.461   5.545  0.4030 -0.1302 -0.3633
    21BTZ    C9 7317   2.091   4.456   5.358  0.7048  0.3064 -0.7193
    21BTZ   C10 7318   2.075   4.535   5.469  0.4738 -0.0481 -0.4945
    21BTZ   C11 7319   2.181   4.540   5.566  0.3153 -0.2785 -0.3090
    21BTZ    N2 7320   2.396   4.471   5.639  0.2451 -0.3605 -0.1810
    21BTZ    N3 7321   2.177   4.614   5.677  0.0867 -0.6275 -0.0832
    21BTZ    S3 7322   2.332   4.584   5.762 -0.0283 -0.7859  0.0726
    31IDT   C12 7323   1.947   4.608   5.479  0.5572  0.2814 -0.3535
    31IDT   C13 7324   1.934   4.731   5.538  0.4063  0.1962 -0.2108
    31IDT   C14 7325   1.814   4.798   5.499  0.1385 -0.0620  0.1526
    31IDT   C15 7326   1.736   4.728   5.410  0.0835 -0.1746  0.2896
    31IDT    S4 7327   1.808   4.569   5.368  0.3692  0.0388 -0.0343
    4IDB    C16 7328   1.631   4.821   5.361 -0.1425  0.3511  0.9098
    4IDB    C17 7329   1.656   4.951   5.412 -0.3380  0.5989  0.3855
    51IDQ   C18 7330   1.769   4.942   5.526 -0.0794 -0.0826 -0.8152
    4IDB    C19 7331   1.579   5.060   5.373 -0.2708  0.3920 -0.3287
    51IDQ   C20 7332   1.881   5.047   5.491  0.2780 -0.2007  1.6615
    51IDQ   C21 7333   1.711   4.956   5.658  0.1380  0.1909 -0.2300
    51IDQ   C22 7334   1.570   4.909   5.702 -0.3034  0.3052  0.8537
    51IDQ   C23 7335   1.984   5.002   5.390  0.3883  0.0460 -1.2143
    51IDQ   C24 7336   1.510   4.964   5.830  0.5583 -2.1441  1.5344
    51IDQ   C25 7337   1.367   4.947   5.858  0.7329  0.2100  1.2085
    51IDQ   C26 7338   1.339   4.991   5.997 -1.3606  0.3982  0.1021
    51IDQ   C27 7339   1.361   5.146   6.029  1.2570 -0.0810 -0.1684
    51IDQ   C28 7340   1.265   5.264   6.021 -1.5179  0.2999 -0.4638
    51IDQ   C29 7341   1.320   5.398   6.033  0.0341 -0.0698 -0.2842
    51IDQ   C30 7342   2.076   5.121   5.343  0.4272  1.0327 -0.2835
    51IDQ   C31 7343   2.165   5.192   5.437 -0.0736 -0.5916 -0.1105
    51IDQ   C32 7344   2.255   5.078   5.490 -0.1970 -0.4895  0.7087
    51IDQ   C33 7345   2.317   5.075   5.621 -0.5206 -0.2566 -1.1518
    51IDQ   C34 7346   2.367   4.930   5.681  1.2742  0.4234 -0.1493
    51IDQ   C35 7347   2.471   4.939   5.784  0.6409  0.0053  1.4551
    4IDB    C36 7348   1.527   4.798   5.269  0.1233 -0.1078  0.7207
    4IDB    C37 7349   1.449   4.910   5.230  0.1884 -0.3135 -0.0119
    11RH    C38 7350   2.848   4.025   5.126  0.1318  1.0461 -0.6297
    4IDB    C39 7351   1.476   5.037   5.281 -0.0051 -0.0670 -0.5173
    62IDT   C40 7352   1.392   5.133   5.212  0.3206 -0.4024 -0.2705
    72IDQ   C41 7353   1.317   4.913   5.147  1.4451  0.7247  1.7603
    62IDT   C42 7354   1.302   5.071   5.128  0.7052 -0.2604 -0.7925
    72IDQ   C43 7355   1.191   4.845   5.218  0.1154 -1.2685  0.7468
    72IDQ   C44 7356   1.347   4.864   5.006  0.5937 -0.5830  1.2615
    62IDT    S5 7357   1.379   5.312   5.207  0.1982 -0.3986  0.1389
    62IDT   C45 7358   1.245   5.294   5.085  0.6978 -0.1949 -0.4464
    62IDT   C46 7359   1.218   5.162   5.056  0.9189 -0.1423 -0.8929
    82BTZ   C47 7360   1.177   5.420   5.035  0.3962  0.3810  0.3455
    82BTZ   C48 7361   1.238   5.520   4.965  0.2542  0.6320  0.5770
    82BTZ   C49 7362   1.171   5.644   4.935  0.0647  0.5915  0.8335
    82BTZ   C50 7363   1.043   5.668   4.976  0.0173  0.2997  0.8586
    82BTZ   C51 7364   1.042   5.440   5.080  0.3538  0.0706  0.3614
    82BTZ   C52 7365   0.974   5.567   5.050  0.1611  0.0296  0.6223
    92RH    C53 7366   0.976   5.790   4.940 -0.2234 -0.4689  0.0855
    82BTZ    N4 7367   0.972   5.351   5.150  0.4800 -0.1924  0.1504
    82BTZ    N5 7368   0.849   5.578   5.095  0.1324 -0.2666  0.6206
    82BTZ    S6 7369   0.812   5.425   5.180  0.3552 -0.5102  0.2793
    92RH    C54 7370   1.018   5.902   4.880 -0.0832 -0.4635  0.1955
    92RH     S7 7371   1.192   5.949   4.845  0.0275 -0.2803  0.9686
    92RH    C55 7372   0.927   6.009   4.833  0.0065 -0.6108 -0.3126
    92RH     O2 7373   0.803   6.008   4.842 -0.0364 -0.7536 -0.8883
    92RH     N6 7374   0.999   6.116   4.774  0.1504 -0.5697 -0.0624
    92RH    C56 7375   1.136   6.108   4.769  0.1869 -0.4070  0.5839
    92RH    C57 7376   0.926   6.217   4.695  0.6237  0.6135 -0.5706
    92RH    C58 7377   0.856   6.350   4.740 -0.5030  1.8462 -0.4357
    92RH     S8 7378   1.244   6.220   4.705  0.3495 -0.3259  0.9987
    72IDQ   C59 7379   1.250   4.752   4.943  0.3625  0.1126 -0.6387
    72IDQ   C60 7380   1.149   4.799   4.840  0.6680 -1.2676 -0.5238
    72IDQ   C61 7381   1.207   4.894   4.739 -0.3070 -0.2004 -0.3323
    72IDQ   C62 7382   1.119   4.950   4.631  1.2525 -0.4485 -0.1297
    72IDQ   C63 7383   1.206   5.046   4.536  1.0351 -0.2390  0.5520
    72IDQ   C64 7384   1.303   5.164   4.591  0.3361 -0.3900  0.8727
    72IDQ   C65 7385   1.394   5.230   4.489  0.1680  1.6048 -0.0916
    72IDQ   C66 7386   1.191   4.706   5.294 -0.5248  1.1681 -0.3484
    72IDQ   C67 7387   1.049   4.643   5.276  0.0148 -0.0096 -0.0045
    72IDQ   C68 7388   0.928   4.718   5.342  1.1260 -0.6304 -0.0230
    72IDQ   C69 7389   0.811   4.617   5.417 -0.4283 -0.2966  0.6543
    72IDQ   C70 7390   0.874   4.521   5.523  1.2541  0.2421  0.1776
    72IDQ   C71 7391   0.918   4.631   5.624  1.0922 -0.8809  0.0944
    72IDQ   C72 7392   1.038   4.600   5.718  0.3909 -0.3075  0.1858
    11RH     C1 7393   6.847   0.345   2.403 -0.4072 -0.1937 -0.9576
    11RH     C2 7394   6.722   0.274   2.438 -0.4392  0.0242 -0.6268
    11RH     N1 7395   6.821   0.477   2.360 -0.2717 -0.0697 -0.6588
    11RH     S1 7396   6.578   0.385   2.413 -0.2881  0.3779  0.0559
    11RH     C3 7397   6.691   0.520   2.357 -0.1907  0.2209 -0.1289
    11RH     C4 7398   6.931   0.567   2.310  1.2552 -0.1466 -0.3936
    11RH     S2 7399   6.633   0.672   2.311 -0.0265  0.4198  0.3120
    11RH     O1 7400   6.962   0.297   2.409 -0.4878 -0.4535 -1.4369
    11RH     C5 7401   6.719   0.147   2.482 -0.5606 -0.0370 -0.8134
    21BTZ    C6 7402   6.621   0.037   2.502 -0.3058  0.5313  0.0361
    21BTZ    C7 7403   6.491   0.071   2.474 -0.4022  0.3054  0.2131
    21BTZ    C8 7404   6.659  -0.100   2.494 -0.1204  0.5760  0.1606
    21BTZ    C9 7405   6.393  -0.029   2.438 -0.3219  0.1137  0.5192
    21BTZ   C10 7406   6.425  -0.162   2.429 -0.1453  0.1483  0.6477
    21BTZ   C11 7407   6.560  -0.202   2.457 -0.0389  0.3810  0.4716
    21BTZ    N2 7408   6.783  -0.145   2.519 -0.0124  0.7882  0.0106
    21BTZ    N3 7409   6.603  -0.328   2.452  0.1347  0.4365  0.5717
    21BTZ    S3 7410   6.777  -0.323   2.495  0.2026  0.7468  0.2662
    31IDT   C12 7411   6.317  -0.260   2.391  0.1681  0.8210  0.0489
    31IDT   C13 7412   6.326  -0.382   2.331  0.3681  1.3020 -0.9122
    31IDT   C14 7413   6.198  -0.438   2.300  0.4563  1.2698 -1.2212
    31IDT   C15 7414   6.091  -0.359   2.337  0.3242  0.7659 -0.4998
    31IDT    S4 7415   6.144  -0.206   2.414  0.0756  0.2883  0.6376
    4IDB    C16 7416   5.968  -0.430   2.306 -0.0186 -0.0580  0.2515
    4IDB    C17 7417   6.007  -0.549   2.236  0.2444  0.4077 -0.3959
    51IDQ   C18 7418   6.156  -0.556   2.217 -0.3792  0.3996  0.5387
    4IDB    C19 7419   5.912  -0.642   2.197  0.4467  0.4333 -0.9543
    51IDQ   C20 7420   6.222  -0.676   2.280 -0.5302 -0.6371 -0.0281
    51IDQ   C21 7421   6.211  -0.541   2.062  0.4353  0.1137  0.0289
    51IDQ   C22 7422   6.111  -0.525   1.937  0.0810  0.3211  0.8414
    51IDQ   C23 7423   6.342  -0.753   2.223  1.5849  1.0607 -0.1829
    51IDQ   C24 7424   6.080  -0.649   1.848 -0.5147  1.0136  0.9831
    51IDQ   C25 7425   5.988  -0.584   1.751  0.7831  1.0661  1.7620
    51IDQ   C26 7426   5.950  -0.685   1.628 -0.8673  1.2335  2.1156
    51IDQ   C27 7427   5.868  -0.807   1.638 -0.4505 -0.2612 -0.2897
    51IDQ   C28 7428   5.879  -0.909   1.524 -0.4618  0.3375  0.6242
    51IDQ   C29 7429   5.984  -1.015   1.508 -1.4322 -1.3286 -0.9996
    51IDQ   C30 7430   6.396  -0.883   2.282  0.7293  0.4616 -0.3789
    51IDQ   C31 7431   6.541  -0.908   2.254  0.7758  2.3878  0.0274
    51IDQ   C32 7432   6.648  -0.813   2.291  0.0926 -0.9172 -0.5621
    51IDQ   C33 7433   6.640  -0.666   2.230 -0.9575  0.4037 -0.3677
    51IDQ   C34 7434   6.760  -0.573   2.255 -0.5907  0.4268  0.9963
    51IDQ   C35 7435   6.882  -0.566   2.169 -0.4902 -0.8704  0.1556
    4IDB    C36 7436   5.834  -0.405   2.338 -0.0811 -0.5043  0.3440
    4IDB    C37 7437   5.738  -0.502   2.297  0.1280 -0.4714 -0.2326
    11RH    C38 7438   6.962   0.533   2.154 -0.3457 -0.1608  0.9346
    4IDB    C39 7439   5.778  -0.617   2.228  0.3841 -0.0132 -0.8619
    62IDT   C40 7440   5.658  -0.681   2.186 -0.1590 -0.2494  0.7163
    72IDQ   C41 7441   5.589  -0.500   2.337  1.1185  1.1914 -0.2123
    62IDT   C42 7442   5.547  -0.635   2.254 -0.3765 -0.6974  0.6697
    72IDQ   C43 7443   5.524  -0.380   2.287 -0.2074  0.5767 -0.1306
    72IDQ   C44 7444   5.584  -0.510   2.498  0.5592 -0.0018  0.2581
    62IDT    S5 7445   5.616  -0.811   2.069  0.3486 -0.1043  0.3712
    62IDT   C45 7446   5.442  -0.795   2.120  0.2344 -0.6854  0.1722
    62IDT   C46 7447   5.425  -0.699   2.216 -0.1540 -0.9444  0.3620
    82BTZ   C47 7448   5.334  -0.877   2.065  0.1525 -0.2496  0.6265
    82BTZ   C48 7449   5.367  -0.912   1.937  0.2003 -0.3154  0.6568
    82BTZ   C49 7450   5.273  -0.976   1.849  0.2313 -0.3552  0.6527
    82BTZ   C50 7451   5.145  -1.006   1.889  0.2141 -0.3289  0.6184
    82BTZ   C51 7452   5.201  -0.905   2.112  0.1330 -0.2201  0.5898
    82BTZ   C52 7453   5.106  -0.971   2.022  0.1645 -0.2606  0.5858
    92RH    C53 7454   5.050  -1.082   1.807  0.3212 -0.7134  0.1900
    82BTZ    N4 7455   5.157  -0.876   2.234  0.0873 -0.1566  0.5583
    82BTZ    N5 7456   4.984  -0.994   2.073  0.1435 -0.2291  0.5510
    82BTZ    S6 7457   4.988  -0.932   2.241  0.0822 -0.1459  0.5210
    92RH    C54 7458   5.050  -1.122   1.679  0.0679 -0.3147  0.0632
    92RH     S7 7459   5.185  -1.101   1.556 -0.2782  0.2998 -0.2128
    92RH    C55 7460   4.936  -1.193   1.616  0.0293 -0.3116  0.1301
    92RH     O2 7461   4.829  -1.223   1.673  0.2224 -0.6700  0.3077
    92RH     N6 7462   4.962  -1.224   1.481 -0.2600  0.1578 -0.0354
    92RH    C56 7463   5.084  -1.186   1.428 -0.4575  0.5310 -0.2267
    92RH    C57 7464   4.856  -1.260   1.376  0.9013  0.5983  0.1196
    92RH    C58 7465   4.766  -1.157   1.341  0.4617  0.3855 -1.1128
    92RH     S8 7466   5.140  -1.210   1.271 -0.8123  1.1187 -0.4475
    72IDQ   C59 7467   5.494  -0.624   2.573 -0.6325 -1.3989  0.5076
    72IDQ   C60 7468   5.576  -0.741   2.609 -0.3088 -0.7935  0.4296
    72IDQ   C61 7469   5.483  -0.844   2.655  0.5157 -0.4393 -1.1132
    72IDQ   C62 7470   5.530  -0.986   2.616  0.3730  1.7974  0.0482
    72IDQ   C63 7471   5.430  -1.097   2.635  0.9226 -0.9677 -1.1042
    72IDQ   C64 7472   5.470  -1.233   2.579  0.7482 -0.0618  0.2316
    72IDQ   C65 7473   5.365  -1.342   2.635  0.8195 -0.0787  0.2196
    72IDQ   C66 7474   5.406  -0.311   2.337  0.3313  0.5720 -1.4464
    72IDQ   C67 7475   5.277  -0.363   2.277 -0.0184  1.4654  0.0428
    72IDQ   C68 7476   5.194  -0.408   2.402 -0.2006  0.3416 -0.2830
    72IDQ   C69 7477   5.049  -0.420   2.383  0.2874  0.4349  0.9395
    72IDQ   C70 7478   4.973  -0.496   2.482  0.1451  0.2947 -1.1469
    72IDQ   C71 7479   4.887  -0.601   2.409  0.9198 -0.6955  0.3505
    72IDQ   C72 7480   4.847  -0.699   2.515 -1.6050 -0.1995  0.7620
    11RH     C1 7481   3.525   4.922   4.415  0.1680  0.4704  0.0322
    11RH     C2 7482   3.516   4.999   4.288  0.1799  0.1147 -0.1843
    11RH     N1 7483   3.592   4.800   4.397  0.3152  0.4928  0.4184
    11RH     S1 7484   3.597   4.904   4.153  0.3843 -0.1662  0.1338
    11RH     C3 7485   3.639   4.768   4.271  0.4438  0.1993  0.5374
    11RH     C4 7486   3.589   4.693   4.503  0.7080 -0.7651  0.6735
    11RH     S2 7487   3.722   4.630   4.223  0.6309  0.1571  0.9787
    11RH     O1 7488   3.479   4.959   4.524  0.0457  0.7207 -0.1013
    11RH     C5 7489   3.457   5.118   4.278  0.0575  0.0234 -0.5558
    21BTZ    C6 7490   3.436   5.223   4.173 -0.2017 -0.2125 -0.1190
    21BTZ    C7 7491   3.507   5.213   4.056 -0.0335 -0.3345 -0.0072
    21BTZ    C8 7492   3.361   5.342   4.198 -0.1243 -0.1285 -0.2880
    21BTZ    C9 7493   3.507   5.319   3.959  0.2174 -0.3796 -0.0557
    21BTZ   C10 7494   3.437   5.435   3.978  0.2995 -0.3029 -0.2155
    21BTZ   C11 7495   3.362   5.450   4.099  0.1305 -0.1743 -0.3369
    21BTZ    N2 7496   3.288   5.364   4.308 -0.2711 -0.0079 -0.4079
    21BTZ    N3 7497   3.289   5.559   4.129  0.1887 -0.0904 -0.4966
    21BTZ    S3 7498   3.216   5.527   4.289 -0.0857  0.0539 -0.5926
    31IDT   C12 7499   3.437   5.539   3.878 -0.3336 -0.8309 -0.5329
    31IDT   C13 7500   3.334   5.576   3.795 -0.3469 -0.6347 -0.4306
    31IDT   C14 7501   3.377   5.651   3.682 -0.3926 -0.1593 -0.1343
    31IDT   C15 7502   3.513   5.673   3.677 -0.4147  0.0096 -0.0096
    31IDT    S4 7503   3.598   5.598   3.817 -0.3788 -0.4243 -0.2598
    4IDB    C16 7504   3.552   5.740   3.563  0.9444  0.4400 -0.1592
    4IDB    C17 7505   3.436   5.768   3.484  0.5423  0.7703  0.5369
    51IDQ   C18 7506   3.312   5.701   3.557  0.5308  0.0826  0.5253
    4IDB    C19 7507   3.446   5.845   3.369  0.0917  0.6255  0.4011
    51IDQ   C20 7508   3.180   5.789   3.577 -0.5158 -0.5804 -0.0788
    51IDQ   C21 7509   3.267   5.573   3.482 -0.6744  0.9859  0.1714
    51IDQ   C22 7510   3.318   5.545   3.343 -0.6177 -1.0372  0.6009
    51IDQ   C23 7511   3.097   5.773   3.713 -0.8893  0.2490  0.5573
    51IDQ   C24 7512   3.242   5.460   3.232  0.0778 -0.9392  0.0332
    51IDQ   C25 7513   3.095   5.511   3.212  0.0449  0.1985 -1.3366
    51IDQ   C26 7514   3.048   5.653   3.190 -0.3726 -0.7959  0.8864
    51IDQ   C27 7515   2.951   5.712   3.288  0.9380 -0.5963  1.0787
    51IDQ   C28 7516   2.805   5.686   3.245 -0.4578  0.6558  0.1551
    51IDQ   C29 7517   2.707   5.773   3.333 -0.7120  0.2708 -1.3220
    51IDQ   C30 7518   3.010   5.656   3.736  1.2245 -0.4368 -1.1968
    51IDQ   C31 7519   2.863   5.689   3.687 -0.2145  0.9369  0.5348
    51IDQ   C32 7520   2.781   5.780   3.765 -0.3355 -1.2892  1.2293
    51IDQ   C33 7521   2.773   5.765   3.908  0.4354  0.6103  0.4674
    51IDQ   C34 7522   2.889   5.814   3.991  2.4013  0.2176  0.1390
    51IDQ   C35 7523   2.882   5.766   4.128  0.5772 -0.3192  0.1899
    4IDB    C36 7524   3.678   5.789   3.527  0.8976 -0.0393 -1.0002
    4IDB    C37 7525   3.686   5.867   3.409  0.4344 -0.1805 -1.1266
    11RH    C38 7526   3.729   4.680   4.555  0.5154  0.2389 -0.8776
    4IDB    C39 7527   3.572   5.894   3.332  0.0447  0.1464 -0.4399
    62IDT   C40 7528   3.604   5.998   3.232 -0.3601  0.4954  0.0513
    72IDQ   C41 7529   3.794   5.964   3.374 -0.6560 -0.3469  1.1378
    62IDT   C42 7530   3.739   6.024   3.237 -0.2276 -0.1273 -0.2021
    72IDQ   C43 7531   3.914   5.888   3.335  0.8090 -0.8877  0.4546
    72IDQ   C44 7532   3.827   6.035   3.507  0.7015 -0.4841  0.6605
    62IDT    S5 7533   3.530   6.052   3.077 -0.2668  0.2288 -0.0877
    62IDT   C45 7534   3.694   6.110   3.025 -0.0429 -0.7586 -0.5011
    62IDT   C46 7535   3.790   6.088   3.120 -0.0480 -0.8368 -0.5146
    82BTZ   C47 7536   3.706   6.162   2.888  0.5072  0.1213  0.4991
    82BTZ   C48 7537   3.589   6.182   2.821  0.4953  0.1390  0.5249
    82BTZ   C49 7538   3.586   6.235   2.686  0.4774  0.0801  0.5018
    82BTZ   C50 7539   3.701   6.268   2.620  0.4714  0.0037  0.4534
    82BTZ   C51 7540   3.829   6.195   2.823  0.5013  0.0420  0.4483
    82BTZ   C52 7541   3.827   6.249   2.686  0.4830 -0.0176  0.4250
    92RH    C53 7542   3.691   6.293   2.476 -0.1331  0.1400  0.4069
    82BTZ    N4 7543   3.950   6.179   2.878  0.5115  0.0176  0.4196
    82BTZ    N5 7544   3.946   6.277   2.632  0.4787 -0.0901  0.3773
    82BTZ    S6 7545   4.068   6.235   2.756  0.4977 -0.0846  0.3600
    92RH    C54 7546   3.595   6.300   2.384 -0.1347  0.0782  0.4040
    92RH     S7 7547   3.413   6.297   2.413 -0.1335 -0.3268  0.3765
    92RH    C55 7548   3.622   6.311   2.238 -0.1382  0.3381  0.4234
    92RH     O2 7549   3.734   6.316   2.186 -0.1398  0.6378  0.4442
    92RH     N6 7550   3.502   6.317   2.164 -0.1394  0.2027  0.4154
    92RH    C56 7551   3.382   6.311   2.232 -0.1374 -0.1333  0.3921
    92RH    C57 7552   3.509   6.299   2.023 -0.1344  0.0411  1.1860
    92RH    C58 7553   3.523   6.431   1.941 -0.2522  0.4729 -0.5541
    92RH     S8 7554   3.226   6.315   2.167 -0.1382 -0.3545  0.3783
    72IDQ   C59 7555   3.914   6.165   3.519 -0.3557  0.5860  0.3290
    72IDQ   C60 7556   3.890   6.281   3.428 -0.3590 -0.2716 -0.1185
    72IDQ   C61 7557   3.997   6.385   3.433  0.9511 -0.0664 -0.7341
    72IDQ   C62 7558   4.009   6.465   3.562 -0.5665  1.4586  0.1468
    72IDQ   C63 7559   4.106   6.390   3.665  0.0206 -0.7226 -0.2619
    72IDQ   C64 7560   4.256   6.375   3.639  0.4546 -0.7481  0.5333
    72IDQ   C65 7561   4.279   6.225   3.632 -0.0277  0.5951 -0.1021
    72IDQ   C66 7562   4.056   5.931   3.286  0.0454  0.4317 -0.3629
    72IDQ   C67 7563   4.159   5.817   3.235  0.7338  0.8160 -0.1777
    72IDQ   C68 7564   4.303   5.869   3.227  0.3431  0.1720  0.0339
    72IDQ   C69 7565   4.367   5.937   3.351  0.7093  1.0729  0.1103
    72IDQ   C70 7566   4.509   5.960   3.332 -0.5907 -0.1281  0.0836
    72IDQ   C71 7567   4.516   6.087   3.436  1.0034  0.2974  0.0088
    72IDQ   C72 7568   4.644   6.170   3.445  0.4010  0.2221  0.0297
    11RH     C1 7569   1.775   3.807   1.734 -0.2313 -0.0821  0.2156
    11RH     C2 7570   1.920   3.822   1.762 -0.1989 -0.2681  0.1443
    11RH     N1 7571   1.719   3.929   1.688 -0.1095  0.0039  0.2936
    11RH     S1 7572   1.973   3.994   1.726 -0.0102 -0.3177  0.1846
    11RH     C3 7573   1.801   4.038   1.676  0.0167 -0.0904  0.2937
    11RH     C4 7574   1.578   3.937   1.646  0.6175 -1.1072  0.7505
    11RH     S2 7575   1.759   4.193   1.625  0.1760 -0.0196  0.3774
    11RH     O1 7576   1.709   3.703   1.748 -0.3498 -0.0081  0.2093
    11RH     C5 7577   1.997   3.722   1.806 -0.2958 -0.3786  0.0636
    21BTZ    C6 7578   2.132   3.716   1.857  0.5482  0.1753 -0.5437
    21BTZ    C7 7579   2.199   3.831   1.889  0.5840  0.2248 -0.7876
    21BTZ    C8 7580   2.207   3.595   1.837  0.5058  0.0988 -0.2380
    21BTZ    C9 7581   2.342   3.833   1.905  0.5797  0.2016 -0.7436
    21BTZ   C10 7582   2.418   3.720   1.887  0.5396  0.1289 -0.4560
    21BTZ   C11 7583   2.353   3.597   1.853  0.5014  0.0751 -0.1933
    21BTZ    N2 7584   2.153   3.477   1.805  0.4686  0.0457  0.0175
    21BTZ    N3 7585   2.416   3.481   1.833  0.4607  0.0029  0.0982
    21BTZ    S3 7586   2.289   3.362   1.793  0.4257 -0.0387  0.3327
    31IDT   C12 7587   2.574   3.728   1.884 -0.0548 -0.1327 -0.2582
    31IDT   C13 7588   2.659   3.622   1.899 -0.3382 -0.3281 -0.0162
    31IDT   C14 7589   2.796   3.661   1.907 -0.2863 -0.6183  0.6478
    31IDT   C15 7590   2.816   3.798   1.898  0.0359 -0.6459  0.9156
    31IDT    S4 7591   2.661   3.887   1.878  0.3015 -0.3034  0.3426
    4IDB    C16 7592   2.962   3.824   1.895  0.4414 -0.1578 -0.5202
    4IDB    C17 7593   3.041   3.706   1.907  0.1892 -0.2830 -0.0539
    51IDQ   C18 7594   2.942   3.597   1.910 -0.0548  1.9296  1.0338
    4IDB    C19 7595   3.180   3.714   1.919  0.2057 -0.5340 -0.0661
    51IDQ   C20 7596   2.999   3.521   1.777  0.2267  0.8260 -1.2601
    51IDQ   C21 7597   2.940   3.514   2.032 -0.0454  0.4498 -0.9905
    51IDQ   C22 7598   3.067   3.426   2.044  1.0402  0.4637  0.5395
    51IDQ   C23 7599   2.894   3.471   1.681 -0.1885  0.5303  0.5520
    51IDQ   C24 7600   3.166   3.458   2.169 -0.1872 -0.0990  1.3629
    51IDQ   C25 7601   3.179   3.381   2.294  0.5604  0.5260  0.8698
    51IDQ   C26 7602   3.058   3.314   2.364  0.4662  0.1671  0.7191
    51IDQ   C27 7603   3.007   3.330   2.511 -0.8723 -0.1006 -0.9023
    51IDQ   C28 7604   2.976   3.458   2.571 -1.1850  0.0799 -0.7350
    51IDQ   C29 7605   3.000   3.453   2.726 -0.5551 -0.2538  0.1715
    51IDQ   C30 7606   2.922   3.321   1.642  0.2850  0.5486 -0.8145
    51IDQ   C31 7607   3.061   3.277   1.587  0.2785 -0.0839  1.8075
    51IDQ   C32 7608   3.094   3.339   1.456 -0.2921 -0.5838 -0.1517
    51IDQ   C33 7609   3.224   3.282   1.393  1.2721 -1.7420  0.3521
    51IDQ   C34 7610   3.229   3.352   1.254 -0.1020 -0.0537 -0.2832
    51IDQ   C35 7611   3.353   3.430   1.249 -0.9324  0.6041 -0.6370
    4IDB    C36 7612   3.020   3.951   1.894  0.7131 -0.2837 -1.0042
    4IDB    C37 7613   3.162   3.958   1.906  0.7260 -0.5401 -1.0090
    11RH    C38 7614   1.537   3.922   1.495  0.0761 -1.0463 -0.4827
    4IDB    C39 7615   3.238   3.842   1.918  0.4775 -0.6597 -0.5501
    62IDT   C40 7616   3.374   3.880   1.945 -0.1265 -0.4278 -0.0240
    72IDQ   C41 7617   3.252   4.077   1.887  0.4520  1.4392 -0.5304
    62IDT   C42 7618   3.391   4.014   1.917 -0.7437 -0.1783  0.7721
    72IDQ   C43 7619   3.244   4.202   1.989  0.6030  0.9043 -0.2451
    72IDQ   C44 7620   3.253   4.119   1.731 -0.7674  0.5767  0.5751
    62IDT    S5 7621   3.526   3.804   2.005  0.2571 -0.1221 -0.5980
    62IDT   C45 7622   3.607   3.966   1.988 -0.4731  0.3498  0.3133
    62IDT   C46 7623   3.523   4.063   1.942 -0.9407  0.2615  0.9640
    82BTZ   C47 7624   3.758   3.971   2.008  0.0391 -0.0356  0.8800
    82BTZ   C48 7625   3.834   3.857   2.002  0.1912  0.0595  0.9950
    82BTZ   C49 7626   3.976   3.861   1.979  0.1559  0.2162  0.8093
    82BTZ   C50 7627   4.043   3.980   1.961 -0.0316  0.2775  0.5090
    82BTZ   C51 7628   3.823   4.097   1.990 -0.1602  0.0231  0.5668
    82BTZ   C52 7629   3.968   4.102   1.966 -0.1962  0.1824  0.3781
    92RH    C53 7630   4.183   4.002   1.943 -0.0246 -0.3586  0.4371
    82BTZ    N4 7631   3.760   4.215   1.994 -0.3206 -0.0582  0.4291
    82BTZ    N5 7632   4.021   4.224   1.951 -0.3853  0.2291  0.0886
    82BTZ    S6 7633   3.885   4.340   1.966 -0.5289  0.0680  0.0441
    92RH    C54 7634   4.287   3.920   1.922  0.0448 -0.2148  0.2153
    92RH     S7 7635   4.283   3.759   1.832  0.1582 -0.0301 -0.1213
    92RH    C55 7636   4.424   3.947   1.969  0.0405 -0.1824  0.2094
    92RH     O2 7637   4.460   4.048   2.033 -0.0269 -0.2828  0.4047
    92RH     N6 7638   4.513   3.844   1.933  0.1236 -0.0208 -0.0506
    92RH    C56 7639   4.463   3.737   1.862  0.1943  0.0806 -0.2536
    92RH    C57 7640   4.652   3.855   1.945 -0.7047 -0.3044 -0.1978
    92RH    C58 7641   4.710   3.776   2.073  1.2593 -1.0510  0.6119
    92RH     S8 7642   4.548   3.601   1.807  0.2995  0.2772 -0.5785
    72IDQ   C59 7643   3.262   4.028   1.599 -0.6191  0.3881  1.0316
    72IDQ   C60 7644   3.220   4.091   1.456  0.1325  0.2269 -1.1256
    72IDQ   C61 7645   3.170   3.995   1.349  0.1578 -0.1010 -0.6434
    72IDQ   C62 7646   3.210   4.035   1.209 -0.4768  0.7244  0.4749
    72IDQ   C63 7647   3.325   3.953   1.166  1.0195 -0.1390  0.0979
    72IDQ   C64 7648   3.417   4.041   1.088  1.0363 -1.0834  1.7437
    72IDQ   C65 7649   3.571   4.031   1.105  0.0782 -0.1866  0.5218
    72IDQ   C66 7650   3.118   4.278   2.007 -0.2660  0.5528  0.5448
    72IDQ   C67 7651   3.109   4.402   2.095  0.0368 -0.6843 -0.4002
    72IDQ   C68 7652   2.985   4.492   2.082  0.7369  1.3709 -0.9362
    72IDQ   C69 7653   2.986   4.555   1.947  0.6039  0.3916 -1.2130
    72IDQ   C70 7654   2.913   4.688   1.959 -1.1476 -0.1932  0.2724
    72IDQ   C71 7655   2.977   4.822   2.010  0.4161  0.5116 -0.7001
    72IDQ   C72 7656   3.048   4.894   1.896 -0.5118 -0.6146 -0.6916
    11RH     C1 7657   4.764   4.981   0.547  0.1166 -0.5865  0.8097
    11RH     C2 7658   4.864   5.081   0.503 -0.0231 -0.7236  0.1775
    11RH     N1 7659   4.651   5.042   0.604  0.1806 -0.3985  0.7333
    11RH     S1 7660   4.802   5.250   0.539 -0.0619 -0.5955 -0.4761
    11RH     C3 7661   4.648   5.180   0.611  0.1085 -0.3676  0.1172
    11RH     C4 7662   4.544   4.960   0.659 -1.3008 -1.9363  1.2522
    11RH     S2 7663   4.525   5.277   0.674  0.1605 -0.1588 -0.1044
    11RH     O1 7664   4.776   4.858   0.537  0.1731 -0.6285  1.3453
    11RH     C5 7665   4.981   5.049   0.445 -0.1055 -0.9110  0.1145
    21BTZ    C6 7666   5.095   5.125   0.380 -0.3086 -0.6818 -0.3789
    21BTZ    C7 7667   5.076   5.258   0.354 -0.4814 -0.7138 -0.4203
    21BTZ    C8 7668   5.217   5.063   0.336 -0.1369 -0.4902 -0.1733
    21BTZ    C9 7669   5.176   5.337   0.285 -0.4940 -0.5596 -0.2629
    21BTZ   C10 7670   5.294   5.282   0.242 -0.3339 -0.3741 -0.0643
    21BTZ   C11 7671   5.318   5.143   0.266 -0.1500 -0.3333 -0.0134
    21BTZ    N2 7672   5.246   4.934   0.355  0.0389 -0.4411 -0.1142
    21BTZ    N3 7673   5.429   5.078   0.229  0.0162 -0.1583  0.1744
    21BTZ    S3 7674   5.408   4.909   0.283  0.1999 -0.1874  0.1542
    31IDT   C12 7675   5.394   5.376   0.174 -0.2003  0.6439  0.9689
    31IDT   C13 7676   5.367   5.508   0.150  0.2601  0.6518  0.4723
    31IDT   C14 7677   5.480   5.580   0.100  0.4513  0.0193 -0.0211
    31IDT   C15 7678   5.594   5.504   0.086  0.1384 -0.4736  0.0959
    31IDT    S4 7679   5.567   5.333   0.135 -0.4275 -0.1725  0.8467
    4IDB    C16 7680   5.707   5.590   0.042  0.7732 -0.5649 -0.0142
    4IDB    C17 7681   5.660   5.723   0.016  0.2680 -0.8183 -0.4027
    51IDQ   C18 7682   5.506   5.718   0.041 -0.9940  0.6658 -0.5989
    4IDB    C19 7683   5.748   5.825  -0.017 -0.1249 -0.5848 -0.7386
    51IDQ   C20 7684   5.470   5.820   0.126  0.2719 -1.8586  0.3412
    51IDQ   C21 7685   5.423   5.729  -0.087  0.2896  1.3184 -0.4972
    51IDQ   C22 7686   5.365   5.861  -0.144  0.5236 -0.1366  1.1207
    51IDQ   C23 7687   5.516   5.844   0.272 -0.6181  0.2418 -0.3606
    51IDQ   C24 7688   5.460   5.943  -0.236  1.5452  0.5284  0.3091
    51IDQ   C25 7689   5.377   6.046  -0.326 -1.2462  0.8519 -0.6197
    51IDQ   C26 7690   5.453   6.112  -0.437 -0.0408  0.8129  0.9805
    51IDQ   C27 7691   5.595   6.170  -0.410  0.2712 -1.6383  0.9046
    51IDQ   C28 7692   5.720   6.090  -0.371  0.1108 -0.1267  0.3299
    51IDQ   C29 7693   5.768   5.969  -0.430  0.3208  0.0148  0.6077
    51IDQ   C30 7694   5.432   5.845   0.382  0.3507  0.0842 -0.4434
    51IDQ   C31 7695   5.410   5.710   0.458  0.3368  0.2952  0.9236
    51IDQ   C32 7696   5.530   5.648   0.536  0.1135 -0.4744 -0.9547
    51IDQ   C33 7697   5.563   5.503   0.502  1.6252 -0.2024 -0.2744
    51IDQ   C34 7698   5.686   5.430   0.560  0.3182 -0.1199 -0.9442
    51IDQ   C35 7699   5.722   5.465   0.704 -0.4629 -0.7738  0.6359
    4IDB    C36 7700   5.844   5.560   0.035  0.8895 -0.0732  0.0401
    4IDB    C37 7701   5.933   5.665   0.001  0.4833  0.1595 -0.3068
    11RH    C38 7702   4.584   4.909   0.798  0.2141 -1.0805 -0.2647
    4IDB    C39 7703   5.885   5.794  -0.024 -0.0089 -0.0931 -0.6844
    62IDT   C40 7704   5.991   5.866  -0.076 -0.6507 -0.3621 -1.4043
    72IDQ   C41 7705   6.079   5.646  -0.034  0.7408 -0.2606  0.8708
    62IDT   C42 7706   6.109   5.795  -0.075 -0.7827 -0.6042 -2.1532
    72IDQ   C43 7707   6.114   5.513  -0.117  2.5309  0.0396  0.5967
    72IDQ   C44 7708   6.170   5.635   0.097 -1.1611  0.4597 -1.1024
    62IDT    S5 7709   6.015   6.034  -0.135 -0.3432  0.2273  0.3381
    62IDT   C45 7710   6.191   5.997  -0.156 -0.4130  0.1093 -0.0574
    62IDT   C46 7711   6.222   5.869  -0.120 -0.6487 -0.3381 -1.3928
    82BTZ   C47 7712   6.276   6.101  -0.219 -0.2952  0.4980  0.5274
    82BTZ   C48 7713   6.220   6.185  -0.311 -0.2015  0.6039  0.5682
    82BTZ   C49 7714   6.300   6.279  -0.386 -0.0446  0.3052  0.3576
    82BTZ   C50 7715   6.436   6.288  -0.368  0.0187 -0.0995  0.1065
    82BTZ   C51 7716   6.417   6.107  -0.196 -0.2344  0.0777  0.2682
    82BTZ   C52 7717   6.499   6.202  -0.272 -0.0751 -0.2258  0.0544
    92RH    C53 7718   6.515   6.373  -0.460  0.4002  0.4547  0.1165
    82BTZ    N4 7719   6.483   6.030  -0.109 -0.3138 -0.0629  0.2046
    82BTZ    N5 7720   6.630   6.202  -0.246 -0.0267 -0.6106 -0.1814
    82BTZ    S6 7721   6.655   6.077  -0.120 -0.1859 -0.6008 -0.1390
    92RH    C54 7722   6.489   6.446  -0.569  0.1814  0.2174  0.0076
    92RH     S7 7723   6.329   6.458  -0.658  0.0791 -0.1987  0.1335
    92RH    C55 7724   6.590   6.531  -0.636 -0.0169  0.2580 -0.2403
    92RH     O2 7725   6.708   6.545  -0.601 -0.0052  0.5114 -0.3741
    92RH     N6 7726   6.535   6.597  -0.748 -0.2268 -0.0312 -0.3095
    92RH    C56 7727   6.403   6.575  -0.779 -0.2208 -0.2990 -0.1473
    92RH    C57 7728   6.630   6.662  -0.853  2.0450 -0.6899 -0.2012
    92RH    C58 7729   6.696   6.799  -0.815 -0.9721 -1.5685 -0.7874
    92RH     S8 7730   6.314   6.641  -0.907 -0.4451 -0.6704 -0.1850
    72IDQ   C59 7731   6.146   5.520   0.189 -1.2489 -0.0292  0.2809
    72IDQ   C60 7732   6.262   5.409   0.215 -0.8237 -0.2622  0.4720
    72IDQ   C61 7733   6.225   5.290   0.291 -0.1820 -0.7678 -0.5824
    72IDQ   C62 7734   6.161   5.295   0.420  0.0306  0.4912  0.0851
    72IDQ   C63 7735   6.215   5.380   0.523  0.5096 -1.0350  0.0869
    72IDQ   C64 7736   6.222   5.311   0.660  0.3696 -0.0683 -0.9333
    72IDQ   C65 7737   6.153   5.366   0.774 -0.6929 -1.3332  0.3641
    72IDQ   C66 7738   6.233   5.512  -0.219 -0.0535  0.5968 -0.0016
    72IDQ   C67 7739   6.364   5.439  -0.179  0.4593 -0.9437 -0.2165
    72IDQ   C68 7740   6.490   5.504  -0.249 -0.5385 -0.2356  0.1236
    72IDQ   C69 7741   6.537   5.642  -0.178  0.2458  0.5145  0.2684
    72IDQ   C70 7742   6.673   5.657  -0.083  0.0815  0.2935  0.5445
    72IDQ   C71 7743   6.688   5.561   0.028 -0.6967 -2.4264 -0.4054
    72IDQ   C72 7744   6.770   5.635   0.143 -0.0153 -1.1126  0.9443
    11RH     C1 7745   1.682   2.328   4.877 -0.3266 -0.0776  0.1800
    11RH     C2 7746   1.612   2.219   4.950 -0.5321  0.1276  0.2913
    11RH     N1 7747   1.618   2.453   4.897  0.0182  0.0951  0.2065
    11RH     S1 7748   1.468   2.288   5.040 -0.2586  0.5342  0.4238
    11RH     C3 7749   1.506   2.457   4.977  0.1140  0.4138  0.3257
    11RH     C4 7750   1.662   2.581   4.836  0.4833  0.1697 -0.3196
    11RH     S2 7751   1.413   2.591   5.017  0.5056  0.6714  0.3812
    11RH     O1 7752   1.783   2.315   4.807 -0.4366 -0.3654  0.0753
    11RH     C5 7753   1.652   2.092   4.948 -0.8662  0.0222  0.2915
    21BTZ    C6 7754   1.640   1.983   5.034  0.1888 -0.2300 -0.0132
    21BTZ    C7 7755   1.553   1.967   5.138  0.3760 -0.1723  0.1526
    21BTZ    C8 7756   1.740   1.882   5.011  0.2890 -0.1348 -0.0005
    21BTZ    C9 7757   1.559   1.852   5.225  0.6691 -0.0191  0.3388
    21BTZ   C10 7758   1.652   1.753   5.207  0.7745  0.0761  0.3581
    21BTZ   C11 7759   1.745   1.765   5.100  0.5869  0.0209  0.1884
    21BTZ    N2 7760   1.830   1.886   4.913  0.1272 -0.1781 -0.1516
    21BTZ    N3 7761   1.840   1.675   5.072  0.6645  0.1027  0.1891
    21BTZ    S3 7762   1.928   1.737   4.930  0.3535 -0.0184 -0.0571
    31IDT   C12 7763   1.650   1.644   5.300  0.8927 -0.4397  0.3173
    31IDT   C13 7764   1.707   1.520   5.294  0.6846 -0.5386  0.3598
    31IDT   C14 7765   1.674   1.438   5.407  0.0557 -0.6635  0.0896
    31IDT   C15 7766   1.592   1.500   5.499 -0.2190 -0.6603 -0.1590
    31IDT    S4 7767   1.548   1.667   5.449  0.3020 -0.4977 -0.0700
    4IDB    C16 7768   1.560   1.417   5.607  0.4491  0.3587 -0.4046
    4IDB    C17 7769   1.631   1.293   5.603  0.1405  0.1795 -0.3505
    51IDQ   C18 7770   1.716   1.299   5.469  0.0375 -0.4163 -0.5674
    4IDB    C19 7771   1.617   1.199   5.705 -0.0130  0.3034 -0.2580
    51IDQ   C20 7772   1.871   1.281   5.480 -0.6526  0.1686  0.7143
    51IDQ   C21 7773   1.680   1.172   5.369  0.1055  0.1298 -0.0935
    51IDQ   C22 7774   1.627   1.036   5.413 -0.7181  0.3938 -0.2337
    51IDQ   C23 7775   1.971   1.398   5.481  0.8034  1.6662  0.4721
    51IDQ   C24 7776   1.557   0.963   5.296 -1.0877  0.3918  0.3283
    51IDQ   C25 7777   1.536   0.812   5.308  0.5473 -0.5248  1.2740
    51IDQ   C26 7778   1.633   0.701   5.247  0.4338 -1.2956 -0.5520
    51IDQ   C27 7779   1.604   0.680   5.108  0.5144 -0.1310  0.0293
    51IDQ   C28 7780   1.679   0.578   5.013 -0.3133  0.1779 -0.1078
    51IDQ   C29 7781   1.814   0.552   5.036  0.5204  0.2148  1.0116
    51IDQ   C30 7782   1.987   1.458   5.618 -0.9681 -0.6601 -0.2275
    51IDQ   C31 7783   2.106   1.564   5.621  0.7025 -1.0765 -1.0412
    51IDQ   C32 7784   2.034   1.695   5.602  0.1329  0.6031  0.9778
    51IDQ   C33 7785   2.124   1.813   5.594 -0.1110 -0.2251  0.1467
    51IDQ   C34 7786   2.043   1.944   5.552  0.2326 -0.2160  0.6786
    51IDQ   C35 7787   1.948   1.936   5.424  0.1328 -0.6008  0.3485
    4IDB    C36 7788   1.474   1.448   5.713  0.6069  0.6647 -0.3669
    4IDB    C37 7789   1.461   1.352   5.817  0.4463  0.7874 -0.2723
    11RH    C38 7790   1.580   2.617   4.708  1.4840  0.4725 -0.2543
    4IDB    C39 7791   1.531   1.231   5.812  0.1447  0.6093 -0.2200
    62IDT   C40 7792   1.499   1.141   5.924  0.5967  0.3314  1.0304
    72IDQ   C41 7793   1.376   1.351   5.940  0.0407 -0.4352 -0.8715
    62IDT   C42 7794   1.414   1.213   6.004  0.6377  0.4113  1.0021
    72IDQ   C43 7795   1.218   1.355   5.910 -1.1519 -1.3875  1.0340
    72IDQ   C44 7796   1.406   1.466   6.045 -0.4981 -0.0964 -1.1387
    62IDT    S5 7797   1.553   0.988   6.002 -0.2619 -0.1445  0.7052
    62IDT   C45 7798   1.453   1.033   6.147 -0.5334 -0.2140  0.5397
    62IDT   C46 7799   1.388   1.153   6.131 -0.0011  0.1030  0.7241
    82BTZ   C47 7800   1.428   0.949   6.262  0.0362  0.4469 -0.1830
    82BTZ   C48 7801   1.461   0.994   6.387  0.1975  0.3522 -0.1915
    82BTZ   C49 7802   1.450   0.909   6.504  0.2267  0.3044 -0.2236
    82BTZ   C50 7803   1.405   0.780   6.494  0.0946  0.3514 -0.2471
    82BTZ   C51 7804   1.381   0.815   6.247 -0.1063  0.4992 -0.2065
    82BTZ   C52 7805   1.369   0.729   6.365 -0.0767  0.4506 -0.2391
    92RH    C53 7806   1.384   0.688   6.614  0.6485 -0.1185  0.0563
    82BTZ    N4 7807   1.345   0.760   6.131 -0.2692  0.5916 -0.2005
    82BTZ    N5 7808   1.325   0.605   6.344 -0.2156  0.5040 -0.2594
    82BTZ    S6 7809   1.295   0.593   6.168 -0.3940  0.6210 -0.2376
    92RH    C54 7810   1.393   0.701   6.747  0.3530  0.1321  0.0532
    92RH     S7 7811   1.511   0.807   6.839 -0.0900  0.5797  0.1069
    92RH    C55 7812   1.306   0.628   6.842  0.3404  0.0823  0.0036
    92RH     O2 7813   1.216   0.548   6.812  0.5963 -0.1914 -0.0396
    92RH     N6 7814   1.337   0.661   6.976 -0.0050  0.3896  0.0119
    92RH    C56 7815   1.439   0.751   6.999 -0.2705  0.6794  0.0618
    92RH    C57 7816   1.284   0.564   7.081 -0.4055 -0.0157 -0.4063
    92RH    C58 7817   1.157   0.595   7.153  0.1798 -0.7686  0.8185
    92RH     S8 7818   1.496   0.806   7.148 -0.7012  1.0748  0.0813
    72IDQ   C59 7819   1.420   1.600   5.984 -2.3172 -1.4192  0.4461
    72IDQ   C60 7820   1.519   1.677   6.081 -0.7059  0.1155 -0.6434
    72IDQ   C61 7821   1.608   1.746   5.985  0.6406  1.1317  0.3985
    72IDQ   C62 7822   1.562   1.815   5.862  1.2998 -0.0446  0.7664
    72IDQ   C63 7823   1.681   1.892   5.797 -0.4297  1.2736  0.4236
    72IDQ   C64 7824   1.666   1.935   5.656  0.0244  1.3190  0.1467
    72IDQ   C65 7825   1.539   2.023   5.606 -0.2924  1.6832 -0.4926
    72IDQ   C66 7826   1.128   1.337   5.782 -1.0893 -0.1688 -0.6033
    72IDQ   C67 7827   1.122   1.210   5.697  1.6698  0.6274  1.4187
    72IDQ   C68 7828   1.240   1.145   5.624  0.1511 -0.5669  0.5009
    72IDQ   C69 7829   1.260   1.215   5.495  0.9279  0.4054  0.6904
    72IDQ   C70 7830   1.165   1.189   5.378  0.8362 -0.7742 -0.2346
    72IDQ   C71 7831   1.241   1.211   5.245 -1.2905  0.3749  1.2783
    72IDQ   C72 7832   1.171   1.183   5.112  0.4398 -2.0738  0.1140
    11RH     C1 7833   1.843   2.383   5.574  0.0546  0.3647 -0.3400
    11RH     C2 7834   1.808   2.453   5.700  0.1243  0.1646 -0.2096
    11RH     N1 7835   1.759   2.423   5.468 -0.0418  0.4899 -0.2162
    11RH     S1 7836   1.668   2.567   5.671  0.0584  0.1544  0.0673
    11RH     C3 7837   1.661   2.517   5.493 -0.0579  0.4150 -0.0029
    11RH     C4 7838   1.743   2.353   5.329  0.8854  0.6532 -0.4727
    11RH     S2 7839   1.549   2.581   5.386 -0.1650  0.5325  0.1786
    11RH     O1 7840   1.934   2.299   5.560  0.0763  0.4191 -0.5341
    11RH     C5 7841   1.873   2.433   5.815  0.2202  0.0178 -0.2883
    21BTZ    C6 7842   1.860   2.480   5.963  0.1523 -0.1379 -0.2736
    21BTZ    C7 7843   1.762   2.565   6.004  0.2404  0.0265 -0.4003
    21BTZ    C8 7844   1.942   2.416   6.062  0.0507 -0.1158 -0.1752
    21BTZ    C9 7845   1.738   2.592   6.144  0.2334  0.2193 -0.4377
    21BTZ   C10 7846   1.813   2.533   6.242  0.1381  0.2478 -0.3480
    21BTZ   C11 7847   1.917   2.443   6.204  0.0435  0.0803 -0.2134
    21BTZ    N2 7848   2.041   2.331   6.034 -0.0408 -0.2643 -0.0486
    21BTZ    N3 7849   1.997   2.380   6.291 -0.0536  0.0893 -0.1173
    21BTZ    S3 7850   2.109   2.281   6.192 -0.1422 -0.1577  0.0293
    31IDT   C12 7851   1.795   2.561   6.392 -0.2276 -0.6792  0.0845
    31IDT   C13 7852   1.876   2.550   6.503 -0.0575  0.6166  0.1137
    31IDT   C14 7853   1.811   2.592   6.623  0.0051  1.6935 -0.2196
    31IDT   C15 7854   1.682   2.636   6.605 -0.1163  1.2271 -0.5042
    31IDT    S4 7855   1.631   2.627   6.433 -0.3215 -0.6289 -0.3713
    4IDB    C16 7856   1.624   2.678   6.724  0.0511 -0.5848 -0.0911
    4IDB    C17 7857   1.729   2.694   6.820 -0.0773 -1.2311  0.1624
    51IDQ   C18 7858   1.853   2.628   6.767  0.4685 -0.3559 -0.0156
    4IDB    C19 7859   1.708   2.765   6.937  0.0713 -1.1178  0.1204
    51IDQ   C20 7860   1.983   2.724   6.779  0.3947 -0.0417  0.1351
    51IDQ   C21 7861   1.909   2.503   6.857 -0.2222 -0.7427  0.9297
    51IDQ   C22 7862   1.889   2.498   7.008 -0.1831  0.9782 -0.5307
    51IDQ   C23 7863   2.094   2.739   6.698 -0.0253 -0.7228  1.0132
    51IDQ   C24 7864   1.920   2.362   7.070 -0.2838  0.2025 -0.2117
    51IDQ   C25 7865   1.928   2.352   7.226 -0.1148 -0.6640  0.0330
    51IDQ   C26 7866   1.924   2.207   7.271 -0.2490 -0.2372 -1.0437
    51IDQ   C27 7867   2.054   2.123   7.273  0.2916 -0.4256  0.1255
    51IDQ   C28 7868   2.018   1.970   7.235 -0.5383 -1.5588  1.7252
    51IDQ   C29 7869   2.012   1.955   7.083  0.1998  1.5340 -0.9109
    51IDQ   C30 7870   2.070   2.806   6.552 -0.4022  0.6577 -1.3549
    51IDQ   C31 7871   2.186   2.903   6.529 -0.1452 -0.4020  0.5089
    51IDQ   C32 7872   2.143   3.035   6.461  0.6506  0.4021 -0.3182
    51IDQ   C33 7873   2.234   3.115   6.362 -0.6551  1.3731 -0.2164
    51IDQ   C34 7874   2.384   3.155   6.393  1.1728 -0.2758  0.5859
    51IDQ   C35 7875   2.460   3.127   6.522  0.8308  0.1888 -0.7617
    4IDB    C36 7876   1.497   2.734   6.746  0.3306  0.1830 -0.3896
    4IDB    C37 7877   1.478   2.806   6.866  0.4792  0.2874 -0.4282
    11RH    C38 7878   1.793   2.449   5.223  0.6118  0.0062 -0.0958
    4IDB    C39 7879   1.581   2.821   6.959  0.3508 -0.3498 -0.1780
    62IDT   C40 7880   1.525   2.895   7.080 -0.2099 -0.1218  0.3292
    72IDQ   C41 7881   1.347   2.887   6.909 -1.7639 -0.6459 -1.3946
    62IDT   C42 7882   1.409   2.955   7.037 -0.7459 -0.7728  0.8327
    72IDQ   C43 7883   1.222   2.797   6.941 -0.7531 -1.4212 -0.9666
    72IDQ   C44 7884   1.328   3.005   6.803 -0.3933  1.4078  1.5810
    62IDT    S5 7885   1.560   2.932   7.253  0.4156  0.1997  0.1334
    62IDT   C45 7886   1.409   3.033   7.257 -0.1060 -0.6018  0.7739
    62IDT   C46 7887   1.343   3.033   7.137 -0.6878 -1.0449  1.0848
    82BTZ   C47 7888   1.365   3.099   7.382 -0.7542  0.2154 -0.1127
    82BTZ   C48 7889   1.231   3.126   7.392 -0.6897  0.5352 -0.1112
    82BTZ   C49 7890   1.179   3.215   7.493 -0.4734  0.6895 -0.1343
    82BTZ   C50 7891   1.261   3.276   7.584 -0.3219  0.5235 -0.1590
    82BTZ   C51 7892   1.455   3.160   7.475 -0.6015  0.0312 -0.1380
    82BTZ   C52 7893   1.402   3.250   7.578 -0.3816  0.1880 -0.1616
    92RH    C53 7894   1.214   3.365   7.687 -0.1627  0.5973 -0.0216
    82BTZ    N4 7895   1.587   3.142   7.475 -0.6451 -0.2818 -0.1420
    82BTZ    N5 7896   1.492   3.304   7.661 -0.2485  0.0011 -0.1845
    82BTZ    S6 7897   1.652   3.240   7.610 -0.4017 -0.3916 -0.1767
    92RH    C54 7898   1.105   3.440   7.711 -0.1417  0.6140  0.0218
    92RH     S7 7899   0.938   3.416   7.639 -0.1699  0.6500  0.0758
    92RH    C55 7900   1.105   3.557   7.802 -0.0907  0.6057  0.0330
    92RH     O2 7901   1.203   3.599   7.866 -0.0619  0.5826  0.0041
    92RH     N6 7902   0.977   3.616   7.808 -0.0781  0.6272  0.0816
    92RH    C56 7903   0.875   3.562   7.733 -0.1128  0.6521  0.1106
    92RH    C57 7904   0.941   3.738   7.887 -0.3045  0.8615 -0.2809
    92RH    C58 7905   1.017   3.862   7.848  0.1388  0.6168  0.2894
    92RH     S8 7906   0.715   3.614   7.723 -0.1072  0.6812  0.1692
    72IDQ   C59 7907   1.196   3.064   6.752 -0.5456  0.6540 -1.0036
    72IDQ   C60 7908   1.214   3.198   6.665  0.6255  0.2596 -0.2603
    72IDQ   C61 7909   1.336   3.231   6.568  1.2967 -0.6620 -0.7302
    72IDQ   C62 7910   1.317   3.130   6.457  0.0307  0.6156  0.1347
    72IDQ   C63 7911   1.457   3.105   6.386 -1.7170 -0.6121 -0.8314
    72IDQ   C64 7912   1.558   3.011   6.454 -0.1848 -0.8848 -0.8518
    72IDQ   C65 7913   1.642   2.985   6.320 -0.4823 -0.2320  0.7913
    72IDQ   C66 7914   1.201   2.736   7.075 -0.6770 -0.6614 -0.8224
    72IDQ   C67 7915   1.056   2.664   7.100 -0.9523 -0.5381  0.2378
    72IDQ   C68 7916   1.065   2.535   7.179  0.0420 -1.1156 -0.0575
    72IDQ   C69 7917   1.180   2.512   7.292 -0.5278  0.2901 -0.3361
    72IDQ   C70 7918   1.264   2.394   7.234 -0.5714 -0.1371 -0.8060
    72IDQ   C71 7919   1.239   2.259   7.289 -0.0331  0.7468 -1.2679
    72IDQ   C72 7920   1.305   2.151   7.202  0.6779 -0.6630 -1.4319
    11RH     C1 7921   2.660   4.236   6.529 -0.4112  0.3538  0.2673
    11RH     C2 7922   2.689   4.366   6.594 -0.0719  0.3364  0.1526
    11RH     N1 7923   2.779   4.166   6.497 -0.5905  0.0527  0.2540
    11RH     S1 7924   2.870   4.388   6.610 -0.0104 -0.0746  0.0352
    11RH     C3 7925   2.899   4.225   6.530 -0.4362 -0.2038  0.1428
    11RH     C4 7926   2.752   4.039   6.427  0.7773 -0.7643  0.6226
    11RH     S2 7927   3.054   4.163   6.504 -0.5937 -0.5846  0.1035
    11RH     O1 7928   2.547   4.192   6.503 -0.5295  0.5982  0.3638
    11RH     C5 7929   2.594   4.452   6.633  0.1492  0.5881  0.1408
    21BTZ    C6 7930   2.600   4.595   6.697 -0.2202  0.0484  0.3409
    21BTZ    C7 7931   2.720   4.659   6.715 -0.2412  0.0775  0.3772
    21BTZ    C8 7932   2.479   4.670   6.710 -0.2381  0.0529  0.1528
    21BTZ    C9 7933   2.726   4.800   6.746 -0.2805  0.1121  0.2320
    21BTZ   C10 7934   2.613   4.876   6.760 -0.2988  0.1177  0.0507
    21BTZ   C11 7935   2.485   4.813   6.742 -0.2781  0.0880  0.0052
    21BTZ    N2 7936   2.356   4.619   6.695 -0.2207  0.0269  0.0999
    21BTZ    N3 7937   2.368   4.876   6.753 -0.2929  0.0904 -0.1664
    21BTZ    S3 7938   2.242   4.753   6.722 -0.2555  0.0464 -0.1457
    31IDT   C12 7939   2.629   5.014   6.797  0.3181  0.1024 -1.2967
    31IDT   C13 7940   2.748   5.079   6.814  0.4171  0.1085 -1.9717
    31IDT   C14 7941   2.732   5.216   6.852  0.6192 -0.0534 -1.2856
    31IDT   C15 7942   2.600   5.256   6.863  0.6752 -0.1831 -0.0855
    31IDT    S4 7943   2.486   5.122   6.827  0.4749 -0.1101  0.2717
    4IDB    C16 7944   2.588   5.387   6.922  0.0160 -0.4177  0.4039
    4IDB    C17 7945   2.720   5.440   6.934  0.0215 -0.4268  0.3822
    51IDQ   C18 7946   2.816   5.327   6.901 -1.2209  0.4824 -0.6672
    4IDB    C19 7947   2.742   5.569   6.979  0.0231 -0.3373  0.1277
    51IDQ   C20 7948   2.923   5.334   6.791  0.5659  1.0090 -0.0102
    51IDQ   C21 7949   2.897   5.284   7.027 -0.2371 -0.7218 -0.6582
    51IDQ   C22 7950   2.982   5.387   7.109  0.3099 -0.4830  0.2169
    51IDQ   C23 7951   2.940   5.460   6.706 -0.8825  0.3719 -0.4804
    51IDQ   C24 7952   3.134   5.421   7.094 -0.4363  0.3227  0.3494
    51IDQ   C25 7953   3.231   5.300   7.105  0.1447 -0.0793 -1.0128
    51IDQ   C26 7954   3.348   5.355   7.029 -0.5237  0.1548 -1.0759
    51IDQ   C27 7955   3.482   5.315   7.088 -0.5289  0.0557 -1.4140
    51IDQ   C28 7956   3.525   5.362   7.233 -0.4550  0.6051  0.2846
    51IDQ   C29 7957   3.677   5.364   7.270 -0.0907 -1.8541 -0.4555
    51IDQ   C30 7958   3.066   5.475   6.618 -0.5010 -0.5714  0.1819
    51IDQ   C31 7959   3.063   5.431   6.473 -0.1817  0.5227 -0.3596
    51IDQ   C32 7960   3.035   5.283   6.462  0.7872 -0.3039 -0.5032
    51IDQ   C33 7961   3.145   5.166   6.486 -1.0398 -1.0529 -0.2252
    51IDQ   C34 7962   3.214   5.126   6.627 -0.2452 -0.5249  1.0502
    51IDQ   C35 7963   3.355   5.173   6.634  0.7712  0.0420 -1.1700
    4IDB    C36 7964   2.476   5.465   6.957  0.0126 -0.3185  0.1700
    4IDB    C37 7965   2.500   5.597   7.003  0.0147 -0.2282 -0.0885
    11RH    C38 7966   2.754   3.926   6.521  0.8088  0.5735 -0.5555
    4IDB    C39 7967   2.630   5.647   7.013  0.0197 -0.2383 -0.1061
    62IDT   C40 7968   2.630   5.761   7.100 -0.6011 -0.1583  0.5729
    72IDQ   C41 7969   2.393   5.700   7.040  0.0546 -0.6759  0.4501
    62IDT   C42 7970   2.500   5.809   7.095 -0.4827  0.1822  0.7262
    72IDQ   C43 7971   2.287   5.668   7.158 -0.5415  0.4233  0.5572
    72IDQ   C44 7972   2.324   5.789   6.917 -0.5248 -0.2662  1.1720
    62IDT    S5 7973   2.737   5.868   7.196 -0.0705 -0.1237 -0.0522
    62IDT   C45 7974   2.594   5.977   7.226  0.3016  0.3737 -0.0743
    62IDT   C46 7975   2.480   5.931   7.166  0.0275  0.4838  0.3606
    82BTZ   C47 7976   2.602   6.104   7.303  0.4272  0.0359 -0.1682
    82BTZ   C48 7977   2.726   6.163   7.295  0.4345  0.0701  0.1741
    82BTZ   C49 7978   2.767   6.265   7.387  0.2185 -0.0458  0.4004
    82BTZ   C50 7979   2.685   6.309   7.488 -0.0042 -0.1963  0.2843
    82BTZ   C51 7980   2.512   6.146   7.407  0.1981 -0.1202 -0.3021
    82BTZ   C52 7981   2.554   6.250   7.501 -0.0213 -0.2379 -0.0721
    92RH    C53 7982   2.726   6.402   7.593 -0.2485  0.0518  0.0118
    82BTZ    N4 7983   2.390   6.096   7.425  0.1678 -0.1678 -0.6305
    82BTZ    N5 7984   2.465   6.285   7.595 -0.2280 -0.3803 -0.2155
    82BTZ    S6 7985   2.321   6.182   7.566 -0.1492 -0.3696 -0.6600
    92RH    C54 7986   2.837   6.469   7.625 -0.2526  0.0117  0.1092
    92RH     S7 7987   2.999   6.462   7.538 -0.1954 -0.0025  0.2161
    92RH    C55 7988   2.846   6.562   7.740 -0.3061 -0.0291  0.1462
    92RH     O2 7989   2.754   6.588   7.819 -0.3526 -0.0312  0.0928
    92RH     N6 7990   2.975   6.618   7.751 -0.2983 -0.0671  0.2523
    92RH    C56 7991   3.071   6.582   7.658 -0.2449 -0.0615  0.3046
    92RH    C57 7992   3.003   6.737   7.828 -0.6291  0.6125  0.2925
    92RH    C58 7993   3.083   6.734   7.952 -0.3371  0.9567 -0.9683
    92RH     S8 7994   3.231   6.634   7.648 -0.2242 -0.1006  0.4303
    72IDQ   C59 7995   2.205   5.876   6.944  1.1443 -0.0104  1.4253
    72IDQ   C60 7996   2.195   5.957   7.063  0.3046  0.2816 -0.5544
    72IDQ   C61 7997   2.061   6.011   7.096  1.4240  0.5271  0.5357
    72IDQ   C62 7998   2.089   6.140   7.157 -0.0870  0.0597  0.3122
    72IDQ   C63 7999   1.966   6.192   7.223  0.9695  0.5703 -1.5403
    72IDQ   C64 8000   1.940   6.339   7.248  0.5024  1.6749  0.0875
    72IDQ   C65 8001   1.925   6.386   7.403  0.5667 -0.1216  0.2805
    72IDQ   C66 8002   2.279   5.517   7.224 -1.3911 -0.4507 -1.0190
    72IDQ   C67 8003   2.218   5.515   7.372  0.3978  0.7095  0.0577
    72IDQ   C68 8004   2.069   5.559   7.348  0.0618  0.6710 -2.0473
    72IDQ   C69 8005   1.999   5.574   7.480 -0.7847 -0.0037 -0.7430
    72IDQ   C70 8006   1.939   5.706   7.515  1.0807  0.6860  0.9774
    72IDQ   C71 8007   1.883   5.788   7.398 -0.3883  2.0368  0.8567
    72IDQ   C72 8008   1.843   5.914   7.472  0.7783 -0.3836 -0.7245
    11RH     C1 8009   3.763   5.865   6.678 -0.2830 -0.1235 -0.1717
    11RH     C2 8010   3.891   5.789   6.679 -0.2478 -0.0639  0.2227
    11RH     N1 8011   3.652   5.779   6.694 -0.2631 -0.1289 -0.0576
    11RH     S1 8012   3.856   5.610   6.700 -0.1909 -0.0188  0.7184
    11RH     C3 8013   3.675   5.644   6.707 -0.2161 -0.0808  0.3805
    11RH     C4 8014   3.534   5.839   6.741 -0.6474  0.6958 -0.2344
    11RH     S2 8015   3.561   5.521   6.726 -0.1841 -0.0758  0.6027
    11RH     O1 8016   3.752   5.988   6.666 -0.3246 -0.1640 -0.5577
    11RH     C5 8017   4.011   5.847   6.666 -0.2579 -0.0475  0.2057
    21BTZ    C6 8018   4.155   5.795   6.677 -0.3292  0.3606  0.0361
    21BTZ    C7 8019   4.185   5.672   6.728 -0.4482  0.2921 -0.0575
    21BTZ    C8 8020   4.259   5.872   6.615 -0.2480  0.3214  0.1228
    21BTZ    C9 8021   4.319   5.618   6.721 -0.4935  0.1817 -0.0710
    21BTZ   C10 8022   4.421   5.688   6.663 -0.4193  0.1403  0.0096
    21BTZ   C11 8023   4.394   5.817   6.608 -0.2940  0.2093  0.1092
    21BTZ    N2 8024   4.241   5.993   6.562 -0.1304  0.3803  0.2182
    21BTZ    N3 8025   4.486   5.894   6.548 -0.2134  0.1781  0.1934
    21BTZ    S3 8026   4.401   6.043   6.498 -0.0721  0.2936  0.2961
    31IDT   C12 8027   4.556   5.619   6.659 -0.1692  0.2002 -0.7114
    31IDT   C13 8028   4.676   5.676   6.629 -0.0236 -0.3171 -1.1246
    31IDT   C14 8029   4.788   5.591   6.656 -0.2484 -0.4766 -0.7074
    31IDT   C15 8030   4.753   5.468   6.708 -0.5665 -0.0831  0.0251
    31IDT    S4 8031   4.575   5.451   6.726 -0.6057  0.5257  0.2449
    4IDB    C16 8032   4.881   5.394   6.743 -0.1680 -0.1961 -0.6572
    4IDB    C17 8033   4.988   5.463   6.679 -0.3006 -0.4590 -1.1649
    51IDQ   C18 8034   4.941   5.605   6.629  1.6888  0.9912  0.3289
    4IDB    C19 8035   5.115   5.407   6.673 -0.0936 -0.0880 -0.3911
    51IDQ   C20 8036   5.010   5.710   6.726 -0.2100  0.7426 -0.5562
    51IDQ   C21 8037   4.954   5.650   6.480 -0.0492 -0.2243 -0.0512
    51IDQ   C22 8038   5.013   5.551   6.373  0.1911 -1.0884 -0.2608
    51IDQ   C23 8039   4.938   5.787   6.831 -1.5560 -0.6045  1.8832
    51IDQ   C24 8040   4.950   5.584   6.240 -0.2034  0.7132 -0.6171
    51IDQ   C25 8041   5.038   5.576   6.111  0.4978 -0.4589 -0.9476
    51IDQ   C26 8042   4.953   5.569   5.982 -0.6541 -0.4819  0.0846
    51IDQ   C27 8043   4.895   5.439   5.937 -0.7122 -0.8550 -0.2053
    51IDQ   C28 8044   4.764   5.435   5.885  0.4089 -0.8679 -0.1970
    51IDQ   C29 8045   4.675   5.350   5.935  0.8255 -0.2675  0.9198
    51IDQ   C30 8046   4.984   5.784   6.962  0.0819 -0.5171  0.0698
    51IDQ   C31 8047   4.922   5.894   7.035  0.4223  0.0806 -0.2365
    51IDQ   C32 8048   4.986   5.914   7.174  1.3967 -0.3255  0.3569
    51IDQ   C33 8049   4.916   5.865   7.306 -0.0274  0.2173 -0.3028
    51IDQ   C34 8050   5.011   5.906   7.421  1.1156  0.7776 -0.2085
    51IDQ   C35 8051   4.962   5.984   7.530  1.0520 -0.1316  0.5455
    4IDB    C36 8052   4.901   5.268   6.802  0.1745  0.4427  0.6351
    4IDB    C37 8053   5.031   5.212   6.795  0.3822  0.8142  1.4114
    11RH    C38 8054   3.423   5.890   6.649 -1.1721 -0.4601 -1.6742
    4IDB    C39 8055   5.135   5.281   6.731  0.2491  0.5503  0.9017
    62IDT   C40 8056   5.250   5.204   6.753  0.2324 -0.1205  1.8978
    72IDQ   C41 8057   5.071   5.078   6.849 -1.2329 -0.5314 -0.1403
    62IDT   C42 8058   5.227   5.092   6.830  0.8843  0.1719  2.5218
    72IDQ   C43 8059   5.023   4.950   6.792 -1.2094 -0.4818  0.6707
    72IDQ   C44 8060   5.063   5.065   7.013 -1.0230 -0.4663  0.2045
    62IDT    S5 8061   5.421   5.217   6.701 -0.2575 -0.4764  0.1263
    62IDT   C45 8062   5.455   5.062   6.791  0.4807 -0.1974  0.3328
    62IDT   C46 8063   5.344   5.012   6.852  1.0252  0.1287  1.6377
    82BTZ   C47 8064   5.586   4.998   6.784 -0.4127 -0.2742 -0.5920
    82BTZ   C48 8065   5.654   5.020   6.667 -0.5424 -0.5131 -0.7153
    82BTZ   C49 8066   5.764   4.937   6.626 -0.6044 -0.6130 -0.6783
    82BTZ   C50 8067   5.805   4.830   6.702 -0.5368 -0.4734 -0.5186
    82BTZ   C51 8068   5.625   4.887   6.866 -0.3378 -0.1206 -0.4222
    82BTZ   C52 8069   5.737   4.802   6.825 -0.4010 -0.2222 -0.3850
    92RH    C53 8070   5.927   4.756   6.688  0.3681  0.3797  0.2501
    82BTZ    N4 8071   5.567   4.855   6.982 -0.2112  0.1149 -0.2916
    82BTZ    N5 8072   5.768   4.702   6.907 -0.3252 -0.0682 -0.2239
    82BTZ    S6 8073   5.654   4.712   7.044 -0.1663  0.2189 -0.1115
    92RH    C54 8074   6.029   4.771   6.602  0.2520 -0.0534  0.0319
    92RH     S7 8075   6.043   4.898   6.470  0.1316 -0.6384 -0.5481
    92RH    C55 8076   6.149   4.685   6.602  0.2022 -0.1252  0.2360
    92RH     O2 8077   6.170   4.590   6.679  0.2604  0.1998  0.6247
    92RH     N6 8078   6.240   4.723   6.501  0.0770 -0.6180 -0.0694
    92RH    C56 8079   6.207   4.831   6.421  0.0210 -0.9501 -0.4930
    92RH    C57 8080   6.378   4.695   6.501  0.2813 -0.1982 -1.2466
    92RH    C58 8081   6.394   4.565   6.436 -0.4999 -0.4229 -1.1919
    92RH     S8 8082   6.297   4.896   6.294 -0.1259 -1.5540 -0.9170
    72IDQ   C59 8083   4.924   5.068   7.102 -1.6509 -0.6918 -1.3188
    72IDQ   C60 8084   4.817   4.956   7.049 -0.0996  1.8590 -0.6166
    72IDQ   C61 8085   4.703   4.908   7.150 -0.8708  1.9723 -0.6268
    72IDQ   C62 8086   4.552   4.913   7.129 -1.9589  0.3642  0.8033
    72IDQ   C63 8087   4.464   4.775   7.107 -0.2944  0.2621 -0.6630
    72IDQ   C64 8088   4.313   4.779   7.110  0.0592 -0.4510 -0.2420
    72IDQ   C65 8089   4.225   4.880   7.034  0.8769  0.7568  0.5033
    72IDQ   C66 8090   5.058   4.801   6.836  1.0026 -0.5992 -0.7463
    72IDQ   C67 8091   5.043   4.687   6.736 -0.6762  0.2924 -0.1149
    72IDQ   C68 8092   4.994   4.550   6.795  1.0650  0.3242 -0.5825
    72IDQ   C69 8093   5.085   4.427   6.742 -0.5744 -0.8181 -1.9570
    72IDQ   C70 8094   5.123   4.425   6.598 -1.5469  0.6405 -0.1785
    72IDQ   C71 8095   5.236   4.331   6.556 -0.4941  1.2777 -0.1821
    72IDQ   C72 8096   5.253   4.307   6.404  0.0235  0.3453 -0.8631
    11RH     C1 8097   6.874   6.334   1.596 -0.2279  0.2019  0.2085
    11RH     C2 8098   6.906   6.294   1.736 -0.1829 -0.0215  0.1349
    11RH     N1 8099   6.922   6.463   1.567  0.2657  0.0211  0.2199
    11RH     S1 8100   6.998   6.429   1.819  0.5044 -0.4543  0.0853
    11RH     C3 8101   6.989   6.532   1.666  0.7002 -0.3200  0.1643
    11RH     C4 8102   6.893   6.514   1.427 -0.3289 -0.6436 -0.5516
    11RH     S2 8103   7.057   6.686   1.657  1.3278 -0.5910  0.1639
    11RH     O1 8104   6.812   6.264   1.514 -0.6404  0.5095  0.2555
    11RH     C5 8105   6.871   6.176   1.789 -0.5927  0.0867  0.1103
    21BTZ    C6 8106   6.905   6.099   1.915 -0.3571  0.1240  0.4138
    21BTZ    C7 8107   7.015   6.136   1.987 -0.4289  0.0062  0.5838
    21BTZ    C8 8108   6.831   5.983   1.956 -0.3459  0.0038  0.0977
    21BTZ    C9 8109   7.058   6.061   2.102 -0.4930 -0.2337  0.4530
    21BTZ   C10 8110   6.991   5.950   2.145 -0.4855 -0.3556  0.1523
    21BTZ   C11 8111   6.875   5.907   2.073 -0.4113 -0.2398 -0.0353
    21BTZ    N2 8112   6.722   5.938   1.893 -0.2787  0.0999 -0.0910
    21BTZ    N3 8113   6.801   5.801   2.105 -0.3963 -0.3400 -0.3310
    21BTZ    S3 8114   6.670   5.793   1.984 -0.2964 -0.1220 -0.4544
    31IDT   C12 8115   7.061   5.872   2.261 -0.1951  0.1696  0.6759
    31IDT   C13 8116   6.999   5.823   2.373 -0.2102  0.4287  0.7813
    31IDT   C14 8117   7.092   5.778   2.472 -0.2249  0.5634  0.8575
    31IDT   C15 8118   7.224   5.792   2.436 -0.2212  0.4084  0.8107
    31IDT    S4 8119   7.242   5.864   2.273 -0.1986  0.0767  0.6652
    4IDB    C16 8120   7.309   5.745   2.533 -0.2895 -0.3045 -0.2138
    4IDB    C17 8121   7.239   5.683   2.641 -0.0016 -0.1404  0.0689
    51IDQ   C18 8122   7.086   5.692   2.593  0.4415  0.0372 -0.7333
    4IDB    C19 8123   7.308   5.633   2.751  0.3005 -0.0537 -0.0780
    51IDQ   C20 8124   7.049   5.548   2.564  1.1224  0.4374 -0.4257
    51IDQ   C21 8125   7.005   5.761   2.705 -1.3291 -0.7896 -0.5801
    51IDQ   C22 8126   7.005   5.918   2.719  1.4575 -0.0689 -1.0367
    51IDQ   C23 8127   7.042   5.482   2.423  0.7133  1.0017 -0.1904
    51IDQ   C24 8128   6.892   5.991   2.648 -1.1368  2.6867 -0.4046
    51IDQ   C25 8129   6.892   6.144   2.648  0.3040  0.1834 -0.1818
    51IDQ   C26 8130   6.876   6.248   2.760 -0.3435  1.5204 -1.5247
    51IDQ   C27 8131   6.970   6.265   2.866  0.1961  0.1089  0.4897
    51IDQ   C28 8132   7.000   6.400   2.941  2.2033  1.0325 -0.4981
    51IDQ   C29 8133   7.057   6.522   2.874  0.0471 -0.5210 -0.2209
    51IDQ   C30 8134   6.917   5.397   2.417 -0.4526  0.0983 -0.2140
    51IDQ   C31 8135   6.862   5.423   2.289  0.0478  0.3888  0.1973
    51IDQ   C32 8136   6.727   5.350   2.268  1.2642  0.0616  0.2051
    51IDQ   C33 8137   6.598   5.438   2.317  0.3874  0.4140 -0.1867
    51IDQ   C34 8138   6.574   5.564   2.239 -0.3261 -0.8156 -0.5902
    51IDQ   C35 8139   6.477   5.672   2.293 -1.3715 -0.1792 -0.3311
    4IDB    C36 8140   7.449   5.757   2.534 -0.2765 -0.3829 -0.6479
    4IDB    C37 8141   7.517   5.705   2.648  0.0344 -0.2923 -0.7925
    11RH    C38 8142   7.007   6.457   1.328  0.3619 -0.2278 -0.7640
    4IDB    C39 8143   7.447   5.644   2.752  0.3135 -0.1322 -0.5122
    62IDT   C40 8144   7.547   5.591   2.836  0.7630 -0.2965 -0.9327
    72IDQ   C41 8145   7.657   5.713   2.653  0.0334 -0.6748 -1.3212
    62IDT   C42 8146   7.671   5.620   2.783  1.0168 -0.9224 -0.6984
    72IDQ   C43 8147   7.721   5.856   2.657 -0.1719  0.9273 -0.6490
    72IDQ   C44 8148   7.714   5.649   2.521  0.3050  0.2624  1.0743
    62IDT    S5 8149   7.561   5.506   2.994  0.0241  0.6641 -0.3442
    62IDT   C45 8150   7.742   5.516   2.979  0.1011  0.1437  0.2147
    62IDT   C46 8151   7.781   5.578   2.864  0.6431 -0.6740 -0.0496
    82BTZ   C47 8152   7.830   5.454   3.078  0.0062  1.0145 -0.0421
    82BTZ   C48 8153   7.760   5.414   3.189 -0.0500  0.7379 -0.1762
    82BTZ   C49 8154   7.826   5.379   3.312 -0.1004  0.2489 -0.2855
    82BTZ   C50 8155   7.963   5.384   3.324 -0.0946  0.0373 -0.2607
    82BTZ   C51 8156   7.973   5.460   3.086  0.0145  0.8092 -0.0110
    82BTZ   C52 8157   8.040   5.425   3.211 -0.0367  0.3121 -0.1222
    92RH    C53 8158   8.030   5.326   3.444  0.0520  0.1678  0.2784
    82BTZ    N4 8159   8.052   5.498   2.985  0.0671  1.0424  0.1153
    82BTZ    N5 8160   8.174   5.434   3.210 -0.0254  0.1457 -0.0850
    82BTZ    S6 8161   8.220   5.489   3.046  0.0529  0.6275  0.0972
    92RH    C54 8162   7.988   5.262   3.553  0.0176  0.1588  0.2604
    92RH     S7 8163   7.831   5.171   3.575  0.0607  0.0618  0.1671
    92RH    C55 8164   8.067   5.255   3.679 -0.0633  0.2286  0.3152
    92RH     O2 8165   8.179   5.307   3.697 -0.1082  0.3021  0.3830
    92RH     N6 8166   8.000   5.182   3.779 -0.0845  0.2014  0.2807
    92RH    C56 8167   7.876   5.128   3.748 -0.0303  0.1185  0.2050
    92RH    C57 8168   8.076   5.192   3.922  0.7036 -1.2218  1.5928
    92RH    C58 8169   8.009   5.313   3.982 -0.0422 -0.2360 -0.5471
    92RH     S8 8170   7.776   5.037   3.848 -0.0407  0.0706  0.1508
    72IDQ   C59 8171   7.859   5.579   2.530  0.3231 -1.1794 -1.2675
    72IDQ   C60 8172   7.946   5.568   2.409 -0.6661 -0.7379 -0.0739
    72IDQ   C61 8173   7.957   5.427   2.324  0.8395  0.1324 -0.7044
    72IDQ   C62 8174   7.819   5.344   2.317 -0.4434 -0.2832 -1.5559
    72IDQ   C63 8175   7.834   5.206   2.252 -0.3688 -0.2279 -0.4587
    72IDQ   C64 8176   7.928   5.130   2.324  0.1405 -0.2505 -0.8337
    72IDQ   C65 8177   8.042   5.080   2.242 -0.1609 -1.5432  0.3015
    72IDQ   C66 8178   7.783   5.935   2.551  0.0637  0.0868 -0.5883
    72IDQ   C67 8179   7.664   6.009   2.481 -0.8770  1.6556  0.4233
    72IDQ   C68 8180   7.692   6.108   2.356 -0.9863 -0.0059  0.6773
    72IDQ   C69 8181   7.590   6.210   2.307 -0.8625  0.3708  0.0388
    72IDQ   C70 8182   7.467   6.229   2.397  0.2946 -0.0378  0.6821
    72IDQ   C71 8183   7.345   6.222   2.311  0.1515 -0.3060  0.4523
    72IDQ   C72 8184   7.265   6.348   2.352 -1.5013  0.4453  0.5593
    11RH     C1 8185   6.079   2.320   0.768 -0.4194  0.0354  0.1256
    11RH     C2 8186   6.124   2.303   0.908 -0.0260 -0.0260 -0.0072
    11RH     N1 8187   6.053   2.196   0.707 -0.3141  0.0484  0.0543
    11RH     S1 8188   6.130   2.124   0.950  0.4568 -0.0622 -0.2171
    11RH     C3 8189   6.072   2.081   0.781  0.1154  0.0051 -0.1193
    11RH     C4 8190   6.049   2.184   0.554 -0.5505  0.2040  0.0111
    11RH     S2 8191   6.049   1.921   0.732  0.3259  0.0095 -0.2351
    11RH     O1 8192   6.065   2.429   0.710 -0.7973  0.0713  0.2806
    11RH     C5 8193   6.155   2.405   0.989 -0.0359 -0.0495  0.0265
    21BTZ    C6 8194   6.201   2.400   1.125  0.4937 -0.3543  0.3501
    21BTZ    C7 8195   6.236   2.287   1.193  0.2975 -0.2947  0.5546
    21BTZ    C8 8196   6.186   2.523   1.198  0.3028 -0.2847  0.1974
    21BTZ    C9 8197   6.260   2.288   1.335 -0.0937 -0.1644  0.6191
    21BTZ   C10 8198   6.247   2.402   1.409 -0.2882 -0.0940  0.4789
    21BTZ   C11 8199   6.210   2.524   1.343 -0.0949 -0.1523  0.2630
    21BTZ    N2 8200   6.152   2.640   1.143  0.4632 -0.3324 -0.0062
    21BTZ    N3 8201   6.195   2.641   1.404 -0.2542 -0.0936  0.1119
    21BTZ    S3 8202   6.148   2.758   1.277  0.1059 -0.2074 -0.1253
    31IDT   C12 8203   6.291   2.391   1.553  0.2807  0.8851 -0.6323
    31IDT   C13 8204   6.241   2.463   1.658  0.9959  1.4925 -0.6968
    31IDT   C14 8205   6.290   2.418   1.785  0.8607  1.3747 -0.6854
    31IDT   C15 8206   6.378   2.313   1.777  0.0442  0.6788 -0.6122
    31IDT    S4 8207   6.406   2.261   1.607 -0.6238  0.1131 -0.5516
    4IDB    C16 8208   6.415   2.270   1.911  0.0978  0.6822  0.7669
    4IDB    C17 8209   6.336   2.340   2.007  0.1137  0.5567  0.8719
    51IDQ   C18 8210   6.254   2.452   1.934  0.2282 -1.1798  0.1298
    4IDB    C19 8211   6.341   2.307   2.142 -0.1976  0.0775  0.7695
    51IDQ   C20 8212   6.105   2.443   1.972  0.0008  0.4938 -0.9301
    51IDQ   C21 8213   6.308   2.604   1.990 -0.3948 -0.6257 -1.2103
    51IDQ   C22 8214   6.443   2.631   2.046 -1.5179  0.1511 -0.5628
    51IDQ   C23 8215   6.004   2.379   1.878  0.8325  0.0084 -0.3599
    51IDQ   C24 8216   6.569   2.624   1.953 -0.5987 -0.7094 -0.8945
    51IDQ   C25 8217   6.647   2.488   2.003  1.5055  0.1494  0.3201
    51IDQ   C26 8218   6.770   2.437   1.938  0.6621  0.4583  2.2261
    51IDQ   C27 8219   6.847   2.518   1.834  0.7341  0.5447 -0.2712
    51IDQ   C28 8220   6.988   2.523   1.878  0.5093  0.0768  0.5922
    51IDQ   C29 8221   7.053   2.634   1.797  0.2496 -1.2867  0.7125
    51IDQ   C30 8222   5.874   2.469   1.880 -0.2107 -0.0403  0.1343
    51IDQ   C31 8223   5.882   2.570   1.760 -0.1301  1.0161  0.1466
    51IDQ   C32 8224   5.900   2.526   1.615  0.1369 -0.1335  0.2522
    51IDQ   C33 8225   5.838   2.407   1.556 -0.8610 -0.0288  0.4204
    51IDQ   C34 8226   5.842   2.399   1.387  1.0972 -0.2292 -0.9408
    51IDQ   C35 8227   5.828   2.273   1.320 -0.0859  0.3325 -0.3531
    4IDB    C36 8228   6.502   2.167   1.950 -0.2315  0.3268  0.5577
    4IDB    C37 8229   6.506   2.134   2.089 -0.5467 -0.1612  0.4556
    11RH    C38 8230   6.190   2.192   0.481  0.2460 -0.2437  0.8861
    4IDB    C39 8231   6.427   2.203   2.181 -0.5267 -0.2780  0.5602
    62IDT   C40 8232   6.444   2.131   2.305 -1.6077 -0.4471  0.1530
    72IDQ   C41 8233   6.567   1.995   2.140 -0.1895 -0.6610 -0.4141
    62IDT   C42 8234   6.511   2.012   2.284 -2.2502 -0.7730 -0.0589
    72IDQ   C43 8235   6.726   2.018   2.147  0.0035  0.9573  0.5937
    72IDQ   C44 8236   6.516   1.859   2.075  0.5738  0.8595  0.7188
    62IDT    S5 8237   6.408   2.158   2.479 -0.2121  0.1265  0.3699
    62IDT   C45 8238   6.488   1.999   2.516 -0.5887 -0.1166  0.1523
    62IDT   C46 8239   6.536   1.937   2.404 -1.6749 -0.5866 -0.0594
    82BTZ   C47 8240   6.498   1.942   2.648  0.2759  0.4949  0.1903
    82BTZ   C48 8241   6.623   1.931   2.704  0.2096  0.5198  0.3438
    82BTZ   C49 8242   6.645   1.856   2.825  0.0901  0.4518  0.3239
    82BTZ   C50 8243   6.543   1.792   2.890  0.0377  0.3591  0.1506
    82BTZ   C51 8244   6.388   1.877   2.712  0.2253  0.3986  0.0058
    82BTZ   C52 8245   6.411   1.801   2.835  0.1040  0.3296 -0.0144
    92RH    C53 8246   6.574   1.696   2.990  0.4517 -0.1068 -0.2722
    82BTZ    N4 8247   6.262   1.880   2.667  0.2811  0.3658 -0.1543
    82BTZ    N5 8248   6.303   1.743   2.889  0.0622  0.2412 -0.1907
    82BTZ    S6 8249   6.165   1.784   2.783  0.1789  0.2427 -0.3414
    92RH    C54 8250   6.681   1.626   3.029  0.3297 -0.1621 -0.0337
    92RH     S7 8251   6.856   1.657   2.982  0.4047 -0.5111  0.0125
    92RH    C55 8252   6.674   1.508   3.119  0.1078  0.0597  0.2378
    92RH     O2 8253   6.570   1.462   3.169  0.0103  0.3175  0.2768
    92RH     N6 8254   6.801   1.454   3.144  0.0170 -0.0584  0.4540
    92RH    C56 8255   6.910   1.513   3.084  0.1390 -0.3474  0.3886
    92RH    C57 8256   6.817   1.324   3.217 -0.2822 -0.0031 -0.0921
    92RH    C58 8257   6.767   1.212   3.124 -0.3666 -0.1975  1.0345
    92RH     S8 8258   7.072   1.468   3.096  0.0694 -0.5394  0.6057
    72IDQ   C59 8259   6.415   1.742   2.131  1.4948 -0.6444 -0.5285
    72IDQ   C60 8260   6.278   1.809   2.158 -1.0238  0.3907 -0.9990
    72IDQ   C61 8261   6.201   1.829   2.030 -1.0545  1.9038 -0.2020
    72IDQ   C62 8262   6.074   1.919   2.021 -0.0865  0.8978 -0.5217
    72IDQ   C63 8263   5.997   1.983   2.139  0.1267  0.9742  1.2471
    72IDQ   C64 8264   5.855   2.017   2.101 -0.3749  0.2923  0.7709
    72IDQ   C65 8265   5.816   2.161   2.085  0.3647 -0.9850  0.1380
    72IDQ   C66 8266   6.807   2.104   2.075  0.5119 -0.1433 -0.1402
    72IDQ   C67 8267   6.924   2.030   2.026 -1.1928 -1.3768  1.1066
    72IDQ   C68 8268   7.016   2.111   1.926 -0.2994 -0.8124 -1.3008
    72IDQ   C69 8269   6.973   2.131   1.782  0.3252 -0.1607  0.6099
    72IDQ   C70 8270   7.096   2.138   1.675 -0.4379 -0.5804  0.2133
    72IDQ   C71 8271   7.075   2.096   1.528 -1.5299 -0.2646 -0.2905
    72IDQ   C72 8272   6.985   1.969   1.519 -0.3843 -0.3809 -0.1027
    11RH     C1 8273   0.296   5.960   5.652  0.0283 -0.0079  0.0429
    11RH     C2 8274   0.212   5.838   5.643 -0.0824  0.0813 -0.1354
    11RH     N1 8275   0.233   6.070   5.591  0.2046  0.0976  0.0536
    11RH     S1 8276   0.056   5.877   5.554  0.0526  0.2984 -0.2766
    11RH     C3 8277   0.110   6.052   5.533  0.2487  0.2608 -0.0939
    11RH     C4 8278   0.320   6.190   5.558  0.2666 -0.8398 -1.0730
    11RH     S2 8279   0.015   6.166   5.454  0.4478  0.4113 -0.1156
    11RH     O1 8280   0.407   5.967   5.707 -0.0238 -0.1566  0.1686
    11RH     C5 8281   0.248   5.719   5.694 -0.2543  0.0096 -0.1805
    21BTZ    C6 8282   0.179   5.592   5.694 -0.1985 -0.2776  0.3523
    21BTZ    C7 8283   0.053   5.571   5.643 -0.0552 -0.4873  0.0811
    21BTZ    C8 8284   0.258   5.478   5.730  0.0446 -0.1583  0.1996
    21BTZ    C9 8285  -0.001   5.438   5.625  0.3314 -0.5896 -0.3510
    21BTZ   C10 8286   0.071   5.326   5.659  0.5742 -0.4825 -0.5108
    21BTZ   C11 8287   0.203   5.343   5.712  0.4376 -0.2625 -0.2394
    21BTZ    N2 8288   0.381   5.485   5.781 -0.0621  0.0470  0.4332
    21BTZ    N3 8289   0.283   5.242   5.749  0.6467 -0.1411 -0.3586
    21BTZ    S3 8290   0.434   5.317   5.808  0.3437  0.1168  0.0945
    31IDT   C12 8291  -0.005   5.208   5.631 -0.7986  0.3825 -0.3195
    31IDT   C13 8292   0.034   5.080   5.659 -0.0982  0.6154 -0.2089
    31IDT   C14 8293  -0.066   4.983   5.625  0.4411  0.0381 -0.1581
    31IDT   C15 8294  -0.181   5.037   5.571  0.1553 -0.6361 -0.2295
    31IDT    S4 8295  -0.172   5.216   5.559 -0.8272 -0.5931 -0.3677
    4IDB    C16 8296  -0.279   4.931   5.556  0.3336  0.1639 -0.0262
    4IDB    C17 8297  -0.213   4.805   5.568  0.3564  0.1223 -0.5593
    51IDQ   C18 8298  -0.072   4.827   5.627  0.3376  0.2345  0.7040
    4IDB    C19 8299  -0.284   4.685   5.559  0.2600  0.1610 -0.3234
    51IDQ   C20 8300  -0.055   4.758   5.774  2.3137  0.0635  0.0613
    51IDQ   C21 8301   0.043   4.775   5.537 -0.0847  1.0474 -0.8953
    51IDQ   C22 8302   0.055   4.654   5.450  0.0960  0.5420 -0.5635
    51IDQ   C23 8303  -0.055   4.855   5.890  0.1849  0.7968  0.7441
    51IDQ   C24 8304   0.174   4.647   5.348 -1.6334 -0.4050  1.2786
    51IDQ   C25 8305   0.221   4.534   5.260 -0.4345 -1.0682 -0.0470
    51IDQ   C26 8306   0.358   4.557   5.222 -0.4815  0.4287  0.2596
    51IDQ   C27 8307   0.411   4.420   5.163  0.4358 -0.1096  0.4249
    51IDQ   C28 8308   0.452   4.332   5.279 -0.5937 -0.0747  0.4778
    51IDQ   C29 8309   0.578   4.379   5.337  1.2449 -0.1409 -0.8785
    51IDQ   C30 8310   0.063   4.879   5.962 -0.1335 -0.5265 -1.9215
    51IDQ   C31 8311   0.067   5.005   6.042 -0.8313  0.3440  0.4354
    51IDQ   C32 8312  -0.007   5.001   6.175  0.2002 -0.2078 -1.3523
    51IDQ   C33 8313   0.008   5.136   6.223  0.7842 -0.2759 -0.6986
    51IDQ   C34 8314  -0.057   5.164   6.360  0.6680 -0.1083 -0.8402
    51IDQ   C35 8315  -0.205   5.142   6.354  0.6349  0.8626 -0.5655
    4IDB    C36 8316  -0.418   4.938   5.535  0.2134  0.2453  0.7508
    4IDB    C37 8317  -0.489   4.815   5.526  0.1161  0.2840  0.9813
    11RH    C38 8318   0.339   6.294   5.662 -0.7264  1.6441 -0.4495
    4IDB    C39 8319  -0.422   4.693   5.538  0.1396  0.2427  0.4538
    62IDT   C40 8320  -0.516   4.588   5.508 -0.0142  0.0503  0.4472
    72IDQ   C41 8321  -0.641   4.793   5.514 -0.1198  0.4180 -0.5101
    62IDT   C42 8322  -0.639   4.641   5.476  0.3185  0.2475 -0.5438
    72IDQ   C43 8323  -0.691   4.878   5.383  0.2092 -1.6975 -0.2841
    72IDQ   C44 8324  -0.718   4.834   5.653  0.2625  0.1617  0.0550
    62IDT    S5 8325  -0.503   4.415   5.462  0.2664  0.1751  0.0600
    62IDT   C45 8326  -0.673   4.424   5.398  0.8469  0.5032 -1.4973
    62IDT   C46 8327  -0.728   4.548   5.414  0.8059  0.5038 -1.6446
    82BTZ   C47 8328  -0.732   4.295   5.346  0.8795  0.1598  0.2481
    82BTZ   C48 8329  -0.813   4.306   5.236  0.3510  0.5527  0.6704
    82BTZ   C49 8330  -0.873   4.190   5.175 -0.4160  0.8285  0.8931
    82BTZ   C50 8331  -0.853   4.064   5.224 -0.6526  0.7113  0.6937
    82BTZ   C51 8332  -0.707   4.165   5.401  0.6592  0.0226  0.0250
    82BTZ   C52 8333  -0.769   4.047   5.339 -0.1202  0.3030  0.2513
    92RH    C53 8334  -0.906   3.946   5.166  0.1279  0.2947  0.6307
    82BTZ    N4 8335  -0.630   4.142   5.508  1.1230 -0.3526 -0.3860
    82BTZ    N5 8336  -0.741   3.930   5.396 -0.2830  0.1533  0.0222
    82BTZ    S6 8337  -0.633   3.965   5.534  0.5712 -0.3630 -0.5037
    92RH    C54 8338  -0.986   3.928   5.060  0.0222  0.2072  0.7257
    92RH     S7 8339  -1.010   4.044   4.919 -0.2131  0.1469  0.7156
    92RH    C55 8340  -1.071   3.808   5.041  0.0813  0.1441  0.8583
    92RH     O2 8341  -1.078   3.711   5.119  0.2327  0.1639  0.8962
    92RH     N6 8342  -1.145   3.816   4.921 -0.0578  0.0562  0.9386
    92RH    C56 8343  -1.131   3.927   4.842 -0.2213  0.0412  0.8869
    92RH    C57 8344  -1.249   3.726   4.904  0.7721 -0.5345  0.3172
    92RH    C58 8345  -1.224   3.601   4.801 -1.1634 -0.5335  0.0939
    92RH     S8 8346  -1.207   3.961   4.696 -0.4077 -0.0567  0.9613
    72IDQ   C59 8347  -0.687   4.980   5.673 -1.8424 -0.3022 -0.2381
    72IDQ   C60 8348  -0.692   5.037   5.816 -0.7765  0.7091 -0.5101
    72IDQ   C61 8349  -0.635   4.961   5.936  0.7478 -1.9558  0.5836
    72IDQ   C62 8350  -0.511   5.012   5.968  0.0924  0.1560  0.1781
    72IDQ   C63 8351  -0.409   4.908   6.041 -0.2865  0.5592  0.4369
    72IDQ   C64 8352  -0.403   4.768   5.955  0.7427 -1.0833  0.3503
    72IDQ   C65 8353  -0.395   4.631   6.030  1.6342 -1.6516 -0.2094
    72IDQ   C66 8354  -0.846   4.877   5.348 -0.7419  0.4582  0.2545
    72IDQ   C67 8355  -0.861   4.901   5.201 -0.1164  0.7705  0.4151
    72IDQ   C68 8356  -1.012   4.889   5.162  0.3120  0.9431  0.1760
    72IDQ   C69 8357  -1.058   4.753   5.150 -0.3295  0.4234  0.5468
    72IDQ   C70 8358  -1.201   4.717   5.165  0.0776 -0.0189 -0.7260
    72IDQ   C71 8359  -1.242   4.571   5.157 -0.1753  0.9707 -0.0756
    72IDQ   C72 8360  -1.388   4.593   5.198 -1.1846  0.3095  0.7136
    11RH     C1 8361   2.865   1.793   0.263 -0.0026 -0.1076 -0.0495
    11RH     C2 8362   2.956   1.688   0.211  0.1088 -0.0725  0.0741
    11RH     N1 8363   2.807   1.867   0.157  0.2149 -0.0439 -0.1267
    11RH     S1 8364   2.958   1.692   0.028  0.4924  0.0419  0.0807
    11RH     C3 8365   2.839   1.833   0.028  0.4871  0.0377 -0.0800
    11RH     C4 8366   2.722   1.986   0.195  0.5105 -0.5376  2.1168
    11RH     S2 8367   2.784   1.905  -0.114  0.7824  0.1245 -0.1521
    11RH     O1 8368   2.842   1.816   0.382 -0.2540 -0.1830 -0.0834
    11RH     C5 8369   3.024   1.604   0.290 -0.0531 -0.1193  0.1646
    21BTZ    C6 8370   3.099   1.470   0.271 -0.4531 -0.5366  0.2501
    21BTZ    C7 8371   3.104   1.424   0.142 -0.2029 -0.2290  0.1490
    21BTZ    C8 8372   3.160   1.390   0.374 -0.2838 -0.5794  0.1181
    21BTZ    C9 8373   3.167   1.300   0.108  0.2235  0.0503 -0.0854
    21BTZ   C10 8374   3.227   1.220   0.203  0.3988  0.0215 -0.2182
    21BTZ   C11 8375   3.225   1.264   0.339  0.1495 -0.2955 -0.1201
    21BTZ    N2 8376   3.162   1.424   0.503 -0.4964 -0.8665  0.1974
    21BTZ    N3 8377   3.279   1.195   0.440  0.2851 -0.3545 -0.2322
    21BTZ    S3 8378   3.249   1.292   0.588 -0.1445 -0.7844 -0.0338
    31IDT   C12 8379   3.258   1.083   0.159 -0.6402  0.1332 -0.2122
    31IDT   C13 8380   3.281   0.977   0.243 -2.3618 -0.2174 -0.1620
    31IDT   C14 8381   3.319   0.858   0.174 -2.5612 -0.3912  0.0226
    31IDT   C15 8382   3.327   0.873   0.037 -0.9969 -0.1747  0.1141
    31IDT    S4 8383   3.285   1.039  -0.016  0.8670  0.2701 -0.0278
    4IDB    C16 8384   3.360   0.738  -0.023 -0.3101 -0.7787  0.6663
    4IDB    C17 8385   3.414   0.650   0.075  0.2970 -0.7091  0.4016
    51IDQ   C18 8386   3.371   0.717   0.215 -1.1612  1.4671 -0.3173
    4IDB    C19 8387   3.477   0.532   0.038  0.7196 -0.3822  0.0678
    51IDQ   C20 8388   3.271   0.608   0.249  1.2833  0.2160  0.1316
    51IDQ   C21 8389   3.506   0.698   0.307 -0.6830 -0.1634 -0.7098
    51IDQ   C22 8390   3.494   0.614   0.440 -0.4430  0.1823 -0.5159
    51IDQ   C23 8391   3.116   0.634   0.240  0.8842 -0.2033  0.9118
    51IDQ   C24 8392   3.579   0.668   0.564 -0.2141  0.3266  1.0589
    51IDQ   C25 8393   3.552   0.801   0.626 -1.1364 -0.1457 -1.5692
    51IDQ   C26 8394   3.545   0.793   0.789  0.0262  0.7069 -0.8219
    51IDQ   C27 8395   3.654   0.807   0.900  0.4645 -0.6876  0.7196
    51IDQ   C28 8396   3.594   0.856   1.030 -1.1187 -0.5626  0.4814
    51IDQ   C29 8397   3.591   1.005   1.048 -0.3001  0.5042 -0.1271
    51IDQ   C30 8398   3.019   0.501   0.217  0.9326  0.3328  1.4487
    51IDQ   C31 8399   3.063   0.449   0.079  1.5319 -0.0327  0.1190
    51IDQ   C32 8400   3.093   0.298   0.046  1.9065  0.0216 -1.1542
    51IDQ   C33 8401   3.081   0.269  -0.101 -1.0081  0.5574  0.3284
    51IDQ   C34 8402   3.201   0.185  -0.130  0.0149 -0.0860  1.1378
    51IDQ   C35 8403   3.199   0.055  -0.167  0.6388 -0.9312  0.8226
    4IDB    C36 8404   3.369   0.709  -0.160 -0.4990 -0.5199  0.5982
    4IDB    C37 8405   3.434   0.588  -0.196 -0.0608 -0.1873  0.2553
    11RH    C38 8406   2.798   2.116   0.191 -0.7022  0.0940 -0.8367
    4IDB    C39 8407   3.486   0.502  -0.099  0.5307 -0.1233 -0.0007
    62IDT   C40 8408   3.523   0.380  -0.156  1.0392  0.4127  0.1480
    72IDQ   C41 8409   3.449   0.520  -0.328 -1.7029 -0.8110 -0.1967
    62IDT   C42 8410   3.487   0.384  -0.289  1.0021  0.8904  0.1709
    72IDQ   C43 8411   3.564   0.596  -0.421 -0.1438  0.7071  0.3783
    72IDQ   C44 8412   3.308   0.481  -0.394  0.1882 -0.5083  0.5211
    62IDT    S5 8413   3.591   0.220  -0.109 -0.0913 -0.1578 -0.1442
    62IDT   C45 8414   3.565   0.164  -0.281 -0.5785  0.3019 -0.2239
    62IDT   C46 8415   3.511   0.262  -0.360  0.0875  0.8284 -0.0393
    82BTZ   C47 8416   3.585   0.023  -0.323 -0.2987 -0.0123 -0.6608
    82BTZ   C48 8417   3.494  -0.067  -0.275 -0.1950  0.0005 -0.4380
    82BTZ   C49 8418   3.486  -0.201  -0.327  0.0945 -0.1991  0.0346
    82BTZ   C50 8419   3.570  -0.245  -0.426  0.2799 -0.4106  0.2835
    82BTZ   C51 8420   3.675  -0.018  -0.427 -0.1129 -0.2306 -0.4148
    82BTZ   C52 8421   3.667  -0.155  -0.479  0.1814 -0.4330  0.0653
    92RH    C53 8422   3.561  -0.386  -0.478 -0.5820 -0.0642 -0.2622
    82BTZ    N4 8423   3.768   0.061  -0.482 -0.1891 -0.2646 -0.5944
    82BTZ    N5 8424   3.754  -0.186  -0.576  0.3418 -0.6301  0.2716
    82BTZ    S6 8425   3.851  -0.038  -0.605  0.1187 -0.5637 -0.1478
    92RH    C54 8426   3.492  -0.496  -0.448 -0.2502 -0.1981  0.0165
    92RH     S7 8427   3.372  -0.516  -0.311 -0.0262 -0.2824  0.2016
    92RH    C55 8428   3.503  -0.623  -0.524 -0.0062 -0.3023  0.2239
    92RH     O2 8429   3.576  -0.642  -0.623 -0.0780 -0.2780  0.1659
    92RH     N6 8430   3.419  -0.723  -0.470  0.3263 -0.4356  0.5026
    92RH    C56 8431   3.342  -0.692  -0.361  0.3790 -0.4508  0.5438
    92RH    C57 8432   3.422  -0.861  -0.540 -1.0006  0.2391  1.1938
    92RH    C58 8433   3.346  -0.885  -0.674  0.2296 -1.1766  0.4342
    92RH     S8 8434   3.234  -0.792  -0.278  0.7478 -0.5975  0.8526
    72IDQ   C59 8435   3.167   0.550  -0.381  1.1688 -0.7900  0.1682
    72IDQ   C60 8436   3.072   0.474  -0.477 -0.1179 -0.6088 -0.7437
    72IDQ   C61 8437   2.943   0.460  -0.408  0.2152  0.4234 -0.0281
    72IDQ   C62 8438   2.804   0.477  -0.460  0.4124  0.4827  1.5019
    72IDQ   C63 8439   2.800   0.399  -0.589 -0.1355 -0.4471 -0.0053
    72IDQ   C64 8440   2.664   0.367  -0.641 -1.3220  1.0749  1.1431
    72IDQ   C65 8441   2.689   0.306  -0.788  0.1691 -1.0582 -0.1108
    72IDQ   C66 8442   3.506   0.687  -0.524 -0.8415 -0.6730  0.5153
    72IDQ   C67 8443   3.501   0.834  -0.477  0.7529  0.3923 -0.5957
    72IDQ   C68 8444   3.388   0.919  -0.533 -0.5615 -0.1372 -0.3593
    72IDQ   C69 8445   3.357   1.029  -0.437 -0.5720  0.1635  0.4014
    72IDQ   C70 8446   3.228   1.119  -0.467  0.9771 -0.8907 -0.9608
    72IDQ   C71 8447   3.267   1.266  -0.495 -0.2081  0.1961  1.0742
    72IDQ   C72 8448   3.212   1.300  -0.637  0.4360 -0.8270  0.4448
    11RH     C1 8449   3.532   2.808   4.727 -0.3691  0.6641  0.3850
    11RH     C2 8450   3.466   2.764   4.602 -0.0812  0.2580  0.3750
    11RH     N1 8451   3.558   2.947   4.725 -0.1560  0.6191 -0.1038
    11RH     S1 8452   3.443   2.907   4.490  0.4511 -0.1563 -0.2760
    11RH     C3 8453   3.521   3.019   4.614  0.2674  0.2267 -0.5043
    11RH     C4 8454   3.650   2.999   4.835  1.2112  1.0626  0.6907
    11RH     S2 8455   3.541   3.184   4.587  0.5920  0.0895 -1.1191
    11RH     O1 8456   3.562   2.735   4.823 -0.7503  1.0049  0.7682
    11RH     C5 8457   3.431   2.637   4.579 -0.2037  0.2142  0.7879
    21BTZ    C6 8458   3.353   2.568   4.483 -0.2374 -0.1163  0.6505
    21BTZ    C7 8459   3.281   2.634   4.387 -0.0173 -0.0460  0.5329
    21BTZ    C8 8460   3.341   2.425   4.492 -0.1116 -0.1438  0.3924
    21BTZ    C9 8461   3.194   2.564   4.296  0.3352  0.0006  0.1578
    21BTZ   C10 8462   3.179   2.428   4.301  0.4670 -0.0231 -0.0981
    21BTZ   C11 8463   3.253   2.354   4.399  0.2466 -0.0964  0.0117
    21BTZ    N2 8464   3.406   2.350   4.581 -0.3011 -0.2114  0.4745
    21BTZ    N3 8465   3.247   2.221   4.414  0.3452 -0.1258 -0.2129
    21BTZ    S3 8466   3.356   2.181   4.549 -0.0236 -0.2173  0.0589
    31IDT   C12 8467   3.100   2.371   4.208  0.4718  0.9845 -0.3536
    31IDT   C13 8468   3.123   2.251   4.148  0.2289  0.5878  0.3366
    31IDT   C14 8469   3.034   2.224   4.039 -0.3557 -0.2263  1.0028
    31IDT   C15 8470   2.942   2.324   4.016 -0.5619 -0.4554  0.8256
    31IDT    S4 8471   2.961   2.461   4.131 -0.0268  0.3498 -0.2082
    4IDB    C16 8472   2.858   2.273   3.912  0.9260 -0.1205 -0.4968
    4IDB    C17 8473   2.891   2.137   3.882 -0.4618 -0.7992  0.9061
    51IDQ   C18 8474   3.014   2.095   3.955  1.6675 -1.0250  0.4141
    4IDB    C19 8475   2.827   2.068   3.780 -0.2905 -0.7820  0.7866
    51IDQ   C20 8476   2.934   1.986   4.043  0.2894  0.5456  1.2252
    51IDQ   C21 8477   3.136   2.039   3.871 -0.1263 -0.0521 -1.1115
    51IDQ   C22 8478   3.132   2.011   3.718  0.3749  0.2055  0.0116
    51IDQ   C23 8479   2.935   1.984   4.189 -0.7805 -0.8262 -0.4374
    51IDQ   C24 8480   3.266   1.949   3.653  0.0614  0.0606 -0.3632
    51IDQ   C25 8481   3.237   1.867   3.524 -0.2167  0.4777  0.4867
    51IDQ   C26 8482   3.348   1.790   3.453  0.9729  0.2057  0.7197
    51IDQ   C27 8483   3.401   1.820   3.312 -0.4953  0.1574 -0.1153
    51IDQ   C28 8484   3.517   1.751   3.251 -0.2181  0.4219  0.0507
    51IDQ   C29 8485   3.654   1.767   3.331 -0.3698 -0.1271 -0.4636
    51IDQ   C30 8486   2.808   1.927   4.255  0.5253 -0.2253 -0.7532
    51IDQ   C31 8487   2.819   1.779   4.266  0.0247 -0.2484 -0.0767
    51IDQ   C32 8488   2.742   1.700   4.154  0.0426  0.7738 -0.4572
    51IDQ   C33 8489   2.784   1.556   4.113 -0.1173  0.9411 -0.2077
    51IDQ   C34 8490   2.699   1.436   4.107 -0.6076  1.6169 -0.5619
    51IDQ   C35 8491   2.658   1.439   3.961 -0.2256 -1.7381  0.7999
    4IDB    C36 8492   2.759   2.341   3.839  2.5030  0.5833 -2.0366
    4IDB    C37 8493   2.695   2.269   3.734  2.6546  0.5898 -2.1354
    11RH    C38 8494   3.557   3.027   4.957  0.4463 -0.1411 -0.7483
    4IDB    C39 8495   2.728   2.137   3.707  1.2866 -0.0781 -0.7534
    62IDT   C40 8496   2.636   2.080   3.611 -1.6043  0.1641  0.8137
    72IDQ   C41 8497   2.592   2.315   3.629 -1.0888  1.4104  0.8147
    62IDT   C42 8498   2.574   2.183   3.542 -1.5393  0.1948  0.8017
    72IDQ   C43 8499   2.646   2.435   3.544  1.6665 -0.5246  1.0795
    72IDQ   C44 8500   2.471   2.368   3.712 -0.5488  0.2174 -0.2740
    62IDT    S5 8501   2.605   1.920   3.534 -0.3888  0.3449 -0.0898
    62IDT   C45 8502   2.506   2.005   3.407  0.1701  0.4579 -0.4537
    62IDT   C46 8503   2.501   2.140   3.427 -0.5363  0.3608  0.0852
    82BTZ   C47 8504   2.431   1.922   3.305 -0.4421  0.4034  0.1602
    82BTZ   C48 8505   2.370   1.805   3.342 -0.5900  0.4489  0.0600
    82BTZ   C49 8506   2.306   1.720   3.245 -0.3884  0.4365 -0.0634
    82BTZ   C50 8507   2.303   1.751   3.112 -0.0393  0.3785 -0.0862
    82BTZ   C51 8508   2.431   1.960   3.167 -0.0772  0.3420  0.1411
    82BTZ   C52 8509   2.366   1.873   3.069  0.1274  0.3294  0.0159
    92RH    C53 8510   2.252   1.677   3.001  0.3811  0.1792  0.2260
    82BTZ    N4 8511   2.487   2.071   3.119  0.0961  0.2937  0.2314
    82BTZ    N5 8512   2.369   1.915   2.942  0.4655  0.2711  0.0052
    82BTZ    S6 8513   2.458   2.070   2.943  0.5378  0.2291  0.1585
    92RH    C54 8514   2.215   1.549   2.994  0.1903  0.2452  0.0471
    92RH     S7 8515   2.249   1.417   3.117 -0.2088  0.0747 -0.0246
    92RH    C55 8516   2.138   1.493   2.880  0.2773  0.4743 -0.1256
    92RH     O2 8517   2.100   1.557   2.780  0.5319  0.6298 -0.1255
    92RH     N6 8518   2.112   1.355   2.898  0.0316  0.4974 -0.2952
    92RH    C56 8519   2.160   1.294   3.012 -0.2415  0.3145 -0.2794
    92RH    C57 8520   2.021   1.281   2.809  1.2080 -0.0723  1.6805
    92RH    C58 8521   2.076   1.255   2.673  0.2565 -0.3522  0.4659
    92RH     S8 8522   2.143   1.133   3.057 -0.5671  0.2977 -0.4578
    72IDQ   C59 8523   2.416   2.293   3.841 -0.4178 -0.5966  0.8277
    72IDQ   C60 8524   2.360   2.160   3.813 -0.3863 -0.6993 -0.8445
    72IDQ   C61 8525   2.217   2.159   3.754  0.3088  1.6182 -0.6709
    72IDQ   C62 8526   2.127   2.042   3.738 -0.3811  0.2397  1.0237
    72IDQ   C63 8527   2.070   2.048   3.596  0.1319 -2.0534  0.8226
    72IDQ   C64 8528   1.997   1.921   3.550 -0.0038  0.0007 -0.1293
    72IDQ   C65 8529   1.871   1.847   3.602  0.9030  0.0300  0.0106
    72IDQ   C66 8530   2.683   2.417   3.394 -0.9711 -0.7074 -0.6129
    72IDQ   C67 8531   2.800   2.519   3.353  0.8927 -0.8850  0.2715
    72IDQ   C68 8532   2.817   2.488   3.200 -1.0381 -0.2538 -0.9735
    72IDQ   C69 8533   2.943   2.531   3.129  0.3818 -0.7846  0.0082
    72IDQ   C70 8534   3.039   2.647   3.161 -0.0843 -0.7715  0.4819
    72IDQ   C71 8535   3.135   2.671   3.032  0.1623 -0.3818 -0.2977
    72IDQ   C72 8536   3.253   2.757   3.072 -1.0539  0.0104  0.7644
    11RH     C1 8537   6.983   1.096   1.026 -0.0513  0.3698 -0.4339
    11RH     C2 8538   6.917   0.971   0.981  0.2182  0.1252 -0.1552
    11RH     N1 8539   7.119   1.099   0.987 -0.0428  0.5485 -0.3874
    11RH     S1 8540   7.038   0.866   0.891  0.4651  0.1461  0.1497
    11RH     C3 8541   7.170   0.992   0.917  0.2003  0.4769 -0.1056
    11RH     C4 8542   7.194   1.223   0.997  0.6772  0.5294 -0.7865
    11RH     S2 8543   7.327   0.972   0.859  0.2649  0.6525  0.0081
    11RH     O1 8544   6.929   1.187   1.090 -0.2611  0.4169 -0.6797
    11RH     C5 8545   6.789   0.943   1.005  0.2652 -0.0760 -0.1383
    21BTZ    C6 8546   6.694   0.849   0.964 -0.2293  0.2660 -0.7113
    21BTZ    C7 8547   6.720   0.742   0.884 -0.2172  0.3019 -0.7555
    21BTZ    C8 8548   6.561   0.866   1.016 -0.1729  0.0999 -0.5105
    21BTZ    C9 8549   6.618   0.645   0.850 -0.1495  0.1774 -0.6058
    21BTZ   C10 8550   6.490   0.657   0.897 -0.0942  0.0171 -0.4121
    21BTZ   C11 8551   6.457   0.768   0.981 -0.1042 -0.0267 -0.3583
    21BTZ    N2 8552   6.523   0.967   1.095 -0.1786  0.0498 -0.4492
    21BTZ    N3 8553   6.336   0.790   1.033 -0.0544 -0.1785 -0.1747
    21BTZ    S3 8554   6.349   0.940   1.129 -0.0945 -0.1658 -0.1889
    31IDT   C12 8555   6.385   0.551   0.851  0.5772 -0.6124  0.1587
    31IDT   C13 8556   6.260   0.536   0.905  0.2565  0.1413 -0.3546
    31IDT   C14 8557   6.194   0.418   0.859 -0.2439  0.5091 -0.5811
    31IDT   C15 8558   6.267   0.343   0.770 -0.3080  0.0395 -0.2430
    31IDT    S4 8559   6.428   0.417   0.737  0.2662 -0.9138  0.3944
    4IDB    C16 8560   6.191   0.222   0.734 -0.1897  0.2131  0.2713
    4IDB    C17 8561   6.067   0.223   0.805  0.0844 -0.6708  0.7736
    51IDQ   C18 8562   6.057   0.349   0.892 -0.8249  1.4919 -1.4076
    4IDB    C19 8563   5.972   0.124   0.784  0.1754 -0.6406  0.1993
    51IDQ   C20 8564   5.928   0.430   0.849  0.3731 -1.3286  0.0293
    51IDQ   C21 8565   6.044   0.319   1.045  0.5824  0.5961  0.5707
    51IDQ   C22 8566   6.068   0.191   1.111  0.6473 -2.3276 -0.9798
    51IDQ   C23 8567   5.937   0.559   0.784 -0.1194  0.6185  0.3716
    51IDQ   C24 8568   5.949   0.097   1.134  0.5673 -0.1177  1.2730
    51IDQ   C25 8569   5.832   0.164   1.210 -1.5636 -1.0039  0.7483
    51IDQ   C26 8570   5.720   0.085   1.267 -0.1850  0.0365 -0.0894
    51IDQ   C27 8571   5.587   0.110   1.189 -0.3099  0.2054  0.7892
    51IDQ   C28 8572   5.525   0.246   1.164 -0.5429 -0.3489  0.9063
    51IDQ   C29 8573   5.478   0.271   1.033 -0.8343 -0.6090  0.6032
    51IDQ   C30 8574   5.803   0.638   0.797 -1.1611  0.0741 -0.4465
    51IDQ   C31 8575   5.848   0.780   0.764  0.2909 -0.9441 -0.2674
    51IDQ   C32 8576   5.745   0.891   0.718 -0.2035 -1.3058 -0.0518
    51IDQ   C33 8577   5.784   1.034   0.683  0.1072  1.1255  0.1723
    51IDQ   C34 8578   5.908   1.053   0.589  0.0321  0.5108 -0.2071
    51IDQ   C35 8579   5.898   1.063   0.439  0.9352 -1.1607  0.6644
    4IDB    C36 8580   6.221   0.122   0.641 -0.3753  1.1381 -0.8154
    4IDB    C37 8581   6.122   0.021   0.621 -0.2785  1.1546 -1.3897
    11RH    C38 8582   7.194   1.315   0.882 -0.9806 -0.1501 -0.3515
    4IDB    C39 8583   6.002   0.023   0.691 -0.0098  0.2844 -0.8875
    62IDT   C40 8584   5.917  -0.088   0.653  0.4368 -0.0016  0.8881
    72IDQ   C41 8585   6.144  -0.121   0.578 -0.1928  0.2743 -0.3209
    62IDT   C42 8586   6.007  -0.186   0.616  0.5150 -0.0520  1.2084
    72IDQ   C43 8587   6.261  -0.177   0.660 -0.5058 -0.7440  0.2388
    72IDQ   C44 8588   6.156  -0.096   0.421 -0.3071 -0.2287 -0.2171
    62IDT    S5 8589   5.752  -0.154   0.677  0.2893  0.1097  0.1944
    62IDT   C45 8590   5.815  -0.318   0.633  0.3433  0.0809  0.3833
    62IDT   C46 8591   5.949  -0.317   0.605  0.4621 -0.0052  0.9235
    82BTZ   C47 8592   5.720  -0.427   0.658  0.3791 -0.1842  0.0702
    82BTZ   C48 8593   5.734  -0.499   0.773  0.2480 -0.0052  0.1980
    82BTZ   C49 8594   5.657  -0.618   0.798 -0.0601  0.2491  0.4651
    82BTZ   C50 8595   5.565  -0.665   0.708 -0.2372  0.3247  0.6040
    82BTZ   C51 8596   5.625  -0.472   0.560  0.2027 -0.1147  0.2074
    82BTZ   C52 8597   5.547  -0.593   0.585 -0.1106  0.1440  0.4789
    92RH    C53 8598   5.503  -0.800   0.713 -0.1475 -0.4188 -0.4553
    82BTZ    N4 8599   5.603  -0.410   0.443  0.3047 -0.2718  0.1040
    82BTZ    N5 8600   5.461  -0.629   0.489 -0.2604  0.1945  0.5937
    82BTZ    S6 8601   5.477  -0.507   0.359 -0.0020 -0.0920  0.3546
    92RH    C54 8602   5.534  -0.912   0.779 -0.2007 -0.2887 -0.2046
    92RH     S7 8603   5.689  -0.946   0.871 -0.2990 -0.0833  0.0374
    92RH    C55 8604   5.444  -1.030   0.786 -0.1869 -0.2913 -0.0813
    92RH     O2 8605   5.332  -1.039   0.734 -0.1259 -0.4120 -0.1929
    92RH     N6 8606   5.502  -1.135   0.861 -0.2527 -0.1372  0.1847
    92RH    C56 8607   5.627  -1.115   0.915 -0.3176 -0.0114  0.2897
    92RH    C57 8608   5.440  -1.276   0.871  1.0468 -0.0179  0.0700
    92RH    C58 8609   5.343  -1.316   0.986  0.5551 -0.1374 -0.6741
    92RH     S8 8610   5.718  -1.222   1.008 -0.4029  0.1831  0.5988
    72IDQ   C59 8611   6.127  -0.217   0.344 -0.2933 -0.6235 -0.2825
    72IDQ   C60 8612   6.142  -0.194   0.196  0.0840 -0.3743  0.6259
    72IDQ   C61 8613   6.276  -0.149   0.140 -1.6338 -0.7288 -0.2450
    72IDQ   C62 8614   6.376  -0.255   0.085 -1.4828  0.6965  0.5084
    72IDQ   C63 8615   6.354  -0.396   0.028  0.5618 -0.0212 -2.1728
    72IDQ   C64 8616   6.468  -0.451  -0.021 -0.9562  0.4338 -1.8869
    72IDQ   C65 8617   6.514  -0.396  -0.162 -0.0242  0.0118 -0.7576
    72IDQ   C66 8618   6.331  -0.303   0.609  1.2353 -1.0893 -1.0864
    72IDQ   C67 8619   6.426  -0.380   0.690 -0.0021  0.4849 -0.3458
    72IDQ   C68 8620   6.478  -0.509   0.615  0.9083 -0.4659  1.1182
    72IDQ   C69 8621   6.383  -0.615   0.549 -0.8086 -1.8941  0.1273
    72IDQ   C70 8622   6.284  -0.665   0.655  0.9552  0.3552  0.1199
    72IDQ   C71 8623   6.140  -0.647   0.659  0.3681  0.1705 -0.2131
    72IDQ   C72 8624   6.090  -0.620   0.525  0.6600 -0.2972  1.0305
    11RH     C1 8625   5.378   6.992   4.007  0.0935 -0.1897 -0.5994
    11RH     C2 8626   5.380   7.059   4.139  0.4320 -0.4586 -0.4661
    11RH     N1 8627   5.247   6.983   3.956 -0.0418 -0.0995 -0.2723
    11RH     S1 8628   5.209   7.108   4.187  0.5504 -0.5753  0.0810
    11RH     C3 8629   5.143   7.036   4.030  0.1469 -0.2632  0.1068
    11RH     C4 8630   5.206   6.940   3.817  2.1047 -0.5125 -0.7628
    11RH     S2 8631   4.979   7.039   3.992  0.0451 -0.2034  0.5438
    11RH     O1 8632   5.477   6.947   3.947 -0.0579 -0.0558 -0.9516
    11RH     C5 8633   5.492   7.080   4.210  0.6149 -0.5896 -0.7165
    21BTZ    C6 8634   5.538   7.127   4.348 -0.2509 -0.1412  0.2122
    21BTZ    C7 8635   5.456   7.143   4.456 -0.0136 -0.2924  0.4151
    21BTZ    C8 8636   5.678   7.157   4.362 -0.1967 -0.2823 -0.0167
    21BTZ    C9 8637   5.506   7.188   4.583  0.2871 -0.5879  0.4041
    21BTZ   C10 8638   5.639   7.218   4.602  0.3502 -0.7318  0.1897
    21BTZ   C11 8639   5.729   7.203   4.491  0.1092 -0.5827 -0.0279
    21BTZ    N2 8640   5.768   7.145   4.264 -0.4091 -0.1578 -0.2272
    21BTZ    N3 8641   5.860   7.229   4.497  0.1423 -0.6996 -0.2475
    21BTZ    S3 8642   5.925   7.195   4.334 -0.2233 -0.4248 -0.4530
    31IDT   C12 8643   5.690   7.263   4.739 -0.7482  0.6642 -0.1033
    31IDT   C13 8644   5.648   7.208   4.857 -0.5469  0.0045 -0.3364
    31IDT   C14 8645   5.705   7.271   4.972  0.1230 -1.0295 -0.0885
    31IDT   C15 8646   5.791   7.374   4.942  0.4362 -1.1645  0.3345
    31IDT    S4 8647   5.806   7.400   4.765 -0.0979  0.0181  0.4524
    4IDB    C16 8648   5.838   7.445   5.061  0.3296 -0.4961  0.3262
    4IDB    C17 8649   5.792   7.366   5.171  0.4792 -0.6200  0.2992
    51IDQ   C18 8650   5.678   7.270   5.123 -0.1937 -0.3867 -1.1895
    4IDB    C19 8651   5.846   7.382   5.298  0.0038 -0.1146  0.4399
    51IDQ   C20 8652   5.668   7.125   5.188 -2.0113 -0.2077 -1.3322
    51IDQ   C21 8653   5.538   7.319   5.155  0.4560 -1.0384  1.2697
    51IDQ   C22 8654   5.504   7.453   5.219 -0.2975 -0.1428 -0.0540
    51IDQ   C23 8655   5.698   7.000   5.103 -0.0259 -0.1766  1.1250
    51IDQ   C24 8656   5.358   7.462   5.276  0.3503  0.4444 -0.7455
    51IDQ   C25 8657   5.335   7.597   5.345 -0.0426  0.4239  0.7811
    51IDQ   C26 8658   5.307   7.713   5.249 -0.1262 -0.6015 -0.1910
    51IDQ   C27 8659   5.302   7.854   5.320  1.0534 -0.7759 -0.6502
    51IDQ   C28 8660   5.411   7.885   5.406  0.8845  0.1828 -0.3711
    51IDQ   C29 8661   5.513   7.948   5.312  0.1030  1.4835  2.3192
    51IDQ   C30 8662   5.579   6.911   5.064  0.4739 -0.5637 -0.0378
    51IDQ   C31 8663   5.542   6.856   5.203  0.9807 -0.0102  0.5139
    51IDQ   C32 8664   5.443   6.742   5.216 -0.3095  0.3611  0.1922
    51IDQ   C33 8665   5.338   6.787   5.302  0.4188 -0.0904  0.6620
    51IDQ   C34 8666   5.239   6.681   5.322  1.2002  0.7674  0.6547
    51IDQ   C35 8667   5.110   6.747   5.381  1.0338  1.3490 -0.9969
    4IDB    C36 8668   5.938   7.541   5.078 -0.3002  0.1383  0.4950
    4IDB    C37 8669   5.992   7.557   5.208 -0.7794  0.6486  0.6371
    11RH    C38 8670   5.186   7.055   3.706  0.9474  0.1478 -0.3324
    4IDB    C39 8671   5.947   7.479   5.314 -0.6260  0.5197  0.6086
    62IDT   C40 8672   6.026   7.510   5.436  0.6609 -0.9310  0.5469
    72IDQ   C41 8673   6.087   7.663   5.257 -0.2134  0.4865 -1.1769
    62IDT   C42 8674   6.128   7.593   5.397  1.3192 -1.7688  0.4542
    72IDQ   C43 8675   5.998   7.797   5.294 -0.8082  0.5050 -0.4835
    72IDQ   C44 8676   6.187   7.688   5.139 -1.6984  0.0059 -1.1154
    62IDT    S5 8677   6.041   7.461   5.608 -0.7252  0.5660  1.1271
    62IDT   C45 8678   6.193   7.561   5.618 -0.3225 -0.0499  1.2178
    62IDT   C46 8679   6.223   7.622   5.500  0.7641 -1.2719  0.8335
    82BTZ   C47 8680   6.269   7.572   5.746  0.1127  0.1712 -0.4067
    82BTZ   C48 8681   6.206   7.556   5.866 -0.0298  0.3581 -0.4554
    82BTZ   C49 8682   6.278   7.567   5.991 -0.1547  0.4412 -0.3905
    82BTZ   C50 8683   6.412   7.594   5.995 -0.1369  0.3373 -0.2770
    82BTZ   C51 8684   6.409   7.600   5.744  0.1376  0.0564 -0.2878
    82BTZ   C52 8685   6.482   7.612   5.871  0.0107  0.1409 -0.2217
    92RH    C53 8686   6.465   7.647   6.117 -0.4493  0.2989 -0.0770
    82BTZ    N4 8687   6.481   7.618   5.633  0.2713 -0.1272 -0.2306
    82BTZ    N5 8688   6.613   7.638   5.861  0.0420  0.0252 -0.1116
    82BTZ    S6 8689   6.649   7.650   5.686  0.2396 -0.2014 -0.0870
    92RH    C54 8690   6.421   7.666   6.242 -0.3102  0.0881  0.0041
    92RH     S7 8691   6.254   7.627   6.307 -0.4722  0.6658 -0.0637
    92RH    C55 8692   6.505   7.723   6.351  0.0072 -0.6729  0.1662
    92RH     O2 8693   6.623   7.759   6.339  0.1788 -1.1955  0.2453
    92RH     N6 8694   6.434   7.732   6.472  0.0952 -0.7401  0.2232
    92RH    C56 8695   6.303   7.688   6.474 -0.1128 -0.1259  0.1259
    92RH    C57 8696   6.495   7.788   6.592  0.8991 -0.1454  0.3935
    92RH    C58 8697   6.472   7.945   6.586  0.0807  0.0214 -0.0295
    92RH     S8 8698   6.197   7.688   6.605 -0.0656 -0.0587  0.1647
    72IDQ   C59 8699   6.178   7.779   5.011 -0.5942 -0.2501  0.0423
    72IDQ   C60 8700   6.066   7.759   4.907 -0.5228  0.2601 -0.1824
    72IDQ   C61 8701   6.071   7.636   4.819  0.7317  0.3705  1.3143
    72IDQ   C62 8702   6.176   7.642   4.703 -0.8261  1.0974  0.3978
    72IDQ   C63 8703   6.126   7.541   4.601 -0.4745  1.5461  0.2693
    72IDQ   C64 8704   6.209   7.493   4.489 -0.8907  0.1070  0.7831
    72IDQ   C65 8705   6.184   7.542   4.339  0.3725  0.5827  0.4436
    72IDQ   C66 8706   5.869   7.809   5.388 -1.7683 -0.1493  0.2305
    72IDQ   C67 8707   5.867   7.910   5.499 -1.0138  2.1340 -0.0237
    72IDQ   C68 8708   5.764   7.894   5.609 -0.3514 -0.8701  0.8139
    72IDQ   C69 8709   5.763   7.784   5.716  0.3927 -0.7429  0.4954
    72IDQ   C70 8710   5.694   7.643   5.674  0.6864 -0.4137  0.2737
    72IDQ   C71 8711   5.728   7.513   5.741  0.5113 -1.2290  1.0891
    72IDQ   C72 8712   5.663   7.508   5.873 -0.7308  0.1203 -0.6148
    11RH     C1 8713   5.186   2.449   4.021  0.2875 -0.2596  0.2661
    11RH     C2 8714   5.312   2.410   4.088  0.2034 -0.2106  0.4528
    11RH     N1 8715   5.079   2.456   4.112  0.2414  0.1238  0.1843
    11RH     S1 8716   5.282   2.384   4.267  0.0687  0.3365  0.5086
    11RH     C3 8717   5.104   2.427   4.245  0.1304  0.4741  0.2830
    11RH     C4 8718   4.957   2.514   4.059 -0.3101  0.3591 -0.7415
    11RH     S2 8719   4.994   2.428   4.373  0.0558  0.9648  0.2177
    11RH     O1 8720   5.174   2.473   3.900  0.3867 -0.5914  0.1881
    11RH     C5 8721   5.429   2.396   4.024  0.2256 -0.5262  0.5601
    21BTZ    C6 8722   5.557   2.333   4.054 -0.2344  0.2723 -0.0216
    21BTZ    C7 8723   5.580   2.255   4.165 -0.2129  0.2985 -0.0081
    21BTZ    C8 8724   5.670   2.382   3.980 -0.2506  0.1631 -0.1192
    21BTZ    C9 8725   5.713   2.222   4.208 -0.2062  0.2190 -0.0887
    21BTZ   C10 8726   5.824   2.267   4.141 -0.2207  0.1136 -0.1830
    21BTZ   C11 8727   5.805   2.348   4.024 -0.2437  0.0823 -0.2007
    21BTZ    N2 8728   5.660   2.458   3.870 -0.2723  0.1279 -0.1419
    21BTZ    N3 8729   5.905   2.398   3.950 -0.2599 -0.0178 -0.2894
    21BTZ    S3 8730   5.828   2.491   3.818 -0.2850 -0.0129 -0.2716
    31IDT   C12 8731   5.959   2.227   4.198 -0.7322  0.4839  1.2363
    31IDT   C13 8732   6.069   2.308   4.209 -0.9470  0.7719  1.2722
    31IDT   C14 8733   6.166   2.259   4.301 -0.4156  0.5305  0.5922
    31IDT   C15 8734   6.131   2.139   4.361  0.2061  0.0581  0.0350
    31IDT    S4 8735   5.970   2.081   4.305  0.1663 -0.1192  0.3313
    4IDB    C16 8736   6.239   2.083   4.440  0.6102  0.4331  0.1767
    4IDB    C17 8737   6.342   2.182   4.446  0.4745  0.5656  0.3424
    51IDQ   C18 8738   6.304   2.296   4.345 -0.1590 -1.1369 -0.7542
    4IDB    C19 8739   6.457   2.161   4.521  0.4855  0.6143  0.3387
    51IDQ   C20 8740   6.315   2.418   4.439  0.8622 -0.8808  1.0843
    51IDQ   C21 8741   6.394   2.322   4.217  0.0883 -0.5784  0.4901
    51IDQ   C22 8742   6.543   2.281   4.189  0.0307  2.1660  1.0139
    51IDQ   C23 8743   6.180   2.483   4.502  1.1588 -1.1538 -0.7714
    51IDQ   C24 8744   6.644   2.308   4.293 -0.8989  0.9787 -1.2764
    51IDQ   C25 8745   6.666   2.457   4.347 -0.8836 -1.3999 -2.2649
    51IDQ   C26 8746   6.774   2.484   4.450  0.1815 -0.1803  0.1529
    51IDQ   C27 8747   6.867   2.367   4.479 -1.1567  0.6736 -0.2596
    51IDQ   C28 8748   6.943   2.299   4.359 -0.5492  0.6476 -1.3527
    51IDQ   C29 8749   7.046   2.393   4.292 -0.8409  0.1946 -0.9959
    51IDQ   C30 8750   6.144   2.480   4.654 -0.8476 -0.7298 -1.0136
    51IDQ   C31 8751   6.057   2.362   4.661  0.0887  0.3740  0.3235
    51IDQ   C32 8752   5.986   2.382   4.789  0.2384 -0.1934  0.6797
    51IDQ   C33 8753   5.852   2.456   4.768  1.2661 -0.0992  0.0670
    51IDQ   C34 8754   5.732   2.358   4.749 -0.1091 -0.2676  1.2318
    51IDQ   C35 8755   5.590   2.414   4.741 -0.2190  0.4280 -0.3133
    4IDB    C36 8756   6.251   1.962   4.510  0.7591  0.3479  0.0055
    4IDB    C37 8757   6.369   1.942   4.586  0.7684  0.3993  0.0048
    11RH    C38 8758   4.934   2.667   4.025  1.5288  0.3533 -0.4736
    4IDB    C39 8759   6.469   2.040   4.591  0.6345  0.5292  0.1679
    62IDT   C40 8760   6.598   1.995   4.639  0.4593 -0.0113  0.2294
    72IDQ   C41 8761   6.437   1.821   4.636  0.0141  1.1557 -0.1754
    62IDT   C42 8762   6.582   1.866   4.684  0.7751  0.1034  0.6866
    72IDQ   C43 8763   6.433   1.684   4.550  0.5643  1.3457  0.0996
    72IDQ   C44 8764   6.403   1.798   4.787 -0.8039  1.2394 -1.3075
    62IDT    S5 8765   6.764   2.056   4.669  0.4200  0.3740 -0.3216
    62IDT   C45 8766   6.805   1.896   4.744  0.8543  0.6849  0.1164
    62IDT   C46 8767   6.699   1.809   4.743  0.9987  0.4971  0.6230
    82BTZ   C47 8768   6.924   1.879   4.836  0.3139 -1.0132  0.5314
    82BTZ   C48 8769   6.902   1.825   4.960  0.4110 -0.9215  0.5889
    82BTZ   C49 8770   7.010   1.800   5.052  0.4420 -0.5136  0.6642
    82BTZ   C50 8771   7.140   1.830   5.020  0.3754 -0.1980  0.6817
    82BTZ   C51 8772   7.058   1.912   4.798  0.2414 -0.6932  0.5472
    82BTZ   C52 8773   7.168   1.886   4.892  0.2728 -0.2787  0.6235
    92RH    C53 8774   7.249   1.825   5.123 -0.2482 -0.4399 -0.2278
    82BTZ    N4 8775   7.092   1.965   4.680  0.1446 -0.7448  0.4959
    82BTZ    N5 8776   7.290   1.919   4.849  0.2013  0.0030  0.6337
    82BTZ    S6 8777   7.270   1.985   4.684  0.0884 -0.2551  0.5440
    92RH    C54 8778   7.235   1.825   5.256 -0.1715 -0.1142 -0.2172
    92RH     S7 8779   7.083   1.868   5.350 -0.0368  0.3819 -0.2224
    92RH    C55 8780   7.344   1.788   5.350 -0.1849 -0.1072 -0.1993
    92RH     O2 8781   7.459   1.754   5.317 -0.2669 -0.3955 -0.1917
    92RH     N6 8782   7.301   1.796   5.484 -0.0913  0.2749 -0.1907
    92RH    C56 8783   7.171   1.835   5.509 -0.0046  0.5749 -0.2000
    92RH    C57 8784   7.390   1.753   5.601  1.4968  0.2297  0.7601
    92RH    C58 8785   7.408   1.617   5.647 -0.2546 -0.5426  0.1566
    92RH     S8 8786   7.095   1.852   5.659  0.1154  1.0528 -0.1931
    72IDQ   C59 8787   6.409   1.655   4.860 -0.7870  0.0100 -0.7300
    72IDQ   C60 8788   6.368   1.637   5.014  1.4433  1.8638  0.5318
    72IDQ   C61 8789   6.440   1.730   5.121 -0.7257  0.7600  0.7972
    72IDQ   C62 8790   6.340   1.725   5.220 -0.4145  0.7743  1.4297
    72IDQ   C63 8791   6.399   1.777   5.346 -0.5139 -0.5659 -1.4813
    72IDQ   C64 8792   6.311   1.753   5.474 -0.3100 -0.9043 -0.0054
    72IDQ   C65 8793   6.359   1.858   5.575  0.0230  0.0833 -0.1354
    72IDQ   C66 8794   6.480   1.645   4.406 -0.0326 -0.9991  0.2946
    72IDQ   C67 8795   6.592   1.734   4.352  0.4029 -0.3806 -0.6416
    72IDQ   C68 8796   6.568   1.844   4.243 -0.2663  0.1227  1.6769
    72IDQ   C69 8797   6.696   1.922   4.223  0.5180 -0.4569 -0.0536
    72IDQ   C70 8798   6.781   1.893   4.096 -0.4589 -0.9007  0.6474
    72IDQ   C71 8799   6.744   2.001   3.989  0.4864  0.5546 -0.0029
    72IDQ   C72 8800   6.835   2.018   3.864 -0.4899 -0.9247 -1.0950
    11RH     C1 8801   0.026   4.334   3.031  0.0882  0.0548  0.1314
    11RH     C2 8802  -0.076   4.309   2.926  0.1104 -0.0737  0.1401
    11RH     N1 8803  -0.020   4.429   3.126  0.0674  0.1689  0.0084
    11RH     S1 8804  -0.225   4.412   2.959  0.1019 -0.0361 -0.0139
    11RH     C3 8805  -0.145   4.482   3.110  0.0701  0.1473 -0.0824
    11RH     C4 8806   0.072   4.491   3.233  0.0169 -1.9623  0.4303
    11RH     S2 8807  -0.223   4.595   3.208  0.0482  0.2649 -0.2348
    11RH     O1 8808   0.138   4.281   3.037  0.0875  0.0641  0.2192
    11RH     C5 8809  -0.058   4.224   2.824  0.1326 -0.1960  0.2463
    21BTZ    C6 8810  -0.156   4.149   2.750  0.4663 -0.0573  0.2323
    21BTZ    C7 8811  -0.282   4.145   2.804  0.4766 -0.0403  0.2576
    21BTZ    C8 8812  -0.126   4.064   2.639  0.3760  0.0830  0.1014
    21BTZ    C9 8813  -0.385   4.059   2.750  0.3991  0.1142  0.1565
    21BTZ   C10 8814  -0.361   3.977   2.643  0.3119  0.2516  0.0300
    21BTZ   C11 8815  -0.230   3.977   2.584  0.2975  0.2400 -0.0013
    21BTZ    N2 8816  -0.007   4.059   2.578  0.3576  0.0820  0.0647
    21BTZ    N3 8817  -0.195   3.901   2.480  0.2160  0.3654 -0.1206
    21BTZ    S3 8818  -0.023   3.939   2.446  0.2363  0.2858 -0.1065
    31IDT   C12 8819  -0.476   3.896   2.594 -0.4815  0.9425  0.0170
    31IDT   C13 8820  -0.539   3.800   2.666 -0.1512  1.2330  0.7031
    31IDT   C14 8821  -0.622   3.715   2.586  0.0968  0.4086  1.3002
    31IDT   C15 8822  -0.622   3.747   2.452 -0.0427 -0.5132  1.0736
    31IDT    S4 8823  -0.516   3.888   2.417 -0.5034 -0.4080  0.0777
    4IDB    C16 8824  -0.716   3.657   2.391 -0.1792  0.4250 -0.6924
    4IDB    C17 8825  -0.745   3.549   2.480  0.6845  0.1577 -0.7240
    51IDQ   C18 8826  -0.675   3.578   2.620  0.2754 -0.8490 -0.1672
    4IDB    C19 8827  -0.842   3.455   2.448  0.6679  0.0144 -0.2585
    51IDQ   C20 8828  -0.794   3.563   2.736  0.3067 -0.0533  0.1732
    51IDQ   C21 8829  -0.555   3.476   2.661  0.8268  0.7841  0.2289
    51IDQ   C22 8830  -0.454   3.407   2.570  0.8683 -0.5350 -0.3320
    51IDQ   C23 8831  -0.893   3.657   2.810 -0.6818 -0.2489 -0.4013
    51IDQ   C24 8832  -0.359   3.327   2.651 -0.1369 -0.8593  0.5155
    51IDQ   C25 8833  -0.377   3.181   2.671  0.1393 -0.8760 -0.4661
    51IDQ   C26 8834  -0.257   3.165   2.761  0.4536  1.3981 -1.0709
    51IDQ   C27 8835  -0.273   3.064   2.883  0.9276  1.1413 -0.0395
    51IDQ   C28 8836  -0.376   3.125   2.975 -2.1160 -1.8189 -0.3305
    51IDQ   C29 8837  -0.467   3.019   3.025 -0.1771 -0.1191  0.5273
    51IDQ   C30 8838  -0.995   3.717   2.713 -0.2453  0.5170 -0.3329
    51IDQ   C31 8839  -1.080   3.621   2.627  1.2334 -0.3137  0.9491
    51IDQ   C32 8840  -1.180   3.535   2.717 -0.4738  0.2610  0.6976
    51IDQ   C33 8841  -1.132   3.414   2.795  0.2813 -0.5505 -0.3293
    51IDQ   C34 8842  -1.195   3.413   2.937 -0.3209 -0.1987  0.2312
    51IDQ   C35 8843  -1.164   3.323   3.056 -0.0571  0.2664  0.4705
    4IDB    C36 8844  -0.784   3.671   2.269 -1.0703  0.5511 -0.1918
    4IDB    C37 8845  -0.882   3.574   2.238 -1.0729  0.4015  0.2793
    11RH    C38 8846   0.115   4.386   3.338 -0.0263  0.9367  0.3454
    4IDB    C39 8847  -0.910   3.469   2.326 -0.2228  0.1405  0.2420
    62IDT   C40 8848  -1.011   3.382   2.253 -0.1047 -0.1499  0.2823
    72IDQ   C41 8849  -0.953   3.557   2.102  0.7040 -0.3415  0.5346
    62IDT   C42 8850  -1.034   3.431   2.126  0.0980  0.0685  0.3282
    72IDQ   C43 8851  -0.853   3.563   1.981  0.5362  0.5462  1.8103
    72IDQ   C44 8852  -1.074   3.661   2.053 -0.9285  0.9148 -0.5870
    62IDT    S5 8853  -1.097   3.227   2.282  0.0726 -0.3454 -0.2165
    62IDT   C45 8854  -1.163   3.236   2.113  0.4292 -0.1099 -0.3426
    62IDT   C46 8855  -1.120   3.348   2.046  0.4005  0.0917 -0.0252
    82BTZ   C47 8856  -1.273   3.146   2.073  0.1632 -0.4537 -0.4323
    82BTZ   C48 8857  -1.333   3.076   2.174  0.1867 -0.5254 -0.4679
    82BTZ   C49 8858  -1.436   2.978   2.147 -0.0634 -0.2590 -0.4879
    82BTZ   C50 8859  -1.478   2.950   2.020 -0.3369  0.0785 -0.4723
    82BTZ   C51 8860  -1.313   3.121   1.938 -0.1190 -0.1038 -0.4147
    82BTZ   C52 8861  -1.418   3.021   1.911 -0.3731  0.1669 -0.4351
    92RH    C53 8862  -1.572   2.843   1.988 -0.1543 -0.5492 -0.4905
    82BTZ    N4 8863  -1.262   3.183   1.831 -0.1698 -0.0020 -0.3802
    82BTZ    N5 8864  -1.450   3.003   1.782 -0.6280  0.4863 -0.4169
    82BTZ    S6 8865  -1.347   3.115   1.688 -0.5525  0.4538 -0.3721
    92RH    C54 8866  -1.621   2.735   2.050 -0.1144 -0.4421 -0.2697
    92RH     S7 8867  -1.571   2.670   2.215 -0.4172  0.1739  0.0651
    92RH    C55 8868  -1.726   2.648   1.992  0.1931 -0.8210 -0.2630
    92RH     O2 8869  -1.780   2.664   1.881  0.4447 -1.2730 -0.4572
    92RH     N6 8870  -1.758   2.541   2.078  0.1670 -0.6046 -0.0041
    92RH    C56 8871  -1.692   2.532   2.199 -0.1233 -0.0987  0.1975
    92RH    C57 8872  -1.856   2.453   2.026  0.2893 -0.3560 -0.6225
    92RH    C58 8873  -1.796   2.332   1.952  0.1308  0.3135  1.3600
    92RH     S8 8874  -1.712   2.415   2.319 -0.2170  0.2483  0.5209
    72IDQ   C59 8875  -1.095   3.799   2.104  0.1147 -0.9440 -0.3743
    72IDQ   C60 8876  -1.214   3.872   2.027  1.0337 -0.8202 -0.0252
    72IDQ   C61 8877  -1.354   3.885   2.081 -0.3210  0.3114 -0.6092
    72IDQ   C62 8878  -1.403   3.743   2.132 -0.7308 -0.4413 -0.8198
    72IDQ   C63 8879  -1.543   3.738   2.196  0.0613  0.6027 -0.2126
    72IDQ   C64 8880  -1.577   3.606   2.278  1.4049  0.0443  0.4081
    72IDQ   C65 8881  -1.579   3.633   2.427 -0.6062 -0.1422 -0.5549
    72IDQ   C66 8882  -0.869   3.470   1.870 -0.7827 -0.1797 -0.4808
    72IDQ   C67 8883  -0.750   3.466   1.759  0.7587 -0.2170  0.0169
    72IDQ   C68 8884  -0.769   3.373   1.633 -0.5647 -1.5863  0.2321
    72IDQ   C69 8885  -0.686   3.236   1.644  1.3671 -0.3399  0.5863
    72IDQ   C70 8886  -0.634   3.140   1.534  2.3169  0.8769  0.6389
    72IDQ   C71 8887  -0.647   2.992   1.569 -0.4670  0.1859  0.0494
    72IDQ   C72 8888  -0.773   2.937   1.639 -0.0437 -0.5423 -0.3869
    11RH     C1 8889   0.868   0.264   4.344  0.4583 -0.4646 -0.3407
    11RH     C2 8890   0.890   0.151   4.438  0.4527 -0.1643  0.0284
    11RH     N1 8891   0.989   0.307   4.286  0.4663 -0.6337 -0.4491
    11RH     S1 8892   1.069   0.109   4.442  0.4581 -0.1239  0.2087
    11RH     C3 8893   1.106   0.242   4.320  0.4677 -0.5056 -0.2122
    11RH     C4 8894   0.969   0.421   4.199  0.0641  0.1104  1.0193
    11RH     S2 8895   1.262   0.274   4.265  0.4765 -0.6581 -0.2751
    11RH     O1 8896   0.758   0.317   4.319  0.4565 -0.5611 -0.5357
    11RH     C5 8897   0.792   0.091   4.506  0.4448  0.0400  0.1952
    21BTZ    C6 8898   0.794  -0.009   4.613  0.1777 -0.2471  0.0390
    21BTZ    C7 8899   0.913  -0.057   4.660  0.0627 -0.3071  0.2689
    21BTZ    C8 8900   0.672  -0.066   4.663  0.0488 -0.0510 -0.0515
    21BTZ    C9 8901   0.919  -0.162   4.759 -0.1830 -0.1788  0.4201
    21BTZ   C10 8902   0.805  -0.219   4.810 -0.3133  0.0094  0.3420
    21BTZ   C11 8903   0.678  -0.172   4.763 -0.2009  0.0792  0.1025
    21BTZ    N2 8904   0.550  -0.028   4.625  0.1413  0.0243 -0.2718
    21BTZ    N3 8905   0.560  -0.220   4.806 -0.3092  0.2596  0.0060
    21BTZ    S3 8906   0.435  -0.129   4.717 -0.0919  0.2705 -0.2922
    31IDT   C12 8907   0.828  -0.317   4.916  0.0781 -0.1420  0.4922
    31IDT   C13 8908   0.735  -0.374   4.999  0.2061 -0.3865  0.4716
    31IDT   C14 8909   0.792  -0.465   5.093  0.3713 -0.5431  0.2179
    31IDT   C15 8910   0.928  -0.480   5.081  0.3701 -0.4191  0.0440
    31IDT    S4 8911   0.996  -0.377   4.950  0.1579 -0.0917  0.1891
    4IDB    C16 8912   0.971  -0.570   5.188 -0.7000  0.6267  0.2482
    4IDB    C17 8913   0.856  -0.630   5.247 -0.5835  0.6902  0.5448
    51IDQ   C18 8914   0.731  -0.562   5.192  0.8115  0.3664  0.0778
    4IDB    C19 8915   0.868  -0.721   5.352 -0.3524  0.5553  0.4036
    51IDQ   C20 8916   0.628  -0.668   5.145  0.0324 -0.3008 -0.6005
    51IDQ   C21 8917   0.648  -0.469   5.284  0.9096 -0.5916  1.2365
    51IDQ   C22 8918   0.709  -0.435   5.419  0.7859 -0.4369  0.0497
    51IDQ   C23 8919   0.640  -0.733   5.008  0.4537 -1.4503  0.2257
    51IDQ   C24 8920   0.668  -0.493   5.560  0.1226 -0.2456 -0.2396
    51IDQ   C25 8921   0.713  -0.406   5.687 -0.0716  1.3615  1.1780
    51IDQ   C26 8922   0.691  -0.246   5.673  0.0317  0.5836  0.2664
    51IDQ   C27 8923   0.778  -0.161   5.762 -0.6211 -0.6079 -0.0174
    51IDQ   C28 8924   0.803  -0.173   5.919 -0.2975  0.2180  0.7262
    51IDQ   C29 8925   0.931  -0.237   5.978  0.8447  0.3938  0.6087
    51IDQ   C30 8926   0.546  -0.759   4.910  0.5342  0.5508  1.0869
    51IDQ   C31 8927   0.398  -0.709   4.916 -0.1169 -1.5427  0.1475
    51IDQ   C32 8928   0.319  -0.740   5.038  0.3438  0.3063  0.5641
    51IDQ   C33 8929   0.210  -0.852   5.043 -0.0955 -0.3007  0.1769
    51IDQ   C34 8930   0.070  -0.830   5.097 -0.9486  0.0156 -0.3872
    51IDQ   C35 8931  -0.037  -0.885   5.007 -0.1791 -0.3900  0.3929
    4IDB    C36 8932   1.100  -0.600   5.235 -0.5851  0.4268 -0.1938
    4IDB    C37 8933   1.110  -0.693   5.342 -0.3490  0.2911 -0.3321
    11RH    C38 8934   0.936   0.390   4.048  0.1001 -0.2022 -0.0751
    4IDB    C39 8935   0.997  -0.751   5.399 -0.2375  0.3552 -0.0387
    62IDT   C40 8936   1.034  -0.836   5.509  0.5277 -0.1676 -0.0216
    72IDQ   C41 8937   1.226  -0.759   5.405  0.3019  1.3797  0.5329
    62IDT   C42 8938   1.171  -0.853   5.509  0.4421 -0.8919  0.0958
    72IDQ   C43 8939   1.325  -0.657   5.464  0.6763  0.3501 -0.6645
    72IDQ   C44 8940   1.302  -0.834   5.290  0.2699  0.9360 -0.6448
    62IDT    S5 8941   0.955  -0.929   5.641 -0.0415  0.5569  0.1511
    62IDT   C45 8942   1.119  -0.988   5.692 -0.3820 -0.1938  0.3841
    62IDT   C46 8943   1.219  -0.939   5.612 -0.0724 -0.9074  0.3254
    82BTZ   C47 8944   1.137  -1.079   5.809 -0.5072 -0.3959  0.1101
    82BTZ   C48 8945   1.042  -1.077   5.908 -0.4405 -0.3331  0.1729
    82BTZ   C49 8946   1.060  -1.148   6.032 -0.2689 -0.0892  0.2871
    82BTZ   C50 8947   1.173  -1.220   6.058 -0.1642  0.0920  0.3380
    82BTZ   C51 8948   1.258  -1.154   5.832 -0.4026 -0.2131  0.1593
    82BTZ   C52 8949   1.276  -1.225   5.958 -0.2282  0.0353  0.2754
    92RH    C53 8950   1.204  -1.279   6.183  0.2651  0.3004  0.2484
    82BTZ    N4 8951   1.357  -1.163   5.743 -0.4533 -0.2520  0.1063
    82BTZ    N5 8952   1.391  -1.293   5.972 -0.1386  0.1955  0.3154
    82BTZ    S6 8953   1.482  -1.267   5.820 -0.2763  0.0327  0.2043
    92RH    C54 8954   1.144  -1.273   6.303  0.1627 -0.1709  0.2224
    92RH     S7 8955   1.050  -1.131   6.372 -0.4065 -0.6605  0.4605
    92RH    C55 8956   1.146  -1.384   6.400  0.5078 -0.3734 -0.0114
    92RH     O2 8957   1.201  -1.494   6.384  0.9243 -0.1366 -0.2074
    92RH     N6 8958   1.075  -1.351   6.518  0.3047 -0.8803  0.0138
    92RH    C56 8959   1.018  -1.226   6.526 -0.1611 -1.1089  0.2394
    92RH    C57 8960   1.058  -1.454   6.620  0.7980 -0.7760  0.7330
    92RH    C58 8961   0.920  -1.518   6.628  0.4256  0.6537  0.2808
    92RH     S8 8962   0.929  -1.162   6.655 -0.4845 -1.7047  0.3178
    72IDQ   C59 8963   1.441  -0.900   5.307 -0.8876  0.3785 -0.2016
    72IDQ   C60 8964   1.442  -1.044   5.368  0.7389  1.3557  0.8701
    72IDQ   C61 8965   1.361  -1.145   5.277 -0.9103  0.5471  0.1822
    72IDQ   C62 8966   1.285  -1.250   5.357 -0.6231  1.1269  0.5885
    72IDQ   C63 8967   1.361  -1.367   5.428  0.0096  0.9069 -1.1783
    72IDQ   C64 8968   1.279  -1.467   5.506  1.4015 -0.3549  0.0084
    72IDQ   C65 8969   1.305  -1.510   5.651  0.5418 -0.5372  0.8804
    72IDQ   C66 8970   1.322  -0.521   5.522 -0.5328 -1.2992  0.4169
    72IDQ   C67 8971   1.236  -0.476   5.644 -0.6446  0.7607  0.7322
    72IDQ   C68 8972   1.111  -0.430   5.603  0.0790 -0.6176  0.1607
    72IDQ   C69 8973   1.098  -0.341   5.483  0.3011 -0.0632  0.3273
    72IDQ   C70 8974   1.033  -0.205   5.523  0.5832 -0.1114  0.1441
    72IDQ   C71 8975   1.069  -0.104   5.421  0.6494 -0.0481 -0.3950
    72IDQ   C72 8976   1.056   0.037   5.476 -0.0727 -1.1221 -0.4547
    11RH     C1 8977   0.648   0.727   4.724  0.2380 -0.1731  0.3200
    11RH     C2 8978   0.666   0.798   4.852  0.2816  0.3398  0.0329
    11RH     N1 8979   0.742   0.770   4.627 -0.1165 -0.1949 -0.0373
    11RH     S1 8980   0.804   0.918   4.838 -0.1463  0.7600 -0.6888
    11RH     C3 8981   0.832   0.867   4.663 -0.3622  0.2378 -0.5760
    11RH     C4 8982   0.720   0.711   4.488 -0.4309  0.1160  0.4199
    11RH     S2 8983   0.953   0.936   4.568 -0.7982  0.3124 -1.0817
    11RH     O1 8984   0.563   0.640   4.700  0.4776 -0.5432  0.8113
    11RH     C5 8985   0.590   0.776   4.960  0.5912  0.4621  0.2776
    21BTZ    C6 8986   0.597   0.816   5.102  0.3665 -0.0303  0.0955
    21BTZ    C7 8987   0.699   0.893   5.151  0.2910 -0.0231  0.2418
    21BTZ    C8 8988   0.506   0.755   5.195  0.0197  0.2608 -0.0498
    21BTZ    C9 8989   0.717   0.915   5.293 -0.1261  0.2683  0.2527
    21BTZ   C10 8990   0.633   0.858   5.385 -0.4672  0.5521  0.1175
    21BTZ   C11 8991   0.524   0.776   5.339 -0.4044  0.5570 -0.0384
    21BTZ    N2 8992   0.403   0.678   5.159  0.0534  0.2841 -0.1991
    21BTZ    N3 8993   0.436   0.716   5.419 -0.7115  0.8184 -0.1786
    21BTZ    S3 8994   0.323   0.628   5.311 -0.4663  0.6944 -0.3344
    31IDT   C12 8995   0.648   0.900   5.527 -1.0180 -0.0140  0.4736
    31IDT   C13 8996   0.694   0.814   5.623 -1.2095  0.0196  0.5958
    31IDT   C14 8997   0.726   0.881   5.746 -0.6253  0.1964  0.3526
    31IDT   C15 8998   0.704   1.017   5.743  0.0138  0.2987  0.0440
    31IDT    S4 8999   0.641   1.072   5.584 -0.0754  0.1777  0.0374
    4IDB    C16 9000   0.746   1.079   5.864 -1.0054  0.5437  0.8022
    4IDB    C17 9001   0.839   0.991   5.927  0.1289  0.5857 -0.7472
    51IDQ   C18 9002   0.807   0.844   5.868 -1.2621 -1.4240  1.2579
    4IDB    C19 9003   0.910   1.031   6.039  0.6328 -0.0057 -0.8509
    51IDQ   C20 9004   0.923   0.724   5.836  1.3604 -1.0267  0.3316
    51IDQ   C21 9005   0.695   0.767   5.950  0.7014 -0.7490  2.6555
    51IDQ   C22 9006   0.662   0.814   6.100  0.9854  0.3194 -1.1612
    51IDQ   C23 9007   1.065   0.728   5.883 -0.6252 -0.4533 -0.4468
    51IDQ   C24 9008   0.523   0.885   6.112 -0.5552  0.6529  0.8502
    51IDQ   C25 9009   0.449   0.871   6.243 -0.7897 -0.4304 -0.4283
    51IDQ   C26 9010   0.488   0.768   6.341  0.5444  0.4183  1.0461
    51IDQ   C27 9011   0.414   0.640   6.318 -0.3945 -0.5549  0.4229
    51IDQ   C28 9012   0.407   0.526   6.419 -0.2140 -0.9758  0.5602
    51IDQ   C29 9013   0.302   0.585   6.504  0.5201 -0.2421 -1.0169
    51IDQ   C30 9014   1.157   0.629   5.815 -0.1828 -0.9295  0.9116
    51IDQ   C31 9015   1.119   0.482   5.840 -1.2807 -0.2294 -0.3126
    51IDQ   C32 9016   1.198   0.419   5.735 -0.5973 -0.5645  0.7521
    51IDQ   C33 9017   1.172   0.267   5.728 -0.1993 -1.1322 -0.3267
    51IDQ   C34 9018   1.198   0.205   5.865  0.0450  0.3193  0.5081
    51IDQ   C35 9019   1.315   0.097   5.860 -1.1110 -0.8960  1.0316
    4IDB    C36 9020   0.724   1.209   5.913 -1.6459 -0.0947  2.2659
    4IDB    C37 9021   0.798   1.248   6.028 -1.1169 -0.6936  2.1365
    11RH    C38 9022   0.649   0.822   4.419  0.2109  0.1155  0.1379
    4IDB    C39 9023   0.888   1.161   6.088 -0.0077 -0.6439  0.6130
    62IDT   C40 9024   0.937   1.221   6.210 -0.2494  0.1777  0.5735
    72IDQ   C41 9025   0.799   1.381   6.115  1.4787 -0.8397 -0.8619
    62IDT   C42 9026   0.904   1.355   6.219 -0.7493  0.0352  0.9584
    72IDQ   C43 9027   0.671   1.375   6.194 -0.2184 -0.4132  0.4260
    72IDQ   C44 9028   0.800   1.535   6.049  0.7705  0.0669 -0.3214
    62IDT    S5 9029   1.046   1.170   6.343  0.3078  0.3039  0.1666
    62IDT   C45 9030   1.042   1.340   6.406 -0.1886  0.1496  0.5573
    62IDT   C46 9031   0.964   1.422   6.330 -0.7156  0.0190  0.9499
    82BTZ   C47 9032   1.136   1.375   6.511 -0.2857 -0.1327  0.0482
    82BTZ   C48 9033   1.254   1.306   6.507 -0.6019 -0.6847  0.1388
    82BTZ   C49 9034   1.336   1.289   6.624 -0.7838 -1.0924  0.2081
    82BTZ   C50 9035   1.300   1.341   6.745 -0.6492 -0.9474  0.1867
    82BTZ   C51 9036   1.094   1.431   6.636 -0.1339  0.0399  0.0224
    82BTZ   C52 9037   1.177   1.414   6.755 -0.3187 -0.3745  0.0927
    92RH    C53 9038   1.380   1.331   6.870 -0.1139 -0.3187  0.6081
    82BTZ    N4 9039   0.981   1.501   6.652  0.1723  0.5651 -0.0637
    82BTZ    N5 9040   1.131   1.469   6.868 -0.1611 -0.1823  0.0634
    82BTZ    S6 9041   0.976   1.548   6.825  0.2387  0.5517 -0.0583
    92RH    C54 9042   1.500   1.275   6.886 -0.0415 -0.2503  0.3207
    92RH     S7 9043   1.596   1.183   6.760 -0.1558  0.0648  0.0020
    92RH    C55 9044   1.575   1.278   7.014  0.1490 -0.4264  0.2139
    92RH     O2 9045   1.537   1.333   7.119  0.2620 -0.6534  0.3741
    92RH     N6 9046   1.699   1.211   7.003  0.1888 -0.3038 -0.0990
    92RH    C56 9047   1.732   1.154   6.882  0.0536 -0.0512 -0.2565
    92RH    C57 9048   1.783   1.199   7.121 -0.0124 -1.0749  0.4119
    92RH    C58 9049   1.763   1.078   7.207 -2.6973  0.0689 -0.2191
    92RH     S8 9050   1.872   1.069   6.843  0.0657  0.1376 -0.6285
    72IDQ   C59 9051   0.868   1.581   5.917 -0.2245 -1.7154  0.1820
    72IDQ   C60 9052   0.858   1.734   5.899 -0.0545  0.2532  0.1538
    72IDQ   C61 9053   0.940   1.806   5.997 -0.7901 -0.4326 -1.0255
    72IDQ   C62 9054   1.050   1.907   5.930 -0.1864  0.7014 -0.1009
    72IDQ   C63 9055   1.136   1.989   6.036  0.7107  0.7171  0.4660
    72IDQ   C64 9056   1.281   2.042   5.995 -0.3299  0.6221 -0.1472
    72IDQ   C65 9057   1.380   2.061   6.106 -0.1158 -1.0637  0.0348
    72IDQ   C66 9058   0.551   1.327   6.153  0.8379 -0.1051 -0.0899
    72IDQ   C67 9059   0.424   1.303   6.246 -1.0742 -0.1449  1.2341
    72IDQ   C68 9060   0.433   1.207   6.366  0.0739 -0.8424 -1.0466
    72IDQ   C69 9061   0.516   1.260   6.487 -0.6464  1.3304  0.0128
    72IDQ   C70 9062   0.580   1.148   6.556  0.0416 -1.0070 -0.8329
    72IDQ   C71 9063   0.724   1.160   6.603  0.1940 -0.9216 -2.1793
    72IDQ   C72 9064   0.836   1.065   6.554 -0.1645  0.1918 -0.2968
    11RH     C1 9065   3.927   1.911   6.121 -0.4009  0.3466  0.0732
    11RH     C2 9066   3.973   1.897   6.262 -0.2271  0.0739 -0.0107
    11RH     N1 9067   4.029   1.965   6.039 -0.4262  0.2894  0.0043
    11RH     S1 9068   4.146   1.954   6.277 -0.1079 -0.2400 -0.1743
    11RH     C3 9069   4.150   1.995   6.097 -0.2937  0.0042 -0.1242
    11RH     C4 9070   4.001   2.012   5.889 -0.2862 -1.2812 -0.2128
    11RH     S2 9071   4.287   2.059   6.022 -0.2906 -0.1218 -0.2272
    11RH     O1 9072   3.814   1.881   6.078 -0.5126  0.5963  0.1891
    11RH     C5 9073   3.895   1.849   6.360 -0.1704  0.0673  0.0308
    21BTZ    C6 9074   3.919   1.837   6.507 -0.0126 -0.5508 -0.6780
    21BTZ    C7 9075   4.030   1.885   6.571 -0.0923 -0.2256 -0.7784
    21BTZ    C8 9076   3.821   1.766   6.584 -0.0288 -0.3057 -0.4687
    21BTZ    C9 9077   4.051   1.864   6.713 -0.1910  0.3528 -0.6788
    21BTZ   C10 9078   3.960   1.797   6.790 -0.2100  0.6051 -0.4788
    21BTZ   C11 9079   3.842   1.745   6.727 -0.1292  0.2822 -0.3674
    21BTZ    N2 9080   3.708   1.715   6.533  0.0426 -0.5793 -0.3548
    21BTZ    N3 9081   3.746   1.678   6.792 -0.1385  0.4811 -0.1721
    21BTZ    S3 9082   3.623   1.637   6.669 -0.0168 -0.0870 -0.1079
    31IDT   C12 9083   4.005   1.767   6.926 -0.1471 -1.2008 -0.8703
    31IDT   C13 9084   3.944   1.698   7.028 -0.0404 -1.7145 -1.1485
    31IDT   C14 9085   4.032   1.669   7.136 -0.2866 -0.9564 -0.7386
    31IDT   C15 9086   4.161   1.715   7.118 -0.5823  0.1374 -0.1478
    31IDT    S4 9087   4.180   1.800   6.961 -0.5714  0.2937 -0.0629
    4IDB    C16 9088   4.242   1.673   7.238  0.2841 -1.0302 -0.3318
    4IDB    C17 9089   4.155   1.605   7.327  0.7150 -1.9987 -0.6342
    51IDQ   C18 9090   4.013   1.613   7.281  1.4162  0.6085 -0.8318
    4IDB    C19 9091   4.201   1.556   7.449  0.7380 -1.0405 -0.2481
    51IDQ   C20 9092   3.935   1.457   7.281  0.3850 -0.0728 -0.9717
    51IDQ   C21 9093   3.917   1.709   7.397 -0.2096  0.9841 -0.7082
    51IDQ   C22 9094   3.960   1.831   7.476 -0.8171  0.0322 -0.4566
    51IDQ   C23 9095   3.938   1.365   7.156 -0.3904 -0.6019  0.6112
    51IDQ   C24 9096   4.082   1.918   7.425  0.4614 -0.5019 -0.7157
    51IDQ   C25 9097   4.133   1.990   7.550  0.8450 -0.9105  0.4232
    51IDQ   C26 9098   4.237   2.098   7.502  2.1852  0.0672 -1.1385
    51IDQ   C27 9099   4.269   2.205   7.595 -1.3118 -0.1868  0.1862
    51IDQ   C28 9100   4.423   2.220   7.603 -0.6099 -1.0855  0.9851
    51IDQ   C29 9101   4.469   2.326   7.701 -0.6751  0.2167  0.5522
    51IDQ   C30 9102   4.074   1.303   7.110 -0.9597  0.1794 -0.1707
    51IDQ   C31 9103   4.129   1.342   6.965  1.3780  0.2940  0.5051
    51IDQ   C32 9104   4.226   1.225   6.908 -0.1332  0.0284  0.1819
    51IDQ   C33 9105   4.380   1.275   6.929  1.1396 -1.3392  0.6668
    51IDQ   C34 9106   4.493   1.183   6.895  0.1886 -0.4867 -0.2888
    51IDQ   C35 9107   4.609   1.279   6.879  0.1445  0.6331 -0.3597
    4IDB    C36 9108   4.378   1.693   7.269 -0.1287  0.9147  0.3632
    4IDB    C37 9109   4.423   1.642   7.394 -0.0987  1.8705  0.7498
    11RH    C38 9110   3.988   2.154   5.846 -0.4917 -0.6861 -0.1187
    4IDB    C39 9111   4.337   1.576   7.481  0.3250  0.9044  0.4469
    62IDT   C40 9112   4.411   1.554   7.603  0.8350 -0.0762  0.3658
    72IDQ   C41 9113   4.561   1.668   7.458 -0.2540  1.5686 -0.9181
    62IDT   C42 9114   4.544   1.586   7.589  0.8442  0.0573  0.7386
    72IDQ   C43 9115   4.599   1.815   7.499 -1.4832 -0.5628  0.1224
    72IDQ   C44 9116   4.677   1.599   7.372  0.1024 -0.0147  0.6180
    62IDT    S5 9117   4.374   1.491   7.768  0.3253  0.4286  0.4463
    62IDT   C45 9118   4.550   1.514   7.811  0.1420  0.8124  1.0071
    62IDT   C46 9119   4.623   1.564   7.706  0.4525  0.5599  1.1016
    82BTZ   C47 9120   4.594   1.473   7.933 -0.1616 -0.0456 -0.0208
    82BTZ   C48 9121   4.510   1.492   8.040 -0.2511  0.1515 -0.1254
    82BTZ   C49 9122   4.557   1.485   8.176 -0.3340  0.5639 -0.0759
    82BTZ   C50 9123   4.688   1.461   8.206 -0.3278  0.7785  0.0781
    82BTZ   C51 9124   4.733   1.447   7.959 -0.1514  0.1663  0.1418
    82BTZ   C52 9125   4.781   1.441   8.098 -0.2360  0.5855  0.1922
    92RH    C53 9126   4.750   1.451   8.341 -0.4902 -0.4603 -0.3747
    82BTZ    N4 9127   4.825   1.427   7.864 -0.0682  0.0070  0.2547
    82BTZ    N5 9128   4.911   1.416   8.114 -0.2205  0.7631  0.3454
    82BTZ    S6 9129   4.979   1.399   7.950 -0.0950  0.3941  0.4339
    92RH    C54 9130   4.691   1.455   8.461 -0.3653  0.0393 -0.3288
    92RH     S7 9131   4.514   1.488   8.495 -0.3659 -0.0007 -0.2924
    92RH    C55 9132   4.763   1.433   8.589 -0.2022  0.7243 -0.2996
    92RH     O2 9133   4.884   1.409   8.600 -0.1626  0.9140 -0.3138
    92RH     N6 9134   4.676   1.443   8.700 -0.0941  1.1497 -0.2525
    92RH    C56 9135   4.543   1.471   8.676 -0.1509  0.8893 -0.2404
    92RH    C57 9136   4.744   1.385   8.821  1.0941  0.6013 -0.9392
    92RH    C58 9137   4.804   1.488   8.922  0.2015  0.8863 -0.0144
    92RH     S8 9138   4.420   1.488   8.790 -0.0472  1.2867 -0.1871
    72IDQ   C59 9139   4.740   1.449   7.392  0.7163 -0.5721 -0.7631
    72IDQ   C60 9140   4.650   1.331   7.398  0.3809 -0.0035 -0.8443
    72IDQ   C61 9141   4.716   1.230   7.498 -0.8522 -0.9110 -0.7382
    72IDQ   C62 9142   4.618   1.144   7.571 -0.0475 -0.0108 -0.1855
    72IDQ   C63 9143   4.516   1.041   7.510 -0.8493  0.0831 -0.2390
    72IDQ   C64 9144   4.391   1.090   7.447 -0.0609 -0.2594  0.5813
    72IDQ   C65 9145   4.255   1.004   7.435 -0.0010  0.7751  1.3592
    72IDQ   C66 9146   4.602   1.907   7.372  0.6809  0.3196  0.9221
    72IDQ   C67 9147   4.653   2.050   7.354  0.2255  0.5129 -0.4253
    72IDQ   C68 9148   4.693   2.094   7.216 -0.0253  0.5097 -0.9171
    72IDQ   C69 9149   4.588   2.087   7.090 -0.3608 -0.1258 -0.1800
    72IDQ   C70 9150   4.475   2.198   7.094  0.4463  0.1402  0.0210
    72IDQ   C71 9151   4.404   2.230   7.224 -0.2270  1.5683  0.1643
    72IDQ   C72 9152   4.279   2.322   7.224  0.8089  0.1439 -0.4953
    11RH     C1 9153   1.066   0.574   5.275  0.0930  0.1406 -0.1578
    11RH     C2 9154   0.931   0.519   5.304  0.0919  0.1605 -0.1249
    11RH     N1 9155   1.084   0.598   5.137  0.0950  0.0552 -0.1725
    11RH     S1 9156   0.837   0.503   5.147  0.0933  0.0655 -0.1161
    11RH     C3 9157   0.979   0.569   5.052  0.0954  0.0042 -0.1554
    11RH     C4 9158   1.208   0.647   5.087 -0.4697  0.5954 -0.0175
    11RH     S2 9159   0.975   0.588   4.884  0.0976 -0.0990 -0.1674
    11RH     O1 9160   1.154   0.598   5.359  0.0924  0.1913 -0.1712
    11RH     C5 9161   0.889   0.488   5.427  0.0900  0.2369 -0.1064
    21BTZ    C6 9162   0.765   0.431   5.483  0.0957  0.2198  0.0034
    21BTZ    C7 9163   0.658   0.409   5.400  0.1260  0.2391 -0.0408
    21BTZ    C8 9164   0.764   0.371   5.613 -0.0157  0.3028  0.0422
    21BTZ    C9 9165   0.546   0.328   5.440  0.0489  0.3404 -0.0494
    21BTZ   C10 9166   0.541   0.268   5.563 -0.0584  0.4221 -0.0137
    21BTZ   C11 9167   0.650   0.288   5.654 -0.0941  0.4058  0.0334
    21BTZ    N2 9168   0.862   0.384   5.702 -0.0550  0.2936  0.0865
    21BTZ    N3 9169   0.657   0.235   5.776 -0.1963  0.4793  0.0708
    21BTZ    S3 9170   0.813   0.290   5.846 -0.1967  0.4187  0.1197
    31IDT   C12 9171   0.428   0.172   5.598 -0.4202  0.2493 -0.4486
    31IDT   C13 9172   0.385   0.132   5.722 -0.2371  0.5923 -0.2711
    31IDT   C14 9173   0.272   0.044   5.715 -0.1650  0.4681  0.1328
    31IDT   C15 9174   0.228   0.018   5.587 -0.2923  0.0306  0.2654
    31IDT    S4 9175   0.328   0.102   5.463 -0.5155 -0.2606 -0.1140
    4IDB    C16 9176   0.118  -0.080   5.588 -0.1016 -0.2312  0.0840
    4IDB    C17 9177   0.075  -0.098   5.723 -0.2997  0.1788  0.0775
    51IDQ   C18 9178   0.190  -0.044   5.813 -1.0086  0.3452 -0.9511
    4IDB    C19 9179  -0.047  -0.158   5.751 -0.3734  0.3292  0.0789
    51IDQ   C20 9180   0.134   0.026   5.948 -0.5671  0.1199 -0.8518
    51IDQ   C21 9181   0.288  -0.156   5.870  1.5068  0.7461 -0.2428
    51IDQ   C22 9182   0.269  -0.293   5.815  0.3724  0.2451 -1.7734
    51IDQ   C23 9183   0.118   0.174   5.986  0.4932  2.0803 -0.6217
    51IDQ   C24 9184   0.386  -0.373   5.868  0.3350  0.3278 -0.1081
    51IDQ   C25 9185   0.356  -0.429   6.007  0.2521  0.4862 -0.0223
    51IDQ   C26 9186   0.485  -0.460   6.086 -0.0324 -0.9101  0.0550
    51IDQ   C27 9187   0.457  -0.481   6.238 -1.0982 -0.2734  0.9751
    51IDQ   C28 9188   0.568  -0.438   6.332  0.2168 -0.8051  0.6466
    51IDQ   C29 9189   0.716  -0.497   6.322  0.6208 -0.7008  0.2232
    51IDQ   C30 9190   0.052   0.283   5.916 -0.2253  0.3637 -0.7044
    51IDQ   C31 9191   0.021   0.404   5.993 -1.3167 -0.4288 -0.7868
    51IDQ   C32 9192   0.154   0.487   6.010  0.5963  0.5434  0.4739
    51IDQ   C33 9193   0.220   0.527   5.877  0.2686  0.4798 -0.9293
    51IDQ   C34 9194   0.303   0.648   5.879 -0.6844  0.0043  0.1791
    51IDQ   C35 9195   0.380   0.640   5.749  0.3007 -1.2399 -0.0556
    4IDB    C36 9196   0.039  -0.121   5.480  0.0248 -0.4945  0.0923
    4IDB    C37 9197  -0.086  -0.182   5.511 -0.0527 -0.3352  0.0937
    11RH    C38 9198   1.228   0.793   5.097 -0.8242 -1.6626 -0.1276
    4IDB    C39 9199  -0.127  -0.200   5.643 -0.2470  0.0665  0.0874
    62IDT   C40 9200  -0.248  -0.273   5.648 -0.1148 -0.3753  0.3981
    72IDQ   C41 9201  -0.204  -0.242   5.411  0.1867 -0.6707  0.0458
    62IDT   C42 9202  -0.280  -0.316   5.521  0.1202 -0.2389  0.2916
    72IDQ   C43 9203  -0.135  -0.372   5.324  2.0377 -0.5366 -0.5233
    72IDQ   C44 9204  -0.271  -0.118   5.323 -0.8261 -0.0814 -0.6783
    62IDT    S5 9205  -0.369  -0.326   5.770 -0.3700 -0.4584  0.1089
    62IDT   C45 9206  -0.461  -0.408   5.636 -0.1343 -0.2967 -0.1535
    62IDT   C46 9207  -0.401  -0.393   5.514  0.1094 -0.1941 -0.0205
    82BTZ   C47 9208  -0.562  -0.512   5.675 -0.2932 -0.3402 -0.1573
    82BTZ   C48 9209  -0.568  -0.554   5.805 -0.2282 -0.2191 -0.1152
    82BTZ   C49 9210  -0.683  -0.624   5.857 -0.1962 -0.1836  0.0038
    82BTZ   C50 9211  -0.792  -0.652   5.779 -0.2293 -0.2692  0.0804
    82BTZ   C51 9212  -0.673  -0.539   5.589 -0.3302 -0.4332 -0.0803
    82BTZ   C52 9213  -0.790  -0.611   5.641 -0.2978 -0.3972  0.0405
    92RH    C53 9214  -0.915  -0.731   5.828 -0.1455  0.5168  0.0180
    82BTZ    N4 9215  -0.679  -0.504   5.460 -0.3936 -0.5541 -0.1113
    82BTZ    N5 9216  -0.890  -0.632   5.555 -0.3352 -0.4890  0.1070
    82BTZ    S6 9217  -0.838  -0.561   5.400 -0.4154 -0.6281  0.0157
    92RH    C54 9218  -0.936  -0.785   5.949 -0.3543  0.5078 -0.0219
    92RH     S7 9219  -0.836  -0.758   6.100 -0.4079  0.2191  0.0652
    92RH    C55 9220  -1.048  -0.878   5.978 -0.5820  0.7391 -0.1476
    92RH     O2 9221  -1.133  -0.916   5.897 -0.6061  0.9642 -0.2291
    92RH     N6 9222  -1.046  -0.919   6.113 -0.7738  0.6736 -0.1647
    92RH    C56 9223  -0.947  -0.871   6.195 -0.7277  0.4179 -0.0682
    92RH    C57 9224  -1.147  -1.014   6.160 -0.0453 -0.7883 -0.8942
    92RH    C58 9225  -1.090  -1.151   6.127  0.2259  1.0725 -0.2942
    92RH     S8 9226  -0.922  -0.904   6.359 -0.9236  0.2897 -0.0644
    72IDQ   C59 9227  -0.332  -0.148   5.184 -0.2440  0.5063 -0.6056
    72IDQ   C60 9228  -0.492  -0.199   5.186 -0.4466  0.3873 -0.7950
    72IDQ   C61 9229  -0.557  -0.307   5.097  0.7286 -0.2676 -1.3904
    72IDQ   C62 9230  -0.456  -0.369   5.000 -1.0481  1.4288  0.4574
    72IDQ   C63 9231  -0.482  -0.336   4.855  0.5149 -0.5061  0.8103
    72IDQ   C64 9232  -0.373  -0.369   4.751 -1.1790  0.6982  0.1703
    72IDQ   C65 9233  -0.317  -0.502   4.737 -0.4343 -0.8934 -0.2601
    72IDQ   C66 9234  -0.181  -0.414   5.190 -0.5192  0.0798  0.2518
    72IDQ   C67 9235  -0.130  -0.517   5.096  0.7214  0.2766 -0.9340
    72IDQ   C68 9236  -0.025  -0.442   5.001 -0.8477  0.3358  0.3515
    72IDQ   C69 9237   0.027  -0.528   4.896 -0.3818 -0.4281  0.5381
    72IDQ   C70 9238   0.077  -0.434   4.784 -1.8392  0.0622  1.3190
    72IDQ   C71 9239  -0.009  -0.446   4.665  0.2794  0.0036 -0.6824
    72IDQ   C72 9240   0.026  -0.331   4.569  0.2867  0.4632 -0.8668
    11RH     C1 9241   6.482   3.492   3.586 -0.0374  0.2666  0.5714
    11RH     C2 9242   6.562   3.616   3.602  0.1330  0.2013  0.2142
    11RH     N1 9243   6.382   3.508   3.488 -0.0962  0.1616  0.6139
    11RH     S1 9244   6.502   3.745   3.486  0.2052  0.0064 -0.0425
    11RH     C3 9245   6.372   3.629   3.423  0.0064  0.0203  0.3343
    11RH     C4 9246   6.303   3.391   3.446  1.2007 -1.0425 -0.7437
    11RH     S2 9247   6.263   3.674   3.302 -0.0336 -0.1242  0.3166
    11RH     O1 9248   6.497   3.387   3.650 -0.1209  0.3963  0.8082
    11RH     C5 9249   6.664   3.627   3.688  0.2174  0.2773  0.1060
    21BTZ    C6 9250   6.738   3.742   3.739 -0.1676  0.1029 -0.3272
    21BTZ    C7 9251   6.708   3.868   3.695 -0.2782  0.1074 -0.2383
    21BTZ    C8 9252   6.840   3.725   3.838 -0.0918  0.1147 -0.4034
    21BTZ    C9 9253   6.777   3.984   3.747 -0.3195  0.1237 -0.2197
    21BTZ   C10 9254   6.875   3.973   3.842 -0.2504  0.1354 -0.2901
    21BTZ   C11 9255   6.910   3.842   3.890 -0.1338  0.1311 -0.3846
    21BTZ    N2 9256   6.878   3.607   3.888  0.0176  0.1115 -0.4929
    21BTZ    N3 9257   7.004   3.819   3.982 -0.0582  0.1413 -0.4591
    21BTZ    S3 9258   7.007   3.642   4.006  0.0730  0.1299 -0.5582
    31IDT   C12 9259   6.946   4.100   3.877  0.1486  0.0116  0.0925
    31IDT   C13 9260   6.979   4.147   4.001  0.8526 -0.1106 -0.0422
    31IDT   C14 9261   7.029   4.280   3.999  0.6590 -0.0393 -0.1777
    31IDT   C15 9262   7.036   4.336   3.873 -0.1925  0.1373 -0.1474
    31IDT    S4 9263   6.977   4.222   3.746 -0.8207  0.2277  0.0570
    4IDB    C16 9264   7.103   4.468   3.880 -0.6502  0.7899 -1.1902
    4IDB    C17 9265   7.133   4.508   4.013 -0.6791  0.0691 -0.9613
    51IDQ   C18 9266   7.095   4.377   4.105 -0.3215 -0.8673 -0.2797
    4IDB    C19 9267   7.186   4.634   4.039 -0.3139 -0.2156 -0.3078
    51IDQ   C20 9268   7.241   4.349   4.151 -1.4020 -0.8778 -0.5716
    51IDQ   C21 9269   6.996   4.383   4.220  0.5463  0.2130 -0.0679
    51IDQ   C22 9270   6.901   4.505   4.237  0.3871  1.6361 -1.3895
    51IDQ   C23 9271   7.276   4.197   4.149 -1.0969 -0.6100  0.6578
    51IDQ   C24 9272   6.821   4.564   4.107 -0.5353 -0.2589  0.5130
    51IDQ   C25 9273   6.793   4.718   4.097 -1.2426 -1.3754 -0.9139
    51IDQ   C26 9274   6.753   4.776   3.963 -1.1038 -0.8913 -0.9660
    51IDQ   C27 9275   6.629   4.729   3.890 -0.6972 -0.4409  0.2046
    51IDQ   C28 9276   6.507   4.785   3.978 -0.0973 -0.9547 -0.3952
    51IDQ   C29 9277   6.427   4.687   4.063 -0.6255  0.8310  0.0156
    51IDQ   C30 9278   7.346   4.141   4.023  0.4528  0.3713  0.3325
    51IDQ   C31 9279   7.277   4.028   3.939  0.3065 -0.9294 -0.2630
    51IDQ   C32 9280   7.321   4.005   3.793 -0.4829 -0.0882  0.7009
    51IDQ   C33 9281   7.266   3.875   3.728 -0.2323  0.9896  0.3538
    51IDQ   C34 9282   7.304   3.874   3.591 -0.7070  0.7912  0.2586
    51IDQ   C35 9283   7.239   3.757   3.505  0.5390 -0.7139  0.4941
    4IDB    C36 9284   7.125   4.554   3.771 -0.2532  1.2324 -0.7633
    4IDB    C37 9285   7.180   4.682   3.800  0.1167  0.9317 -0.0969
    11RH    C38 9286   6.351   3.284   3.340 -0.6454  0.8588  0.5119
    4IDB    C39 9287   7.209   4.720   3.931  0.0832  0.2268  0.1190
    62IDT   C40 9288   7.233   4.862   3.934  1.3554 -0.4464  0.2467
    72IDQ   C41 9289   7.203   4.804   3.714  0.8048 -0.6699 -0.2910
    62IDT   C42 9290   7.229   4.911   3.805  1.6756 -1.0710 -0.0035
    72IDQ   C43 9291   7.084   4.816   3.619 -0.1897  0.4064  1.1004
    72IDQ   C44 9292   7.316   4.809   3.604 -0.6301  0.0770  0.7324
    62IDT    S5 9293   7.226   4.994   4.056  0.5128  0.1204 -0.3997
    62IDT   C45 9294   7.219   5.114   3.919  0.6444 -0.5495 -1.0031
    62IDT   C46 9295   7.221   5.054   3.797  1.2741 -1.1301 -0.7101
    82BTZ   C47 9296   7.225   5.261   3.961 -0.5506  0.2500 -0.2569
    82BTZ   C48 9297   7.116   5.344   3.949 -0.4128  0.4172 -0.3531
    82BTZ   C49 9298   7.117   5.478   4.001 -0.2187  0.4480 -0.4351
    82BTZ   C50 9299   7.227   5.529   4.066 -0.1629  0.3117 -0.4211
    82BTZ   C51 9300   7.342   5.310   4.027 -0.4992  0.1030 -0.2387
    82BTZ   C52 9301   7.343   5.446   4.081 -0.3020  0.1342 -0.3221
    92RH    C53 9302   7.227   5.659   4.134 -0.0601 -0.1520  0.5542
    82BTZ    N4 9303   7.454   5.239   4.045 -0.6206 -0.0660 -0.1481
    82BTZ    N5 9304   7.456   5.485   4.142 -0.2649 -0.0095 -0.2987
    82BTZ    S6 9305   7.567   5.346   4.133 -0.4851 -0.1950 -0.1667
    92RH    C54 9306   7.140   5.761   4.138  0.0449 -0.0560  0.3979
    92RH     S7 9307   6.978   5.770   4.050 -0.0584 -0.1288  0.5803
    92RH    C55 9308   7.162   5.885   4.216  0.2689  0.1297  0.0410
    92RH     O2 9309   7.261   5.909   4.286  0.3837  0.2172 -0.1523
    92RH     N6 9310   7.054   5.975   4.201  0.3396  0.1983 -0.0581
    92RH    C56 9311   6.948   5.938   4.121  0.1993  0.0901  0.1762
    92RH    C57 9312   7.056   6.105   4.266  0.7909 -0.3007 -0.5939
    92RH    C58 9313   7.120   6.207   4.164  0.9061 -0.8783  0.5274
    92RH     S8 9314   6.808   6.026   4.087  0.2432  0.1397  0.1233
    72IDQ   C59 9315   7.407   4.705   3.550 -0.8912 -0.8072 -1.0737
    72IDQ   C60 9316   7.561   4.746   3.564 -0.6261  0.7992 -0.1643
    72IDQ   C61 9317   7.625   4.732   3.708 -1.1332  0.1994 -0.0517
    72IDQ   C62 9318   7.639   4.608   3.807 -0.2015  0.1662  0.3327
    72IDQ   C63 9319   7.721   4.488   3.765 -0.1244  0.8906 -1.4137
    72IDQ   C64 9320   7.680   4.418   3.636  0.1682  2.2725  0.0886
    72IDQ   C65 9321   7.552   4.352   3.611  0.0069 -0.4338  0.1025
    72IDQ   C66 9322   7.056   4.851   3.469 -0.3244  0.7170 -1.0033
    72IDQ   C67 9323   7.047   5.000   3.432 -0.5435  0.1785 -0.8522
    72IDQ   C68 9324   6.947   5.068   3.525 -1.5789 -0.9184  0.5902
    72IDQ   C69 9325   6.816   5.027   3.485  1.1540 -0.9149  0.5071
    72IDQ   C70 9326   6.722   5.089   3.574  0.8034 -0.1673  0.0496
    72IDQ   C71 9327   6.590   5.171   3.533 -0.0910  0.1586 -0.0972
    72IDQ   C72 9328   6.483   5.085   3.477 -0.9599  0.8431 -0.9955
    11RH     C1 9329   4.815   2.573   3.616 -0.0894 -0.1808  0.4432
    11RH     C2 9330   4.890   2.448   3.647  0.0093 -0.1298  0.4110
    11RH     N1 9331   4.683   2.567   3.664 -0.1670 -0.4076  0.2047
    11RH     S1 9332   4.781   2.332   3.738 -0.0068 -0.3831  0.0692
    11RH     C3 9333   4.642   2.453   3.730 -0.1426 -0.5442 -0.0145
    11RH     C4 9334   4.601   2.688   3.668  0.0432 -0.8392 -0.4325
    11RH     S2 9335   4.491   2.421   3.797 -0.2203 -0.8184 -0.3202
    11RH     O1 9336   4.861   2.671   3.555 -0.1037 -0.0453  0.6510
    11RH     C5 9337   5.018   2.428   3.612  0.0949  0.0727  0.6067
    21BTZ    C6 9338   5.121   2.330   3.652  0.0266  0.2665  0.5020
    21BTZ    C7 9339   5.094   2.223   3.733 -0.0384  0.2496  0.4582
    21BTZ    C8 9340   5.256   2.352   3.609  0.0057  0.0817  0.3401
    21BTZ    C9 9341   5.197   2.133   3.776 -0.1266  0.0520  0.2546
    21BTZ   C10 9342   5.328   2.149   3.737 -0.1500 -0.1288  0.0953
    21BTZ   C11 9343   5.361   2.260   3.653 -0.0844 -0.1192  0.1334
    21BTZ    N2 9344   5.294   2.453   3.530  0.0627  0.0781  0.3638
    21BTZ    N3 9345   5.484   2.287   3.609 -0.0992 -0.2843 -0.0092
    21BTZ    S3 9346   5.471   2.434   3.508  0.0033 -0.1880  0.1174
    31IDT   C12 9347   5.420   2.034   3.773 -0.4057 -0.4568 -0.0507
    31IDT   C13 9348   5.538   1.992   3.716 -0.6845 -0.4001 -0.6793
    31IDT   C14 9349   5.606   1.895   3.796  0.0076 -0.0405 -0.8303
    31IDT   C15 9350   5.542   1.863   3.913  0.8170  0.1789 -0.3194
    31IDT    S4 9351   5.388   1.954   3.932  0.7648 -0.0552  0.3991
    4IDB    C16 9352   5.606   1.755   3.978  0.3114  0.9108  0.1277
    4IDB    C17 9353   5.730   1.730   3.913 -0.1426 -0.1266 -0.3572
    51IDQ   C18 9354   5.737   1.796   3.781  1.9705 -0.0848 -0.6466
    4IDB    C19 9355   5.828   1.652   3.973 -0.1513 -0.0834 -0.2890
    51IDQ   C20 9356   5.865   1.856   3.760  0.2346  0.2052 -0.4858
    51IDQ   C21 9357   5.694   1.727   3.643  0.6157  0.7256  0.3289
    51IDQ   C22 9358   5.635   1.586   3.638  0.6684  0.4792 -0.5871
    51IDQ   C23 9359   5.912   2.001   3.747  1.2343 -0.1862 -0.8375
    51IDQ   C24 9360   5.513   1.577   3.732 -0.5348  1.8395 -0.0811
    51IDQ   C25 9361   5.478   1.433   3.780  0.3361  0.3048 -0.0829
    51IDQ   C26 9362   5.393   1.335   3.684 -0.8790 -1.2154  0.2609
    51IDQ   C27 9363   5.335   1.222   3.755  0.1208  1.7736 -1.0795
    51IDQ   C28 9364   5.224   1.146   3.681 -0.1855  0.2586 -0.7697
    51IDQ   C29 9365   5.108   1.080   3.751 -0.3054 -0.3165  0.6767
    51IDQ   C30 9366   6.053   2.034   3.724  0.8834  0.3461 -0.0003
    51IDQ   C31 9367   6.090   1.964   3.597  0.3040 -0.6506  0.0073
    51IDQ   C32 9368   6.216   1.864   3.591 -0.4889  0.6277 -0.7196
    51IDQ   C33 9369   6.327   1.896   3.489  0.4317 -0.5687  0.3909
    51IDQ   C34 9370   6.288   1.880   3.349  0.8202  0.6056 -0.0533
    51IDQ   C35 9371   6.314   1.745   3.292 -0.3763  0.0385  0.4707
    4IDB    C36 9372   5.579   1.703   4.105  0.7629  2.0040  0.6871
    4IDB    C37 9373   5.680   1.624   4.166  0.7470  2.0311  0.7486
    11RH    C38 9374   4.654   2.813   3.754  0.6773  0.5413  1.0037
    4IDB    C39 9375   5.801   1.600   4.101  0.3004  1.0098  0.2706
    62IDT   C40 9376   5.871   1.520   4.197  0.2091  0.3889  0.2115
    72IDQ   C41 9377   5.670   1.557   4.302  0.0721  0.6162 -0.3577
    62IDT   C42 9378   5.796   1.496   4.310  0.6385  0.7553  0.5770
    72IDQ   C43 9379   5.556   1.444   4.318 -1.5812 -0.6581  0.9765
    72IDQ   C44 9380   5.650   1.644   4.430 -0.8223 -0.5618  1.0147
    62IDT    S5 9381   6.033   1.443   4.207 -0.0178 -0.1929 -0.4701
    62IDT   C45 9382   5.988   1.380   4.371  0.5047  0.1047 -0.2122
    62IDT   C46 9383   5.862   1.417   4.409  0.8061  0.5952  0.3381
    82BTZ   C47 9384   6.069   1.267   4.424  0.5891  0.1474 -0.0100
    82BTZ   C48 9385   6.169   1.214   4.347  0.7200  0.1511  0.1585
    82BTZ   C49 9386   6.264   1.119   4.401  0.5867  0.0963  0.2975
    82BTZ   C50 9387   6.258   1.078   4.531  0.3228  0.0380  0.2676
    82BTZ   C51 9388   6.059   1.226   4.561  0.3121  0.0873 -0.0482
    82BTZ   C52 9389   6.155   1.130   4.615  0.1767  0.0317  0.0935
    92RH    C53 9390   6.352   0.966   4.583 -0.1685  0.0365  0.2613
    82BTZ    N4 9391   5.965   1.271   4.645  0.1628  0.0777 -0.2077
    82BTZ    N5 9392   6.139   1.097   4.744 -0.0813 -0.0227  0.0477
    82BTZ    S6 9393   5.997   1.190   4.802 -0.1637 -0.0045 -0.1829
    92RH    C54 9394   6.433   0.878   4.524 -0.1564  0.0564  0.2484
    92RH     S7 9395   6.485   0.877   4.348 -0.0562  0.1623  0.2775
    92RH    C55 9396   6.495   0.763   4.595 -0.2251 -0.0069  0.2067
    92RH     O2 9397   6.479   0.736   4.715 -0.3002 -0.0842  0.1791
    92RH     N6 9398   6.576   0.687   4.508 -0.1947  0.0315  0.2008
    92RH    C56 9399   6.586   0.726   4.377 -0.1097  0.1179  0.2334
    92RH    C57 9400   6.651   0.556   4.549  1.5604 -0.2733 -0.4185
    92RH    C58 9401   6.585   0.421   4.536  0.2690  0.5319  0.4713
    92RH     S8 9402   6.676   0.653   4.254 -0.0577  0.1788  0.2348
    72IDQ   C59 9403   5.680   1.800   4.425 -0.7167  0.1357 -0.6563
    72IDQ   C60 9404   5.704   1.893   4.547 -1.0482  0.2170  0.8082
    72IDQ   C61 9405   5.795   1.791   4.637  0.1662 -0.7536 -0.6022
    72IDQ   C62 9406   5.873   1.849   4.755 -0.6871 -0.4781  1.0215
    72IDQ   C63 9407   5.789   1.892   4.877  0.1036  1.1116  0.7950
    72IDQ   C64 9408   5.679   1.809   4.941 -0.1851 -0.1919 -1.2633
    72IDQ   C65 9409   5.679   1.672   5.013  0.4881 -0.1602 -0.1602
    72IDQ   C66 9410   5.424   1.445   4.234 -0.4437  0.2287  0.1419
    72IDQ   C67 9411   5.310   1.533   4.298  1.5407  0.7646  0.5162
    72IDQ   C68 9412   5.223   1.501   4.182  1.7347  0.8814 -0.2565
    72IDQ   C69 9413   5.126   1.580   4.097 -1.0430  0.2479  0.6829
    72IDQ   C70 9414   5.146   1.726   4.078  0.4210 -0.4578  0.4022
    72IDQ   C71 9415   5.120   1.811   4.198 -0.1545 -0.9757  0.4521
    72IDQ   C72 9416   5.080   1.960   4.187  0.4633 -0.0822 -1.1973
    11RH     C1 9417   6.309   5.338   3.755  0.2406 -0.3493 -0.2348
    11RH     C2 9418   6.428   5.337   3.843  0.2027  0.0536 -0.1776
    11RH     N1 9419   6.310   5.449   3.668 -0.0153 -0.4296 -0.3403
    11RH     S1 9420   6.534   5.483   3.805 -0.1672  0.3008 -0.2665
    11RH     C3 9421   6.415   5.537   3.675 -0.2537 -0.1400 -0.3746
    11RH     C4 9422   6.184   5.490   3.606 -1.8753  0.5903  0.3347
    11RH     S2 9423   6.440   5.676   3.583 -0.5825 -0.1600 -0.4953
    11RH     O1 9424   6.218   5.253   3.756  0.4661 -0.5920 -0.1966
    11RH     C5 9425   6.452   5.243   3.935  0.4120  0.2026 -0.0767
    21BTZ    C6 9426   6.570   5.190   3.998  0.0824  0.4942  0.1441
    21BTZ    C7 9427   6.697   5.228   3.960  0.0722  0.5805  0.1968
    21BTZ    C8 9428   6.554   5.114   4.118  0.1132  0.2227 -0.0222
    21BTZ    C9 9429   6.813   5.193   4.038  0.0923  0.4063  0.0896
    21BTZ   C10 9430   6.802   5.121   4.154  0.1220  0.1452 -0.0699
    21BTZ   C11 9431   6.672   5.079   4.198  0.1338  0.0455 -0.1311
    21BTZ    N2 9432   6.437   5.072   4.165  0.1259  0.1149 -0.0875
    21BTZ    N3 9433   6.649   5.008   4.309  0.1626 -0.2048 -0.2842
    21BTZ    S3 9434   6.472   4.983   4.316  0.1648 -0.2241 -0.2959
    31IDT   C12 9435   6.917   5.133   4.245  0.7365 -0.0259 -0.1438
    31IDT   C13 9436   6.963   5.248   4.304  0.0336 -0.0486  0.4575
    31IDT   C14 9437   7.034   5.224   4.425 -0.6857 -0.1626  0.8633
    31IDT   C15 9438   7.043   5.091   4.460 -0.5370 -0.2278  0.5751
    31IDT    S4 9439   6.962   4.985   4.340  0.5360 -0.1488 -0.2404
    4IDB    C16 9440   7.101   5.084   4.592 -0.1053 -1.0156  0.6782
    4IDB    C17 9441   7.141   5.213   4.638 -0.6604 -0.8032  0.5739
    51IDQ   C18 9442   7.125   5.306   4.515  0.5269 -0.4221  0.1600
    4IDB    C19 9443   7.183   5.232   4.769 -0.5336 -0.5580  0.4982
    51IDQ   C20 9444   7.063   5.449   4.568 -1.0395  0.8861  1.8868
    51IDQ   C21 9445   7.256   5.341   4.421 -0.3998  0.2244  0.7809
    51IDQ   C22 9446   7.411   5.308   4.428  0.8692  0.3295 -1.2179
    51IDQ   C23 9447   6.912   5.459   4.564 -0.2802 -0.0134  0.3147
    51IDQ   C24 9448   7.450   5.173   4.490  0.4453  0.1150  0.5132
    51IDQ   C25 9449   7.415   5.050   4.407 -0.0759 -0.5905  0.9296
    51IDQ   C26 9450   7.502   5.002   4.296 -0.5383 -1.6721  0.2980
    51IDQ   C27 9451   7.547   4.852   4.316 -2.1125  0.0655 -0.4731
    51IDQ   C28 9452   7.609   4.799   4.181  0.2939  0.8360 -0.1004
    51IDQ   C29 9453   7.595   4.654   4.176  0.5088 -0.8682 -0.3344
    51IDQ   C30 9454   6.847   5.586   4.502 -0.7875 -0.4048 -0.6695
    51IDQ   C31 9455   6.692   5.571   4.492  0.1642 -1.0389 -0.2992
    51IDQ   C32 9456   6.616   5.674   4.406 -1.9286 -0.3363  0.4915
    51IDQ   C33 9457   6.665   5.824   4.407 -0.0277  1.2853  0.2953
    51IDQ   C34 9458   6.594   5.883   4.534  0.1675  0.0443  0.0309
    51IDQ   C35 9459   6.653   6.003   4.613 -0.2599  2.4017  0.3206
    4IDB    C36 9460   7.103   4.972   4.677  0.5842 -0.9837  0.7074
    4IDB    C37 9461   7.147   4.994   4.811  0.7038 -0.7319  0.6292
    11RH    C38 9462   6.101   5.597   3.668 -0.4726  0.6159 -0.7952
    4IDB    C39 9463   7.186   5.120   4.854  0.1558 -0.5262  0.5276
    62IDT   C40 9464   7.256   5.112   4.983  0.6100 -0.2378 -1.1054
    72IDQ   C41 9465   7.173   4.901   4.931 -0.6852  1.4089  0.6150
    62IDT   C42 9466   7.255   4.984   5.034  0.6651 -0.2542 -1.1454
    72IDQ   C43 9467   7.276   4.776   4.907 -0.1126 -1.1628  1.0650
    72IDQ   C44 9468   7.072   4.876   5.039 -0.0628  0.4663 -0.4218
    62IDT    S5 9469   7.364   5.221   5.077  0.2348 -0.1156 -0.8125
    62IDT   C45 9470   7.405   5.081   5.185  0.1692 -0.0915 -0.7568
    62IDT   C46 9471   7.339   4.966   5.148  0.4160 -0.1717 -0.9484
    82BTZ   C47 9472   7.495   5.083   5.302  0.0391 -0.1500 -0.1776
    82BTZ   C48 9473   7.587   5.184   5.310 -0.0724 -0.0558 -0.0796
    82BTZ   C49 9474   7.666   5.206   5.428 -0.0727 -0.1032 -0.0710
    82BTZ   C50 9475   7.654   5.126   5.539  0.0386 -0.2449 -0.1606
    82BTZ   C51 9476   7.478   4.997   5.415  0.1582 -0.2995 -0.2735
    82BTZ   C52 9477   7.559   5.018   5.536  0.1580 -0.3476 -0.2646
    92RH    C53 9478   7.709   5.144   5.671 -0.1647  0.1955  0.8097
    82BTZ    N4 9479   7.392   4.895   5.420  0.2730 -0.4010 -0.3734
    82BTZ    N5 9480   7.537   4.934   5.637  0.2726 -0.4883 -0.3574
    82BTZ    S6 9481   7.410   4.821   5.581  0.3881 -0.5666 -0.4620
    92RH    C54 9482   7.778   5.252   5.709 -0.0686  0.2077  0.6022
    92RH     S7 9483   7.834   5.391   5.602  0.1924 -0.1236  0.3055
    92RH    C55 9484   7.822   5.276   5.848 -0.1631  0.5028  0.5815
    92RH     O2 9485   7.800   5.201   5.945 -0.3386  0.7679  0.7503
    92RH     N6 9486   7.893   5.398   5.860 -0.0274  0.4470  0.3423
    92RH    C56 9487   7.912   5.474   5.747  0.1642  0.1438  0.1686
    92RH    C57 9488   7.922   5.458   5.993 -1.1518  0.4147  0.4588
    92RH    C58 9489   7.817   5.513   6.089 -0.1654 -0.3299  1.5251
    92RH     S8 9490   7.992   5.621   5.734  0.3531  0.0150 -0.1278
    72IDQ   C59 9491   6.954   4.768   5.007  0.1439 -0.2051 -0.1275
    72IDQ   C60 9492   6.854   4.709   5.095  0.5221  0.0371  0.5539
    72IDQ   C61 9493   6.811   4.576   5.040  0.1506  0.2538 -0.1895
    72IDQ   C62 9494   6.752   4.475   5.132 -0.3369  0.2429  0.0736
    72IDQ   C63 9495   6.637   4.394   5.072 -0.2702  0.2352  0.2454
    72IDQ   C64 9496   6.621   4.255   5.143  0.2875  0.7306  0.0072
    72IDQ   C65 9497   6.595   4.126   5.065  0.9168  1.1617 -0.7002
    72IDQ   C66 9498   7.284   4.685   4.776 -0.1291 -1.6901  0.5703
    72IDQ   C67 9499   7.161   4.607   4.743 -0.5671 -0.9287 -0.0753
    72IDQ   C68 9500   7.118   4.482   4.813  0.7998 -0.7048 -0.4092
    72IDQ   C69 9501   7.112   4.356   4.736 -1.0204 -0.9264  0.0713
    72IDQ   C70 9502   7.171   4.258   4.827 -1.7764  0.8755 -0.0391
    72IDQ   C71 9503   7.173   4.128   4.755  0.9215  0.1144  0.3448
    72IDQ   C72 9504   7.159   3.992   4.838 -0.0264 -0.9674  0.6637
    11RH     C1 9505   5.198   2.971   3.870  0.3996 -0.2722  0.1966
    11RH     C2 9506   5.114   2.995   3.750  0.0439 -0.0907  0.4785
    11RH     N1 9507   5.318   2.905   3.837  0.2266 -0.3730 -0.2357
    11RH     S1 9508   5.199   2.929   3.601 -0.4952 -0.0644  0.1570
    11RH     C3 9509   5.341   2.873   3.705 -0.2244 -0.2946 -0.3347
    11RH     C4 9510   5.417   2.881   3.939 -0.2901 -0.0985 -2.0501
    11RH     S2 9511   5.475   2.794   3.639 -0.5119 -0.3848 -0.8211
    11RH     O1 9512   5.168   3.004   3.986  0.8011 -0.3315  0.3160
    11RH     C5 9513   4.995   3.056   3.754  0.1186  0.0316  0.9026
    21BTZ    C6 9514   4.889   3.070   3.647  0.7499  0.2352 -0.7290
    21BTZ    C7 9515   4.890   2.990   3.536  0.6461  0.2640 -0.7508
    21BTZ    C8 9516   4.794   3.177   3.654  0.4227 -0.0753 -0.3921
    21BTZ    C9 9517   4.798   3.011   3.427  0.2189 -0.0086 -0.4450
    21BTZ   C10 9518   4.705   3.111   3.429 -0.1039 -0.3097 -0.1178
    21BTZ   C11 9519   4.700   3.198   3.543 -0.0117 -0.3525 -0.0813
    21BTZ    N2 9520   4.783   3.262   3.757  0.4845 -0.1339 -0.3371
    21BTZ    N3 9521   4.615   3.300   3.557 -0.2990 -0.6338  0.2234
    21BTZ    S3 9522   4.651   3.374   3.715 -0.0212 -0.5547  0.1237
    31IDT   C12 9523   4.595   3.109   3.335  0.2698  0.4445 -0.3001
    31IDT   C13 9524   4.545   3.007   3.259  0.0322  0.4046 -0.0908
    31IDT   C14 9525   4.448   3.051   3.163 -0.3617  0.3359  0.2754
    31IDT   C15 9526   4.423   3.187   3.166 -0.4268  0.3228  0.3475
    31IDT    S4 9527   4.522   3.270   3.291  0.0095  0.3972 -0.0462
    4IDB    C16 9528   4.336   3.225   3.059  0.0670  0.7313 -0.3886
    4IDB    C17 9529   4.313   3.111   2.976 -0.6347  0.4923  0.1158
    51IDQ   C18 9530   4.355   2.982   3.061  0.0618  0.9761 -0.1403
    4IDB    C19 9531   4.234   3.120   2.862 -1.0549  0.3281  0.3928
    51IDQ   C20 9532   4.232   2.895   3.119  1.1452 -0.5349  0.8530
    51IDQ   C21 9533   4.446   2.874   3.006 -1.6645 -0.3562  0.5894
    51IDQ   C22 9534   4.474   2.857   2.855  0.9370 -0.8688  0.6670
    51IDQ   C23 9535   4.196   2.882   3.270 -0.4608 -0.3846  1.1048
    51IDQ   C24 9536   4.574   2.937   2.778  0.7179 -0.4625 -0.7418
    51IDQ   C25 9537   4.726   2.896   2.775  0.2911  0.4468 -1.0941
    51IDQ   C26 9538   4.822   2.962   2.683 -0.6330  1.0764 -1.4746
    51IDQ   C27 9539   4.781   3.012   2.542 -0.0714  0.1111 -1.4112
    51IDQ   C28 9540   4.706   3.148   2.534 -0.0058  0.8988  1.2402
    51IDQ   C29 9541   4.692   3.188   2.396  0.1425 -0.8875 -0.3278
    51IDQ   C30 9542   4.062   2.938   3.305  0.5773 -0.6357  0.0037
    51IDQ   C31 9543   4.106   3.063   3.397 -0.2371 -1.0325  0.3566
    51IDQ   C32 9544   4.054   3.067   3.534 -0.1882  0.5347  0.0003
    51IDQ   C33 9545   4.028   3.192   3.628  0.9714 -0.1088  0.1423
    51IDQ   C34 9546   3.910   3.286   3.587 -0.4433  0.0291  0.3488
    51IDQ   C35 9547   3.932   3.425   3.646 -1.1632  0.9361 -0.2692
    4IDB    C36 9548   4.278   3.349   3.029  0.3533  0.8079 -0.6201
    4IDB    C37 9549   4.198   3.357   2.912 -0.0842  0.6377 -0.3314
    11RH    C38 9550   5.395   2.746   4.000 -0.6668 -0.3412  0.5409
    4IDB    C39 9551   4.177   3.245   2.832 -0.7684  0.4047  0.1614
    62IDT   C40 9552   4.091   3.286   2.725  0.0879  0.4579  0.1779
    72IDQ   C41 9553   4.096   3.467   2.865 -0.4110  0.4639 -0.5097
    62IDT   C42 9554   4.023   3.402   2.754 -0.2449  0.3221 -0.0498
    72IDQ   C43 9555   4.160   3.596   2.821  0.9589  1.0000  0.4015
    72IDQ   C44 9556   4.005   3.493   2.996 -0.0174  1.3912  1.1770
    62IDT    S5 9557   4.027   3.205   2.578  0.2952 -0.0297  0.3511
    62IDT   C45 9558   3.906   3.340   2.562 -0.0980 -0.4097  0.0938
    62IDT   C46 9559   3.918   3.433   2.662 -0.3506 -0.1686 -0.0979
    82BTZ   C47 9560   3.827   3.359   2.438  0.3801  0.4539  0.2538
    82BTZ   C48 9561   3.890   3.335   2.319  0.5492  0.5373  0.3263
    82BTZ   C49 9562   3.826   3.361   2.193  0.6157  0.3384  0.2513
    82BTZ   C50 9563   3.698   3.411   2.186  0.5129  0.0564  0.1041
    82BTZ   C51 9564   3.694   3.411   2.436  0.2671  0.1608  0.0995
    82BTZ   C52 9565   3.628   3.438   2.308  0.3346 -0.0414  0.0234
    92RH    C53 9566   3.634   3.456   2.060 -0.4388 -0.1976 -0.1983
    82BTZ    N4 9567   3.622   3.439   2.545  0.1000  0.0540  0.0170
    82BTZ    N5 9568   3.504   3.486   2.314  0.2218 -0.3107 -0.1203
    82BTZ    S6 9569   3.464   3.501   2.488  0.0203 -0.3173 -0.1651
    92RH    C54 9570   3.677   3.470   1.934 -0.3300 -0.2898 -0.1718
    92RH     S7 9571   3.850   3.461   1.875 -0.2598 -0.1549  0.0116
    92RH    C55 9572   3.586   3.497   1.819 -0.2468 -0.5233 -0.2919
    92RH     O2 9573   3.463   3.509   1.826 -0.2676 -0.6588 -0.4282
    92RH     N6 9574   3.658   3.507   1.698 -0.1382 -0.5762 -0.2322
    92RH    C56 9575   3.795   3.492   1.702 -0.1240 -0.4138 -0.0790
    92RH    C57 9576   3.601   3.542   1.565  1.3258  1.0837  0.8834
    92RH    C58 9577   3.563   3.685   1.529 -0.8913  0.5022 -0.2015
    92RH     S8 9578   3.903   3.500   1.573 -0.0042 -0.4337  0.0197
    72IDQ   C59 9579   3.928   3.392   3.087  0.9784  0.7181 -1.7270
    72IDQ   C60 9580   3.831   3.454   3.187 -1.7857 -0.1248 -0.0914
    72IDQ   C61 9581   3.693   3.536   3.137 -0.2708  0.0039  0.5299
    72IDQ   C62 9582   3.569   3.466   3.106 -0.4216 -0.7505  1.1229
    72IDQ   C63 9583   3.514   3.460   2.959  1.6442 -0.3072 -1.6154
    72IDQ   C64 9584   3.412   3.344   2.933  0.5762 -0.8934  0.4686
    72IDQ   C65 9585   3.398   3.335   2.785 -0.7307 -0.4667 -0.3865
    72IDQ   C66 9586   4.308   3.626   2.804  0.2373  0.6523  0.1502
    72IDQ   C67 9587   4.348   3.770   2.829 -1.0368 -0.0797 -1.2177
    72IDQ   C68 9588   4.337   3.833   2.975  0.0148 -0.4247  0.6248
    72IDQ   C69 9589   4.441   3.789   3.082  0.0580  0.4304 -0.6945
    72IDQ   C70 9590   4.394   3.765   3.227 -0.9949  0.6670 -0.2557
    72IDQ   C71 9591   4.246   3.772   3.251 -0.6315  0.7842 -1.5022
    72IDQ   C72 9592   4.209   3.651   3.355 -0.6335 -0.3585  0.3080
    11RH     C1 9593   4.542   1.299   5.899  0.0200 -0.1243 -0.2992
    11RH     C2 9594   4.635   1.190   5.936 -0.0818 -0.1959 -0.2508
    11RH     N1 9595   4.413   1.248   5.869  0.0231 -0.0365 -0.4600
    11RH     S1 9596   4.549   1.029   5.929 -0.1673 -0.1428 -0.4191
    11RH     C3 9597   4.393   1.112   5.877 -0.0644 -0.0288 -0.5460
    11RH     C4 9598   4.302   1.356   5.880 -0.1562 -0.8491  0.9220
    11RH     S2 9599   4.250   1.027   5.847 -0.0811  0.0672 -0.7372
    11RH     O1 9600   4.569   1.420   5.894  0.0949 -0.1380 -0.2129
    11RH     C5 9601   4.763   1.211   5.969 -0.1048 -0.2848 -0.1051
    21BTZ    C6 9602   4.853   1.131   6.053 -0.1013  0.0850 -0.5191
    21BTZ    C7 9603   4.821   1.010   6.108 -0.2680  0.0821 -0.6227
    21BTZ    C8 9604   4.982   1.188   6.082 -0.0904 -0.0345 -0.3290
    21BTZ    C9 9605   4.913   0.938   6.193 -0.4323 -0.0375 -0.5457
    21BTZ   C10 9606   5.037   0.989   6.223 -0.4289 -0.1540 -0.3654
    21BTZ   C11 9607   5.075   1.115   6.168 -0.2570 -0.1561 -0.2511
    21BTZ    N2 9608   5.024   1.305   6.034  0.0639 -0.0442 -0.2146
    21BTZ    N3 9609   5.193   1.175   6.191 -0.2367 -0.2635 -0.0734
    21BTZ    S3 9610   5.189   1.329   6.100  0.0017 -0.2126  0.0027
    31IDT   C12 9611   5.110   0.903   6.315  0.5067 -0.5165 -0.3148
    31IDT   C13 9612   5.159   0.939   6.438  1.4467 -0.4539 -0.7021
    31IDT   C14 9613   5.197   0.827   6.518  1.4029 -0.4417 -0.6647
    31IDT   C15 9614   5.176   0.705   6.457  0.4322 -0.4947 -0.2503
    31IDT    S4 9615   5.107   0.722   6.292 -0.5110 -0.5649  0.1289
    4IDB    C16 9616   5.196   0.596   6.557  0.8283  0.6072 -0.0165
    4IDB    C17 9617   5.241   0.654   6.680  0.4141  0.2961  0.2828
    51IDQ   C18 9618   5.260   0.807   6.661 -0.6106  0.8012  1.5184
    4IDB    C19 9619   5.241   0.580   6.797 -0.2122  0.0718  0.1463
    51IDQ   C20 9620   5.220   0.887   6.782  0.6988 -0.5250 -0.6331
    51IDQ   C21 9621   5.398   0.859   6.650 -1.1691 -0.6829 -0.4228
    51IDQ   C22 9622   5.525   0.761   6.651 -0.1636  0.6025  1.2733
    51IDQ   C23 9623   5.078   0.958   6.783  0.5873 -0.4124 -0.1861
    51IDQ   C24 9624   5.641   0.793   6.734 -0.3271  0.2048  0.1457
    51IDQ   C25 9625   5.730   0.914   6.699  0.9798  1.2049  0.3949
    51IDQ   C26 9626   5.778   0.945   6.549  0.2119  0.6386  1.1768
    51IDQ   C27 9627   5.877   1.050   6.513 -0.5951 -1.1581 -0.2453
    51IDQ   C28 9628   5.841   1.205   6.541 -0.0314 -0.0295 -0.5372
    51IDQ   C29 9629   5.915   1.263   6.660 -0.5986  1.1062 -0.8687
    51IDQ   C30 9630   4.999   0.920   6.912 -0.3813 -0.0268 -0.4611
    51IDQ   C31 9631   5.065   0.893   7.048 -0.5664 -0.4851  0.0152
    51IDQ   C32 9632   4.968   0.786   7.094 -0.1914 -0.8799 -0.3365
    51IDQ   C33 9633   4.976   0.730   7.238 -0.1901 -0.6933 -0.3056
    51IDQ   C34 9634   4.891   0.598   7.281 -0.6252  0.2846 -1.1763
    51IDQ   C35 9635   4.876   0.497   7.179 -0.0718  1.3052 -0.5697
    4IDB    C36 9636   5.151   0.464   6.551  0.6163  0.6960 -0.4573
    4IDB    C37 9637   5.152   0.390   6.673 -0.0253  0.4637 -0.5908
    11RH    C38 9638   4.234   1.371   6.016 -0.4445  0.6273  0.5812
    4IDB    C39 9639   5.196   0.447   6.792 -0.4238  0.1607 -0.2943
    62IDT   C40 9640   5.209   0.341   6.888  0.1745  0.3914 -0.3330
    72IDQ   C41 9641   5.123   0.238   6.692  0.2816  0.6165 -0.1657
    62IDT   C42 9642   5.147   0.226   6.843 -0.2158  0.6838 -0.5510
    72IDQ   C43 9643   5.219   0.138   6.618 -0.3503  1.2030  0.1889
    72IDQ   C44 9644   4.960   0.184   6.658 -0.8566 -0.8034  0.5390
    62IDT    S5 9645   5.258   0.327   7.060 -0.3591  0.0959 -0.2015
    62IDT   C45 9646   5.189   0.159   7.062 -1.1180  0.3981 -0.4611
    62IDT   C46 9647   5.136   0.123   6.941 -0.9468  0.6880 -0.6235
    82BTZ   C47 9648   5.215   0.067   7.182  0.1711 -0.1781  0.2306
    82BTZ   C48 9649   5.206   0.124   7.306  0.2792 -0.2139  0.2550
    82BTZ   C49 9650   5.232   0.048   7.426  0.1628 -0.3083  0.2207
    82BTZ   C50 9651   5.268  -0.085   7.421 -0.0618 -0.3667  0.1622
    82BTZ   C51 9652   5.252  -0.071   7.171 -0.0637 -0.2363  0.1696
    82BTZ   C52 9653   5.279  -0.148   7.293 -0.1824 -0.3321  0.1348
    92RH    C53 9654   5.294  -0.176   7.536  0.4296  0.6061 -0.0614
    82BTZ    N4 9655   5.264  -0.137   7.055 -0.1874 -0.2096  0.1409
    82BTZ    N5 9656   5.312  -0.276   7.275 -0.4010 -0.3827  0.0782
    82BTZ    S6 9657   5.311  -0.304   7.098 -0.4670 -0.3076  0.0667
    92RH    C54 9658   5.291  -0.152   7.668  0.1550  0.2778 -0.0072
    92RH     S7 9659   5.226  -0.001   7.750 -0.1559  0.0085  0.2437
    92RH    C55 9660   5.341  -0.247   7.770  0.0577  0.0765 -0.1478
    92RH     O2 9661   5.391  -0.359   7.746  0.2153  0.1845 -0.3286
    92RH     N6 9662   5.325  -0.196   7.901 -0.2433 -0.2624 -0.0504
    92RH    C56 9663   5.268  -0.072   7.916 -0.3989 -0.3572  0.1509
    92RH    C57 9664   5.374  -0.266   8.020 -0.5359  0.4217  0.1047
    92RH    C58 9665   5.299  -0.394   8.053  0.0661 -0.4686  0.3379
    92RH     S8 9666   5.238   0.011   8.059 -0.7567 -0.7420  0.3009
    72IDQ   C59 9667   4.842   0.280   6.665 -1.0310 -0.1432 -0.1886
    72IDQ   C60 9668   4.707   0.221   6.628 -0.1972 -0.8399  0.6537
    72IDQ   C61 9669   4.597   0.303   6.559 -0.7150  0.0670 -0.4831
    72IDQ   C62 9670   4.566   0.437   6.621  0.1327 -0.2662 -0.4544
    72IDQ   C63 9671   4.544   0.546   6.525  0.0173 -0.8328 -0.6523
    72IDQ   C64 9672   4.678   0.599   6.458  0.3217 -0.9170 -0.2014
    72IDQ   C65 9673   4.684   0.723   6.358  0.1213 -0.7971 -2.1995
    72IDQ   C66 9674   5.225  -0.011   6.657 -0.9380 -0.6619 -1.0871
    72IDQ   C67 9675   5.187  -0.104   6.541  1.1127  0.1394 -1.9228
    72IDQ   C68 9676   5.141  -0.253   6.593 -0.6801 -1.3122  1.1119
    72IDQ   C69 9677   5.112  -0.356   6.481  1.2346 -0.1626 -0.1859
    72IDQ   C70 9678   5.141  -0.511   6.467 -0.7286 -0.1220 -0.6617
    72IDQ   C71 9679   5.038  -0.599   6.533  0.6752 -1.0142  0.9140
    72IDQ   C72 9680   5.073  -0.755   6.503  0.2988 -0.1422  0.2009
    11RH     C1 9681   4.669   5.207   3.415 -0.2022  0.0215 -0.4183
    11RH     C2 9682   4.548   5.125   3.441 -0.0989 -0.0019 -0.0042
    11RH     N1 9683   4.777   5.166   3.495 -0.0478  0.3358 -0.4630
    11RH     S1 9684   4.584   5.000   3.570  0.1943  0.3920  0.2996
    11RH     C3 9685   4.758   5.061   3.583  0.1662  0.5679 -0.1351
    11RH     C4 9686   4.902   5.245   3.518  0.7891 -1.0050  0.5733
    11RH     S2 9687   4.870   4.993   3.689  0.3800  0.9582 -0.1087
    11RH     O1 9688   4.677   5.300   3.333 -0.3984 -0.2034 -0.6963
    11RH     C5 9689   4.431   5.144   3.378 -0.2089 -0.2732  0.1175
    21BTZ    C6 9690   4.297   5.098   3.407  0.0059  0.5834  0.3313
    21BTZ    C7 9691   4.267   5.029   3.521  0.3557  0.3366  0.2742
    21BTZ    C8 9692   4.211   5.083   3.293  0.0534  0.2847  0.3355
    21BTZ    C9 9693   4.152   4.941   3.529  0.7670 -0.2122  0.2189
    21BTZ   C10 9694   4.068   4.923   3.423  0.8283 -0.5137  0.2206
    21BTZ   C11 9695   4.095   4.994   3.301  0.4718 -0.2732  0.2792
    21BTZ    N2 9696   4.230   5.145   3.176 -0.2632  0.4807  0.3881
    21BTZ    N3 9697   4.020   4.984   3.191  0.4911 -0.5257  0.2867
    21BTZ    S3 9698   4.096   5.091   3.069 -0.0355 -0.0511  0.3677
    31IDT   C12 9699   3.947   4.833   3.434 -1.0898 -0.0418  0.8105
    31IDT   C13 9700   3.815   4.850   3.466 -1.1716 -0.9890  0.9909
    31IDT   C14 9701   3.743   4.726   3.472 -0.3747 -1.4734  0.6856
    31IDT   C15 9702   3.820   4.615   3.444  0.3184 -0.9003  0.2713
    31IDT    S4 9703   3.991   4.659   3.409  0.0125  0.3087  0.2356
    4IDB    C16 9704   3.754   4.495   3.464 -0.6035  0.4489 -0.8653
    4IDB    C17 9705   3.618   4.526   3.495 -0.6208  0.2367 -0.7278
    51IDQ   C18 9706   3.602   4.674   3.508 -0.8204 -1.3153 -0.4239
    4IDB    C19 9707   3.524   4.425   3.512 -0.4849  0.0962 -0.8110
    51IDQ   C20 9708   3.498   4.727   3.410  2.1065 -1.5477  0.7660
    51IDQ   C21 9709   3.557   4.729   3.647  0.2266  2.0865  0.3664
    51IDQ   C22 9710   3.561   4.649   3.783 -0.2316  0.8172  0.5205
    51IDQ   C23 9711   3.505   4.834   3.296  0.2729 -2.2938  0.3585
    51IDQ   C24 9712   3.620   4.741   3.874 -1.2439 -0.9912 -1.8078
    51IDQ   C25 9713   3.756   4.807   3.846 -0.6130 -1.2845 -0.2138
    51IDQ   C26 9714   3.889   4.753   3.909 -0.3976 -0.1489  0.7949
    51IDQ   C27 9715   3.920   4.626   3.839 -0.6643  0.2194 -1.2455
    51IDQ   C28 9716   4.063   4.637   3.827  1.3740  0.1117  1.0690
    51IDQ   C29 9717   4.107   4.519   3.750  0.6306  1.6287  0.1176
    51IDQ   C30 9718   3.378   4.882   3.230  1.0399 -0.7795 -0.7068
    51IDQ   C31 9719   3.357   4.952   3.106 -0.9832  0.0778  0.0226
    51IDQ   C32 9720   3.443   4.921   2.971 -0.5452  0.6381  2.0029
    51IDQ   C33 9721   3.576   4.995   2.942 -0.1577  0.2427 -0.8489
    51IDQ   C34 9722   3.639   4.986   2.810  2.3417  1.2300  0.2716
    51IDQ   C35 9723   3.562   5.093   2.722  0.1770 -1.9072 -1.4075
    4IDB    C36 9724   3.797   4.363   3.450 -0.4489  0.5217 -1.0883
    4IDB    C37 9725   3.700   4.261   3.468 -0.3116  0.3753 -1.1705
    11RH    C38 9726   5.000   5.205   3.407 -0.4080 -0.1206  0.5229
    4IDB    C39 9727   3.567   4.292   3.498 -0.3306  0.1690 -1.0342
    62IDT   C40 9728   3.479   4.175   3.483 -0.7065 -0.0373 -0.3069
    72IDQ   C41 9729   3.706   4.103   3.453  0.4497  0.1397 -2.0362
    62IDT   C42 9730   3.558   4.064   3.466 -0.6967  0.0713 -1.0197
    72IDQ   C43 9731   3.798   4.049   3.579  0.0520  0.8925 -0.9575
    72IDQ   C44 9732   3.775   4.067   3.307 -0.9065 -0.0350 -0.4765
    62IDT    S5 9733   3.304   4.135   3.473 -0.7205 -0.1162  0.2479
    62IDT   C45 9734   3.349   3.962   3.446 -0.7117  0.0076 -0.5523
    62IDT   C46 9735   3.485   3.943   3.446 -0.6994  0.0967 -1.1594
    82BTZ   C47 9736   3.243   3.857   3.444  0.0044  0.0084 -0.1279
    82BTZ   C48 9737   3.161   3.840   3.551 -0.1405  0.1681 -0.2136
    82BTZ   C49 9738   3.065   3.732   3.558 -0.3781  0.3694 -0.3253
    82BTZ   C50 9739   3.053   3.641   3.456 -0.4703  0.4107 -0.3516
    82BTZ   C51 9740   3.234   3.764   3.335 -0.0839  0.0440 -0.1512
    82BTZ   C52 9741   3.138   3.654   3.341 -0.3253  0.2487 -0.2649
    92RH    C53 9742   2.971   3.527   3.462 -0.0679 -0.1954 -0.6396
    82BTZ    N4 9743   3.310   3.771   3.224  0.0404 -0.0989 -0.0749
    82BTZ    N5 9744   3.135   3.572   3.236 -0.3951  0.2701 -0.2800
    82BTZ    S6 9745   3.259   3.633   3.122 -0.1500  0.0244 -0.1467
    92RH    C54 9746   2.898   3.463   3.554  0.1247 -0.0554 -0.3849
    92RH     S7 9747   2.898   3.491   3.735  0.0705  0.6354 -0.4899
    92RH    C55 9748   2.801   3.355   3.520  0.4209 -0.4545  0.0354
    92RH     O2 9749   2.778   3.312   3.406  0.5243 -0.9555  0.1988
    92RH     N6 9750   2.738   3.305   3.636  0.5770 -0.1949  0.2353
    92RH    C56 9751   2.771   3.359   3.758  0.4418  0.3638  0.0266
    92RH    C57 9752   2.621   3.220   3.633 -0.1284  0.0084  1.1154
    92RH    C58 9753   2.483   3.283   3.604  0.1068 -0.0413 -0.9102
    92RH     S8 9754   2.710   3.317   3.910  0.5789  0.7691  0.1936
    72IDQ   C59 9755   3.710   3.988   3.203  0.5405  0.1836  0.9961
    72IDQ   C60 9756   3.800   3.906   3.106 -0.8629 -0.4442 -0.3563
    72IDQ   C61 9757   3.927   3.986   3.051  1.2141 -0.9269  0.3495
    72IDQ   C62 9758   3.911   4.058   2.910  0.7814  0.2753 -1.1865
    72IDQ   C63 9759   3.891   3.942   2.806  0.4743  0.2829  0.7944
    72IDQ   C64 9760   3.748   3.886   2.801  1.1532 -0.9533  0.2091
    72IDQ   C65 9761   3.741   3.741   2.741  0.7666 -0.2650  0.9779
    72IDQ   C66 9762   3.822   3.889   3.590 -1.1749  1.3058 -0.7403
    72IDQ   C67 9763   3.925   3.822   3.651 -0.1003  0.4371 -0.1989
    72IDQ   C68 9764   3.988   3.870   3.790 -1.2246 -0.1570  1.1939
    72IDQ   C69 9765   4.081   3.786   3.880  0.0367 -0.9954 -0.9515
    72IDQ   C70 9766   4.199   3.720   3.828 -0.7609  0.3129  0.2246
    72IDQ   C71 9767   4.326   3.803   3.847  0.1088 -0.1534  0.1096
    72IDQ   C72 9768   4.410   3.815   3.730  0.3140  0.1219  0.8280
    11RH     C1 9769   3.157   0.294   3.300  0.0589 -0.2085 -0.1532
    11RH     C2 9770   3.232   0.342   3.182  0.0154  0.2098 -0.0112
    11RH     N1 9771   3.221   0.184   3.361  0.2438 -0.2274 -0.3816
    11RH     S1 9772   3.383   0.240   3.158  0.2207  0.5512 -0.1871
    11RH     C3 9773   3.339   0.138   3.306  0.3541  0.1248 -0.4400
    11RH     C4 9774   3.148   0.141   3.485 -0.4312 -0.4004 -1.7837
    11RH     S2 9775   3.435   0.010   3.359  0.5773  0.1845 -0.6982
    11RH     O1 9776   3.051   0.342   3.342 -0.0504 -0.5097 -0.0848
    11RH     C5 9777   3.193   0.445   3.106 -0.1502  0.3105  0.2113
    21BTZ    C6 9778   3.265   0.501   3.000  0.2712  0.1930  0.3514
    21BTZ    C7 9779   3.382   0.457   2.944 -0.0212 -0.1322 -0.0116
    21BTZ    C8 9780   3.197   0.612   2.940  0.1781  0.1148  0.3108
    21BTZ    C9 9781   3.438   0.520   2.827 -0.4172 -0.5479 -0.4302
    21BTZ   C10 9782   3.377   0.626   2.766 -0.5202 -0.6377 -0.4851
    21BTZ   C11 9783   3.255   0.676   2.821 -0.2245 -0.3077 -0.1149
    21BTZ    N2 9784   3.083   0.664   2.985  0.4374  0.4057  0.6404
    21BTZ    N3 9785   3.186   0.779   2.770 -0.2887 -0.3564 -0.1272
    21BTZ    S3 9786   3.042   0.799   2.875  0.1724  0.1464  0.4159
    31IDT   C12 9787   3.456   0.714   2.668 -0.3345 -0.0537 -1.0076
    31IDT   C13 9788   3.414   0.791   2.562 -0.0174  1.1188 -0.3059
    31IDT   C14 9789   3.519   0.865   2.501  0.1897  1.7083  0.7508
    31IDT   C15 9790   3.643   0.846   2.560  0.0318  0.9911  0.8616
    31IDT    S4 9791   3.635   0.731   2.698 -0.3949 -0.5004 -0.3752
    4IDB    C16 9792   3.734   0.947   2.523  0.2030 -0.1469 -0.4662
    4IDB    C17 9793   3.670   1.026   2.423 -0.4224 -0.1690 -0.0883
    51IDQ   C18 9794   3.530   0.959   2.380  0.5440  1.4407 -0.5167
    4IDB    C19 9795   3.730   1.141   2.372 -0.8007 -0.0988 -0.3868
    51IDQ   C20 9796   3.417   1.064   2.366 -0.3815  0.8290 -1.1356
    51IDQ   C21 9797   3.541   0.875   2.252 -0.2787  0.2777  0.2364
    51IDQ   C22 9798   3.664   0.842   2.165 -0.0391 -0.3986  0.1876
    51IDQ   C23 9799   3.312   1.083   2.492  1.0016  0.3624 -2.1350
    51IDQ   C24 9800   3.641   0.851   2.011  0.1503  0.1229  0.2898
    51IDQ   C25 9801   3.730   0.782   1.885  0.4410 -1.0819  0.1051
    51IDQ   C26 9802   3.887   0.786   1.881  1.1742  1.1859 -0.5455
    51IDQ   C27 9803   3.970   0.728   1.763  0.4139  1.0492 -0.4270
    51IDQ   C28 9804   4.121   0.721   1.786  0.7074 -0.0213 -0.7024
    51IDQ   C29 9805   4.189   0.829   1.862  0.3593 -0.5492  0.0239
    51IDQ   C30 9806   3.338   1.179   2.614 -0.2054  0.8758 -0.0649
    51IDQ   C31 9807   3.475   1.218   2.624  1.7931  0.6267  0.1176
    51IDQ   C32 9808   3.536   1.262   2.764  0.1903  1.3955 -0.5277
    51IDQ   C33 9809   3.457   1.347   2.873  0.6266  0.2879 -0.2198
    51IDQ   C34 9810   3.517   1.328   3.012 -0.2859  0.8262  0.1508
    51IDQ   C35 9811   3.447   1.386   3.129  1.4723  0.4430  0.6331
    4IDB    C36 9812   3.860   0.983   2.574  0.4545 -0.0536 -1.1493
    4IDB    C37 9813   3.920   1.100   2.521  0.0609  0.0173 -1.4459
    11RH    C38 9814   3.216   0.193   3.609 -0.7614  0.1063 -0.3459
    4IDB    C39 9815   3.856   1.176   2.423 -0.5492 -0.0055 -1.0700
    62IDT   C40 9816   3.931   1.296   2.405  0.0744  0.1001  0.0669
    72IDQ   C41 9817   4.047   1.160   2.564  0.7302 -1.8549 -0.5215
    62IDT   C42 9818   4.029   1.307   2.501 -0.3915  0.7206  0.4855
    72IDQ   C43 9819   4.185   1.084   2.528  1.6606 -0.3064  1.2726
    72IDQ   C44 9820   4.039   1.206   2.718  1.3270  0.1102  0.1498
    62IDT    S5 9821   3.940   1.429   2.285  0.2934 -0.3453 -0.4139
    62IDT   C45 9822   4.083   1.495   2.375 -0.2846  0.3655 -0.0035
    62IDT   C46 9823   4.116   1.419   2.485 -0.5951  0.8715  0.4463
    82BTZ   C47 9824   4.140   1.614   2.339 -0.4095 -0.0496 -0.7233
    82BTZ   C48 9825   4.269   1.622   2.291 -0.3474  0.0471 -0.5393
    82BTZ   C49 9826   4.322   1.745   2.238 -0.2134  0.2057 -0.0405
    82BTZ   C50 9827   4.247   1.860   2.233 -0.1423  0.2675  0.2731
    82BTZ   C51 9828   4.058   1.731   2.335 -0.3393  0.0097 -0.4094
    82BTZ   C52 9829   4.112   1.856   2.281 -0.2031  0.1709  0.0975
    92RH    C53 9830   4.295   1.982   2.195  0.4282 -0.0760 -0.1020
    82BTZ    N4 9831   3.932   1.736   2.379 -0.3893 -0.0730 -0.5465
    82BTZ    N5 9832   4.030   1.961   2.282 -0.1442  0.2179  0.3678
    82BTZ    S6 9833   3.876   1.903   2.352 -0.2622  0.0544 -0.0223
    92RH    C54 9834   4.418   2.021   2.158  0.3626  0.2002 -0.0306
    92RH     S7 9835   4.565   1.914   2.136  0.6345  0.5414  0.1221
    92RH    C55 9836   4.453   2.162   2.129  0.0482  0.2733 -0.0658
    92RH     O2 9837   4.376   2.259   2.134 -0.1876  0.0916 -0.1638
    92RH     N6 9838   4.589   2.174   2.092  0.0457  0.5814  0.0268
    92RH    C56 9839   4.667   2.060   2.089  0.3197  0.7641  0.1320
    92RH    C57 9840   4.637   2.300   2.050 -1.2445  2.4928  0.4395
    92RH    C58 9841   4.617   2.356   1.905  0.5051  0.4419 -0.4142
    92RH     S8 9842   4.830   2.048   2.049  0.3793  1.1362  0.2552
    72IDQ   C59 9843   4.179   1.227   2.800 -1.2134 -0.0623 -0.2780
    72IDQ   C60 9844   4.184   1.265   2.954  0.3885  0.9379 -0.5185
    72IDQ   C61 9845   4.104   1.184   3.056 -0.5325  0.7940  0.6360
    72IDQ   C62 9846   4.150   1.169   3.193  0.4643 -0.3403 -0.1686
    72IDQ   C63 9847   4.178   1.306   3.277  0.4546 -0.2684 -0.0507
    72IDQ   C64 9848   4.204   1.296   3.418 -0.4621 -0.1589  2.0198
    72IDQ   C65 9849   4.346   1.228   3.431 -0.3022  0.1478  0.2457
    72IDQ   C66 9850   4.245   1.065   2.386  1.0024  0.5307 -0.8207
    72IDQ   C67 9851   4.146   1.017   2.268 -0.7517  1.3378 -1.8051
    72IDQ   C68 9852   4.104   0.873   2.271  0.3183  0.1272  0.1347
    72IDQ   C69 9853   4.207   0.756   2.222  0.2494  0.7257  0.1271
    72IDQ   C70 9854   4.290   0.683   2.324 -1.5658  0.1348  0.1795
    72IDQ   C71 9855   4.215   0.569   2.396 -0.9172 -1.1315  0.2011
    72IDQ   C72 9856   4.274   0.438   2.412 -1.1730  0.5036 -1.1951
    11RH     C1 9857   4.965   2.891   1.561  0.2849  0.4064 -0.0874
    11RH     C2 9858   4.960   2.907   1.708  0.1440  0.2596 -0.0755
    11RH     N1 9859   4.872   2.794   1.516  0.4635  0.3103 -0.2522
    11RH     S1 9860   4.834   2.794   1.779  0.2559  0.0050 -0.2817
    11RH     C3 9861   4.794   2.731   1.610  0.4830  0.1047 -0.3736
    11RH     C4 9862   4.863   2.751   1.372  0.0045 -0.9379 -0.0045
    11RH     S2 9863   4.677   2.612   1.584  0.6790 -0.0448 -0.5780
    11RH     O1 9864   5.040   2.953   1.483  0.2539  0.5908  0.0302
    11RH     C5 9865   5.037   2.993   1.775 -0.0358  0.3112  0.0668
    21BTZ    C6 9866   5.074   3.016   1.920 -0.3114  0.4968 -0.0151
    21BTZ    C7 9867   5.030   2.936   2.022 -0.5405  0.8504  0.1640
    21BTZ    C8 9868   5.175   3.114   1.947 -0.0253  0.2695 -0.2373
    21BTZ    C9 9869   5.083   2.949   2.156 -0.5002  0.9977  0.1340
    21BTZ   C10 9870   5.179   3.042   2.187 -0.2311  0.7912 -0.0750
    21BTZ   C11 9871   5.228   3.128   2.083  0.0155  0.4193 -0.2679
    21BTZ    N2 9872   5.225   3.198   1.856  0.2146 -0.0787 -0.4249
    21BTZ    N3 9873   5.321   3.222   2.101  0.2885  0.1912 -0.4798
    21BTZ    S3 9874   5.345   3.299   1.942  0.5091 -0.2335 -0.6531
    31IDT   C12 9875   5.213   3.055   2.329 -1.1768  0.2696 -0.4738
    31IDT   C13 9876   5.282   3.156   2.390 -1.6544  0.7762 -0.7602
    31IDT   C14 9877   5.320   3.124   2.524 -0.8333  1.0271 -0.9261
    31IDT   C15 9878   5.280   2.999   2.566  0.2734  0.7140 -0.7677
    31IDT    S4 9879   5.190   2.911   2.437  0.3624  0.0716 -0.3926
    4IDB    C16 9880   5.326   2.987   2.707  0.8069  0.4032 -0.1512
    4IDB    C17 9881   5.412   3.095   2.745 -0.8206  1.3050  1.0976
    51IDQ   C18 9882   5.420   3.194   2.628 -0.5601 -0.0943 -0.1443
    4IDB    C19 9883   5.478   3.093   2.867 -0.6666  0.7961  1.0104
    51IDQ   C20 9884   5.381   3.336   2.708  0.7258  0.7781 -0.6457
    51IDQ   C21 9885   5.563   3.181   2.540  0.2690  0.1602 -0.3600
    51IDQ   C22 9886   5.689   3.089   2.560  0.7036  0.6470  0.0297
    51IDQ   C23 9887   5.241   3.384   2.698  0.6097 -0.4523 -1.4862
    51IDQ   C24 9888   5.656   2.950   2.494 -0.7329 -0.9986 -1.2729
    51IDQ   C25 9889   5.772   2.838   2.523  0.6204 -0.5095  1.3865
    51IDQ   C26 9890   5.765   2.725   2.421 -0.3037  1.6530 -0.0107
    51IDQ   C27 9891   5.900   2.638   2.448 -0.9512  0.4607  0.5823
    51IDQ   C28 9892   5.906   2.487   2.396  0.5615  0.4051 -1.6855
    51IDQ   C29 9893   5.772   2.422   2.389 -0.1019 -0.4693  1.2677
    51IDQ   C30 9894   5.189   3.436   2.571 -0.3581 -0.3211 -0.6502
    51IDQ   C31 9895   5.039   3.460   2.566 -0.0748  0.2889  0.4619
    51IDQ   C32 9896   4.996   3.597   2.526  1.1173 -0.4657 -0.7109
    51IDQ   C33 9897   4.871   3.631   2.609 -0.2338  0.7495 -1.2058
    51IDQ   C34 9898   4.864   3.776   2.604 -0.5388  0.2798 -0.6995
    51IDQ   C35 9899   4.782   3.838   2.499 -0.9569  0.2953  0.5370
    4IDB    C36 9900   5.306   2.877   2.791  2.6088 -1.0217 -1.5025
    4IDB    C37 9901   5.375   2.877   2.916  2.7387 -1.5233 -1.5707
    11RH    C38 9902   4.747   2.838   1.305  0.2913 -0.0639  0.2078
    4IDB    C39 9903   5.458   2.983   2.952  1.1350 -0.6289 -0.3409
    62IDT   C40 9904   5.513   2.969   3.083  0.8537 -0.2300 -0.2532
    72IDQ   C41 9905   5.347   2.799   3.046 -0.0528 -0.5584 -1.4823
    62IDT   C42 9906   5.435   2.877   3.150  0.6802 -0.4504 -0.7563
    72IDQ   C43 9907   5.358   2.637   2.997 -0.6239 -0.1499  0.0785
    72IDQ   C44 9908   5.198   2.799   3.061 -0.5395 -0.2072 -0.6013
    62IDT    S5 9909   5.661   3.011   3.176  0.0932  0.2746  0.7644
    62IDT   C45 9910   5.608   2.896   3.306 -0.4452  0.1550  0.4404
    62IDT   C46 9911   5.489   2.835   3.276 -0.0544 -0.2331 -0.3648
    82BTZ   C47 9912   5.706   2.874   3.411  0.0586 -0.1089 -0.4112
    82BTZ   C48 9913   5.733   2.976   3.499 -0.0718 -0.0798 -0.4055
    82BTZ   C49 9914   5.831   2.963   3.603 -0.2043 -0.0335 -0.2744
    82BTZ   C50 9915   5.903   2.848   3.620 -0.2062 -0.0164 -0.1493
    82BTZ   C51 9916   5.779   2.751   3.425  0.0622 -0.0925 -0.2831
    82BTZ   C52 9917   5.879   2.738   3.531 -0.0725 -0.0455 -0.1498
    92RH    C53 9918   5.976   2.826   3.745 -0.0145  0.6657  0.2269
    82BTZ    N4 9919   5.762   2.645   3.346  0.1826 -0.1178 -0.2751
    82BTZ    N5 9920   5.943   2.621   3.538 -0.0603 -0.0330 -0.0348
    82BTZ    S6 9921   5.876   2.520   3.405  0.1276 -0.0815 -0.0931
    92RH    C54 9922   5.984   2.896   3.859 -0.1566  0.4383  0.3771
    92RH     S7 9923   5.927   3.068   3.887 -0.4699  0.2767  0.7356
    92RH    C55 9924   6.043   2.842   3.984 -0.0782  0.2782  0.2711
    92RH     O2 9925   6.091   2.728   3.998  0.1237  0.3339  0.0358
    92RH     N6 9926   6.039   2.937   4.088 -0.2644  0.0486  0.4732
    92RH    C56 9927   5.984   3.060   4.063 -0.4826  0.0051  0.7281
    92RH    C57 9928   6.087   2.910   4.226  0.2576 -0.6184  1.8181
    92RH    C58 9929   6.238   2.943   4.219 -0.1209 -1.2878 -1.0563
    92RH     S8 9930   5.966   3.190   4.169 -0.7317 -0.2511  1.0030
    72IDQ   C59 9931   5.117   2.900   3.150 -1.1267  0.3619  1.3607
    72IDQ   C60 9932   5.100   3.057   3.112  0.0708 -0.5892  0.1860
    72IDQ   C61 9933   5.021   3.133   3.001 -0.6587  0.9843 -0.3672
    72IDQ   C62 9934   4.882   3.182   3.020  0.5230 -0.8521  0.8110
    72IDQ   C63 9935   4.822   3.224   2.887 -1.1128  0.5621  1.0128
    72IDQ   C64 9936   4.800   3.370   2.855  0.7700  0.2633 -0.6030
    72IDQ   C65 9937   4.743   3.456   2.954  0.3989  1.1163  0.1423
    72IDQ   C66 9938   5.424   2.540   3.109 -0.2030  0.1118 -0.1146
    72IDQ   C67 9939   5.433   2.393   3.085 -0.7665 -1.5905  0.6558
    72IDQ   C68 9940   5.305   2.348   3.026 -0.2342  0.3626  1.2621
    72IDQ   C69 9941   5.187   2.339   3.123  0.7181  0.2719 -0.9540
    72IDQ   C70 9942   5.177   2.198   3.164 -0.1845  1.1015 -0.8487
    72IDQ   C71 9943   5.063   2.200   3.267  0.2271  1.0873 -0.5583
    72IDQ   C72 9944   5.089   2.073   3.367 -0.6228  0.0227  0.9190
    11RH     C1 9945   3.829   2.633   4.990  0.3678  0.0550  0.4187
    11RH     C2 9946   3.832   2.569   4.856  0.2209  0.2778  0.3080
    11RH     N1 9947   3.757   2.554   5.082  0.2728  0.0110  0.3085
    11RH     S1 9948   3.741   2.410   4.861 -0.0323  0.4149  0.0656
    11RH     C3 9949   3.702   2.436   5.039  0.0679  0.1714  0.1228
    11RH     C4 9950   3.750   2.599   5.223 -0.3335  0.2440 -0.2940
    11RH     S2 9951   3.613   2.324   5.129 -0.0802  0.1606 -0.0379
    11RH     O1 9952   3.881   2.741   5.019  0.5515 -0.0792  0.5867
    11RH     C5 9953   3.894   2.623   4.750  0.2716  0.3601  0.3789
    21BTZ    C6 9954   3.865   2.606   4.599  0.0263 -0.1426 -0.1112
    21BTZ    C7 9955   3.747   2.547   4.563  0.0268 -0.1214 -0.1493
    21BTZ    C8 9956   3.942   2.672   4.497  0.0064 -0.0434 -0.0627
    21BTZ    C9 9957   3.699   2.548   4.427  0.0080 -0.0021 -0.1419
    21BTZ   C10 9958   3.770   2.609   4.327 -0.0116  0.0957 -0.0959
    21BTZ   C11 9959   3.894   2.673   4.359 -0.0129  0.0777 -0.0553
    21BTZ    N2 9960   4.059   2.733   4.519  0.0038 -0.0528 -0.0226
    21BTZ    N3 9961   3.971   2.736   4.270 -0.0309  0.1658 -0.0091
    21BTZ    S3 9962   4.113   2.797   4.361 -0.0237  0.0958  0.0276
    31IDT   C12 9963   3.731   2.571   4.196  0.2480 -0.2714  0.1196
    31IDT   C13 9964   3.797   2.474   4.126  0.1007 -0.4284  0.1957
    31IDT   C14 9965   3.730   2.436   4.005 -0.0414 -0.5413  0.3107
    31IDT   C15 9966   3.612   2.504   3.983 -0.0034 -0.4711  0.3221
    31IDT    S4 9967   3.576   2.622   4.114  0.2171 -0.2548  0.1878
    4IDB    C16 9968   3.553   2.467   3.865 -0.9326  0.5500 -0.3436
    4IDB    C17 9969   3.636   2.364   3.812 -0.1258  0.9853  0.0584
    51IDQ   C18 9970   3.755   2.329   3.899 -2.2279 -1.0921 -0.9039
    4IDB    C19 9971   3.615   2.313   3.685  0.2779  0.3335  0.2455
    51IDQ   C20 9972   3.717   2.185   3.973  0.5427 -0.2879  0.2770
    51IDQ   C21 9973   3.917   2.312   3.851 -0.4941  0.3965  0.3252
    51IDQ   C22 9974   3.953   2.325   3.708  0.2165  0.2403  0.8460
    51IDQ   C23 9975   3.640   2.173   4.111 -0.7184 -1.5958  0.2487
    51IDQ   C24 9976   3.933   2.195   3.633 -0.1973 -1.7115  0.4267
    51IDQ   C25 9977   3.932   2.200   3.480  0.5837 -0.2460 -0.6891
    51IDQ   C26 9978   3.996   2.089   3.406 -0.5644 -0.6619  0.5597
    51IDQ   C27 9979   4.013   2.130   3.259  0.4487  1.8894 -0.1435
    51IDQ   C28 9980   3.886   2.105   3.173 -0.9829 -0.8545 -0.0771
    51IDQ   C29 9981   3.913   2.144   3.035 -0.9312 -0.4233 -0.8994
    51IDQ   C30 9982   3.591   2.030   4.146  1.9643 -0.8402 -0.5579
    51IDQ   C31 9983   3.682   1.926   4.183 -0.1689  0.2854  0.7453
    51IDQ   C32 9984   3.622   1.859   4.318 -0.3015  0.6357 -1.5539
    51IDQ   C33 9985   3.690   1.912   4.443  0.9797 -1.4148  0.2389
    51IDQ   C34 9986   3.699   2.041   4.498  0.5770  0.1470  0.8027
    51IDQ   C35 9987   3.736   2.040   4.642  1.0057  0.1555 -1.2949
    4IDB    C36 9988   3.447   2.521   3.790 -1.3428 -0.5472 -0.5618
    4IDB    C37 9989   3.426   2.467   3.660 -0.9207 -1.2009 -0.3661
    11RH    C38 9990   3.617   2.657   5.267  0.1320 -1.1070  0.3880
    4IDB    C39 9991   3.509   2.367   3.610 -0.1321 -0.7636  0.0271
    62IDT   C40 9992   3.454   2.319   3.485  0.0755  0.4292 -0.0660
    72IDQ   C41 9993   3.298   2.482   3.577  0.1449 -0.9627  0.6605
    62IDT   C42 9994   3.328   2.374   3.470  0.1315  0.5714 -0.0125
    72IDQ   C43 9995   3.279   2.606   3.492  1.1995  0.5161  0.5433
    72IDQ   C44 9996   3.182   2.418   3.660  0.0224 -1.3103  0.6905
    62IDT    S5 9997   3.493   2.205   3.351 -0.2763  0.0624  0.1421
    62IDT   C45 9998   3.329   2.240   3.280 -0.3320  0.1236  0.2980
    62IDT   C46 9999   3.258   2.329   3.355 -0.0988  0.3989  0.1932
    82BTZ   C4710000   3.278   2.154   3.166 -0.3561 -0.2022  0.0946
    82BTZ   C4810001   3.368   2.115   3.071 -0.2987 -0.4361  0.2444
    82BTZ   C4910002   3.326   2.055   2.947 -0.2402 -0.4823  0.2469
    82BTZ   C5010003   3.193   2.034   2.919 -0.2388 -0.2948  0.0996
    82BTZ   C5110004   3.138   2.135   3.142 -0.3570  0.0005 -0.0628
    82BTZ   C5210005   3.095   2.073   3.016 -0.2975 -0.0467 -0.0603
    92RH    C5310006   3.148   1.944   2.808 -0.0178  0.7773 -0.1161
    82BTZ    N410007   3.041   2.169   3.227 -0.4097  0.2362 -0.2165
    82BTZ    N510008   2.963   2.058   3.000 -0.3023  0.1512 -0.2122
    82BTZ    S610009   2.887   2.123   3.148 -0.3850  0.4113 -0.3678
    92RH    C5410010   3.218   1.868   2.723 -0.0396  0.6108  0.0154
    92RH     S710011   3.399   1.839   2.726 -0.0796  0.3817  0.2034
    92RH    C5510012   3.157   1.794   2.610 -0.0341  0.5865  0.0285
    92RH     O210013   3.037   1.793   2.581 -0.0095  0.7144 -0.0784
    92RH     N610014   3.254   1.722   2.537 -0.0609  0.3960  0.1803
    92RH    C5610015   3.386   1.729   2.578 -0.0870  0.2648  0.2905
    92RH    C5710016   3.218   1.633   2.419  0.0544 -0.5784 -0.9272
    92RH    C5810017   3.198   1.479   2.405 -0.5269 -0.3759  0.2337
    92RH     S810018   3.520   1.654   2.509 -0.1217  0.0308  0.4784
    72IDQ   C5910019   3.034   2.482   3.654  0.5138  2.3198 -0.1662
    72IDQ   C6010020   2.984   2.614   3.716  0.1127 -0.1567 -1.1725
    72IDQ   C6110021   2.851   2.693   3.718  0.0177 -0.5358 -1.2407
    72IDQ   C6210022   2.809   2.725   3.851  0.7216  0.4664 -0.0812
    72IDQ   C6310023   2.673   2.810   3.862  0.0810 -0.6704  1.1628
    72IDQ   C6410024   2.563   2.754   3.771  0.4367 -1.0830 -1.0459
    72IDQ   C6510025   2.516   2.887   3.721  0.3308 -0.9430  0.7104
    72IDQ   C6610026   3.327   2.755   3.518  0.4975  0.2959  0.1902
    72IDQ   C6710027   3.393   2.777   3.396 -0.5375 -1.5302  0.6317
    72IDQ   C6810028   3.439   2.914   3.357 -0.5212 -0.9224 -0.3604
    72IDQ   C6910029   3.593   2.926   3.339  0.5740  0.4332  0.4642
    72IDQ   C7010030   3.630   2.899   3.194  1.9834 -0.6696 -1.3966
    72IDQ   C7110031   3.602   2.996   3.074  1.0197 -0.6545  0.0258
    72IDQ   C7210032   3.632   2.914   2.950  0.1175  0.3433  0.7262
    11RH     C110033   1.079   6.308   4.327  0.1358 -0.2189  0.2446
    11RH     C210034   0.957   6.340   4.250  0.0518 -0.0784  0.4363
    11RH     N110035   1.186   6.275   4.242 -0.0161 -0.2733  0.0740
    11RH     S110036   0.991   6.325   4.071 -0.2216 -0.0278  0.3797
    11RH     C310037   1.165   6.277   4.106 -0.2116 -0.1938  0.1054
    11RH     C410038   1.326   6.236   4.296  0.7821  0.1824 -0.2329
    11RH     S210039   1.275   6.242   3.984 -0.4190 -0.2346 -0.0708
    11RH     O110040   1.089   6.309   4.451  0.3161 -0.2823  0.2313
    11RH     C510041   0.841   6.375   4.307  0.1637 -0.0041  0.6199
    21BTZ    C610042   0.701   6.380   4.238 -0.2230 -0.1229 -0.8492
    21BTZ    C710043   0.688   6.342   4.107 -0.3024  0.1073 -0.9081
    21BTZ    C810044   0.600   6.462   4.296 -0.0921 -0.0684 -0.6979
    21BTZ    C910045   0.575   6.383   4.027 -0.2576  0.4003 -0.8221
    21BTZ   C1010046   0.475   6.462   4.078 -0.1334  0.4633 -0.6769
    21BTZ   C1110047   0.485   6.504   4.215 -0.0465  0.2296 -0.6101
    21BTZ    N210048   0.602   6.506   4.422 -0.0055 -0.2742 -0.6282
    21BTZ    N310049   0.394   6.581   4.276  0.0765  0.2635 -0.4702
    21BTZ    S310050   0.453   6.604   4.444  0.1408 -0.0920 -0.4436
    31IDT   C1210051   0.394   6.524   3.980  0.5607 -0.1053 -0.0503
    31IDT   C1310052   0.258   6.533   3.986  0.4673 -0.9685 -0.6492
    31IDT   C1410053   0.204   6.617   3.884  0.4010 -1.1473 -0.7615
    31IDT   C1510054   0.298   6.672   3.800  0.4432 -0.4235 -0.2500
    31IDT    S410055   0.465   6.622   3.844  0.5714  0.5499  0.4195
    4IDB    C1610056   0.223   6.753   3.706 -0.2197 -0.1877 -0.0295
    4IDB    C1710057   0.084   6.760   3.735 -0.2666 -0.5682 -0.1593
    51IDQ   C1810058   0.055   6.675   3.860 -0.8469  1.4051 -0.3425
    4IDB    C1910059  -0.005   6.817   3.644 -0.2995 -0.5499 -0.1151
    51IDQ   C2010060  -0.013   6.743   3.993  0.9449  0.8995 -1.2534
    51IDQ   C2110061  -0.034   6.540   3.827 -0.7295  0.3564 -0.5141
    51IDQ   C2210062  -0.045   6.502   3.684 -0.4383 -0.6332  0.7110
    51IDQ   C2310063   0.062   6.776   4.136 -0.6898  2.6256 -0.6524
    51IDQ   C2410064  -0.061   6.355   3.641 -0.0320 -1.1418 -0.0633
    51IDQ   C2510065  -0.158   6.269   3.719  0.0158  0.3142 -0.2774
    51IDQ   C2610066  -0.208   6.131   3.661 -0.6069  1.0319 -0.1504
    51IDQ   C2710067  -0.272   6.144   3.513  1.4935  0.0872 -0.4610
    51IDQ   C2810068  -0.305   5.999   3.469 -0.0706  0.8917  0.7685
    51IDQ   C2910069  -0.174   5.919   3.418 -0.9464  0.5999 -0.1978
    51IDQ   C3010070   0.155   6.887   4.132 -1.8435 -1.1414  0.4306
    51IDQ   C3110071   0.177   6.930   4.266  0.5306 -0.1264  0.1082
    51IDQ   C3210072   0.271   7.055   4.272  0.6199  0.1086 -1.0471
    51IDQ   C3310073   0.407   7.077   4.218  0.8667  0.2327 -0.4132
    51IDQ   C3410074   0.499   6.948   4.195 -0.7486 -1.2384 -0.3447
    51IDQ   C3510075   0.606   7.014   4.115 -0.8508  0.4471  0.0578
    4IDB    C3610076   0.276   6.804   3.586 -0.2056  0.2158  0.1463
    4IDB    C3710077   0.184   6.862   3.495 -0.2398  0.2282  0.1889
    11RH    C3810078   1.442   6.331   4.324  0.3065  0.0718 -1.8855
    4IDB    C3910079   0.047   6.868   3.524 -0.2855 -0.1461  0.0606
    62IDT   C4010080  -0.029   6.920   3.411 -0.2697 -0.6264 -0.0032
    72IDQ   C4110081   0.203   6.935   3.358  0.8316 -0.0122 -0.9475
    62IDT   C4210082   0.060   6.971   3.319  0.0894 -1.8873 -0.3743
    72IDQ   C4310083   0.260   6.829   3.249  0.4850  0.1002  0.3113
    72IDQ   C4410084   0.248   7.087   3.362  0.2864  0.4419 -0.7267
    62IDT    S510085  -0.200   6.937   3.358 -0.2016  0.7891  0.1989
    62IDT   C4510086  -0.139   7.016   3.206  0.3355 -0.4594 -0.2511
    62IDT   C4610087  -0.003   7.025   3.202  0.4320 -1.7948 -0.5147
    82BTZ   C4710088  -0.229   7.069   3.094 -0.4697  0.0350  0.1257
    82BTZ   C4810089  -0.280   7.196   3.106 -0.6089 -0.0152  0.0596
    82BTZ   C4910090  -0.388   7.242   3.022 -0.6115 -0.1536 -0.0137
    82BTZ   C5010091  -0.445   7.162   2.926 -0.4746 -0.2416 -0.0209
    82BTZ   C5110092  -0.285   6.982   2.995 -0.3231 -0.0529  0.1214
    82BTZ   C5210093  -0.394   7.028   2.910 -0.3257 -0.1939  0.0470
    92RH    C5310094  -0.552   7.214   2.829 -0.1582 -0.0908  0.4660
    82BTZ    N410095  -0.243   6.856   2.974 -0.1802 -0.0160  0.1817
    82BTZ    N510096  -0.441   6.941   2.820 -0.1848 -0.2697  0.0473
    82BTZ    S610097  -0.345   6.792   2.841 -0.0400 -0.1623  0.1452
    92RH    C5410098  -0.600   7.339   2.828 -0.2503 -0.1274  0.2669
    92RH     S710099  -0.588   7.462   2.963 -0.3146  0.1084  0.0581
    92RH    C5510100  -0.674   7.398   2.713 -0.3164 -0.3735  0.1827
    92RH     O210101  -0.699   7.340   2.606 -0.2947 -0.5711  0.2844
    92RH     N610102  -0.713   7.531   2.740 -0.4091 -0.3580 -0.0320
    92RH    C5610103  -0.680   7.586   2.862 -0.4253 -0.1295 -0.1302
    92RH    C5710104  -0.813   7.593   2.646 -0.1314  0.1179  0.3086
    92RH    C5810105  -0.752   7.688   2.518 -0.5815  0.8531  0.5300
    92RH     S810106  -0.715   7.741   2.918 -0.5291 -0.0610 -0.3828
    72IDQ   C5910107   0.399   7.123   3.409  0.4694  1.3193 -0.9194
    72IDQ   C6010108   0.424   7.262   3.438 -0.2932  0.4209  1.1131
    72IDQ   C6110109   0.414   7.381   3.338 -0.0061  1.3618  0.5917
    72IDQ   C6210110   0.542   7.407   3.249 -0.2467 -0.5939  1.1738
    72IDQ   C6310111   0.648   7.482   3.338  0.2231 -0.6474  0.3025
    72IDQ   C6410112   0.797   7.504   3.293  0.7421 -0.3008  0.9271
    72IDQ   C6510113   0.798   7.547   3.150 -0.2159  1.3739  0.2564
    72IDQ   C6610114   0.403   6.790   3.251 -0.1631 -0.1584  0.0156
    72IDQ   C6710115   0.473   6.672   3.189 -0.4396  1.5237 -1.5695
    72IDQ   C6810116   0.418   6.528   3.217 -0.2336 -0.2830  0.4528
    72IDQ   C6910117   0.279   6.485   3.206  0.5778  0.8186  0.6722
    72IDQ   C7010118   0.246   6.358   3.278  0.4810  0.3061  0.2290
    72IDQ   C7110119   0.101   6.343   3.286  1.1079  1.8279 -0.4248
    72IDQ   C7210120   0.113   6.201   3.327  0.6246  0.8246  0.7047
    11RH     C110121   5.809   4.429   2.163 -0.1354 -0.4461 -0.0470
    11RH     C210122   5.887   4.344   2.071 -0.2728 -0.4604 -0.1513
    11RH     N110123   5.673   4.389   2.168 -0.0811 -0.5854  0.3332
    11RH     S110124   5.778   4.216   1.997 -0.3221 -0.6563  0.2573
    11RH     C310125   5.634   4.282   2.091 -0.1585 -0.7095  0.5461
    11RH     C410126   5.596   4.471   2.249  0.5548 -1.4637 -0.8595
    11RH     S210127   5.480   4.215   2.079 -0.1180 -0.8874  1.0023
    11RH     O110128   5.853   4.525   2.229 -0.0732 -0.3278 -0.2606
    11RH     C510129   6.018   4.360   2.048 -0.3464 -0.3449 -0.4950
    21BTZ    C610130   6.117   4.311   1.952  0.5602 -0.5669  0.7101
    21BTZ    C710131   6.094   4.215   1.857  0.3572 -0.3159  0.5057
    21BTZ    C810132   6.245   4.377   1.953  0.3984 -0.2418  0.3172
    21BTZ    C910133   6.194   4.179   1.759 -0.0131  0.2630 -0.0909
    21BTZ   C1010134   6.317   4.240   1.756 -0.1795  0.5898 -0.4821
    21BTZ   C1110135   6.346   4.341   1.854  0.0219  0.3464 -0.2891
    21BTZ    N210136   6.279   4.472   2.041  0.5686 -0.4392  0.4648
    21BTZ    N310137   6.462   4.406   1.862 -0.1099  0.6220 -0.6289
    21BTZ    S310138   6.446   4.520   1.999  0.2484  0.1308 -0.1786
    31IDT   C1210139   6.395   4.205   1.640 -0.5066  0.4228 -0.4298
    31IDT   C1310140   6.480   4.293   1.578 -0.7370  0.3631 -0.8349
    31IDT   C1410141   6.546   4.236   1.465 -0.6733  0.0484 -0.6407
    31IDT   C1510142   6.511   4.105   1.440 -0.3947 -0.1335 -0.0874
    31IDT    S410143   6.392   4.042   1.559 -0.1897  0.0822  0.2334
    4IDB    C1610144   6.582   4.071   1.324  0.6416 -0.0901  0.3323
    4IDB    C1710145   6.663   4.182   1.287  1.2887 -0.5171  0.4442
    51IDQ   C1810146   6.682   4.279   1.398 -0.3400  0.1825 -0.6217
    4IDB    C1910147   6.724   4.188   1.162  0.7808 -0.4394  0.1987
    51IDQ   C2010148   6.828   4.238   1.459  0.6030 -1.0844  0.3301
    51IDQ   C2110149   6.684   4.434   1.358 -0.3255  0.2168  1.4264
    51IDQ   C2210150   6.675   4.501   1.213  0.9727  0.9146  1.0437
    51IDQ   C2310151   6.829   4.198   1.614  0.8173  0.9528  0.0788
    51IDQ   C2410152   6.651   4.641   1.191  0.3742 -0.0985  1.6276
    51IDQ   C2510153   6.668   4.753   1.284 -1.3473  0.4101 -1.0149
    51IDQ   C2610154   6.611   4.886   1.242  0.0031  0.6919  0.0666
    51IDQ   C2710155   6.618   5.023   1.324 -0.2497 -0.2254 -0.0452
    51IDQ   C2810156   6.755   5.083   1.336 -0.6715 -0.4560  0.3375
    51IDQ   C2910157   6.733   5.199   1.422 -0.5091 -1.1586  0.6412
    51IDQ   C3010158   6.791   4.053   1.628 -0.5510 -0.4554 -0.1909
    51IDQ   C3110159   6.742   4.033   1.768 -0.2741 -0.4474  0.8273
    51IDQ   C3210160   6.776   3.901   1.824 -1.3612  1.2307  0.9384
    51IDQ   C3310161   6.689   3.842   1.932  0.0852  0.5608  1.1805
    51IDQ   C3410162   6.637   3.924   2.063  0.1159  0.5902  0.4519
    51IDQ   C3510163   6.756   3.980   2.137 -0.1039  0.4169 -1.4548
    4IDB    C3610164   6.561   3.964   1.235 -0.5240  0.4201 -0.0283
    4IDB    C3710165   6.624   3.972   1.108 -1.0285  0.4920 -0.2756
    11RH    C3810166   5.577   4.446   2.403 -0.1488 -0.3070  0.9188
    4IDB    C3910167   6.703   4.082   1.073 -0.3849  0.0709 -0.1619
    62IDT   C4010168   6.765   4.069   0.952 -0.0299 -0.2537 -0.2020
    72IDQ   C4110169   6.659   3.852   1.003 -0.7229 -0.2014 -0.1432
    62IDT   C4210170   6.757   3.939   0.908 -0.3054 -0.1787 -0.3773
    72IDQ   C4310171   6.544   3.789   0.922 -0.1944 -1.7172 -1.4228
    72IDQ   C4410172   6.725   3.732   1.076 -0.0755  1.2079  1.1627
    62IDT    S510173   6.838   4.178   0.829 -0.2887 -0.1470 -0.2626
    62IDT   C4510174   6.856   4.034   0.719 -0.7792  0.0010 -0.5351
    62IDT   C4610175   6.808   3.919   0.776 -0.7293 -0.0349 -0.5658
    82BTZ   C4710176   6.855   4.065   0.574  0.0656  0.1289 -0.4578
    82BTZ   C4810177   6.788   4.179   0.537 -0.0279  0.0515 -0.5288
    82BTZ   C4910178   6.769   4.214   0.399 -0.1218 -0.0887 -0.5509
    82BTZ   C5010179   6.815   4.134   0.297 -0.1218 -0.1513 -0.5019
    82BTZ   C5110180   6.905   3.978   0.471  0.0696  0.0677 -0.4045
    82BTZ   C5210181   6.885   4.014   0.330 -0.0255 -0.0746 -0.4269
    92RH    C5310182   6.795   4.163   0.156 -0.3554  0.2662  0.3608
    82BTZ    N410183   6.971   3.865   0.494  0.1564  0.1324 -0.3337
    82BTZ    N510184   6.935   3.929   0.240 -0.0155 -0.1243 -0.3742
    82BTZ    S610185   7.011   3.797   0.334  0.1191  0.0114 -0.2919
    92RH    C5410186   6.746   4.263   0.082 -0.2019  0.3326  0.3478
    92RH     S710187   6.654   4.410   0.142 -0.4690  0.1969  0.2759
    92RH    C5510188   6.759   4.269  -0.066  0.2227  0.5331  0.3915
    92RH     O210189   6.815   4.184  -0.137  0.4818  0.6611  0.4442
    92RH     N610190   6.698   4.385  -0.118  0.3024  0.5632  0.3658
    92RH    C5610191   6.638   4.473  -0.031 -0.0067  0.4117  0.3071
    92RH    C5710192   6.662   4.411  -0.259 -1.3873  0.3423  0.6635
    92RH    C5810193   6.790   4.429  -0.346  0.8991 -1.0298 -0.5897
    92RH     S810194   6.558   4.617  -0.067  0.0088  0.4101  0.2663
    72IDQ   C5910195   6.873   3.745   1.098 -0.6372 -0.3602 -0.6391
    72IDQ   C6010196   6.941   3.602   1.090  0.1315  0.3435  0.3679
    72IDQ   C6110197   6.898   3.467   1.150 -0.3656 -0.1456 -1.1902
    72IDQ   C6210198   6.871   3.453   1.292  0.8368 -0.8545  0.6398
    72IDQ   C6310199   6.940   3.509   1.418 -0.3718 -0.1209 -0.8344
    72IDQ   C6410200   6.941   3.654   1.448 -0.0539  1.7620 -0.4967
    72IDQ   C6510201   6.832   3.698   1.526  0.5302 -0.0116 -0.4162
    72IDQ   C6610202   6.415   3.861   0.893 -0.4036 -0.7234 -0.4983
    72IDQ   C6710203   6.443   3.973   0.801 -0.0570  0.0748  0.2351
    72IDQ   C6810204   6.332   3.968   0.691 -0.0097 -0.8197 -0.6281
    72IDQ   C6910205   6.346   4.089   0.607  1.6858  1.1986 -1.8488
    72IDQ   C7010206   6.277   4.111   0.475 -0.1900  0.6353  0.2407
    72IDQ   C7110207   6.128   4.078   0.421 -0.3449  0.2948  0.9447
    72IDQ   C7210208   6.024   4.181   0.456  1.8049  0.2802  1.4216
    11RH     C110209   3.100   0.753   0.605  0.1361  0.5214 -0.0348
    11RH     C210210   3.017   0.873   0.577  0.0314  0.4926  0.1539
    11RH     N110211   3.110   0.728   0.743  0.1365  0.2957 -0.0751
    11RH     S110212   2.957   0.944   0.735 -0.0599  0.1707  0.2661
    11RH     C310213   3.045   0.813   0.830  0.0449  0.0897  0.0583
    11RH     C410214   3.226   0.643   0.789 -0.5161  0.4803  0.2283
    11RH     S210215   3.040   0.806   0.998  0.0244 -0.1991  0.0453
    11RH     O110216   3.156   0.682   0.519  0.2148  0.7166 -0.1462
    11RH     C510217   2.992   0.918   0.454  0.0098  0.6783  0.2262
    21BTZ    C610218   2.920   1.019   0.391  0.1143 -0.0012  0.0474
    21BTZ    C710219   2.869   1.126   0.461  0.2689  0.0109  0.1422
    21BTZ    C810220   2.902   1.015   0.249  0.0010  0.0901  0.0591
    21BTZ    C910221   2.798   1.233   0.395  0.3195  0.1124  0.2525
    21BTZ   C1010222   2.779   1.233   0.260  0.2154  0.2017  0.2679
    21BTZ   C1110223   2.830   1.124   0.182  0.0522  0.1932  0.1713
    21BTZ    N210224   2.947   0.917   0.170 -0.1528  0.0884 -0.0268
    21BTZ    N310225   2.817   1.113   0.049 -0.0601  0.2743  0.1755
    21BTZ    S310226   2.898   0.961   0.004 -0.2402  0.2213  0.0337
    31IDT   C1210227   2.678   1.325   0.197  0.1638 -0.2288 -0.0296
    31IDT   C1310228   2.546   1.345   0.226  0.1433 -0.4498  0.0298
    31IDT   C1410229   2.476   1.416   0.123  0.0799 -0.1841  0.2550
    31IDT   C1510230   2.555   1.451   0.015  0.0518  0.2404  0.3686
    31IDT    S410231   2.725   1.395   0.035  0.1039  0.3373  0.1975
    4IDB    C1610232   2.491   1.523  -0.097  0.1838  0.8531 -0.1371
    4IDB    C1710233   2.356   1.527  -0.051  0.1878  0.2853 -0.0715
    51IDQ   C1810234   2.333   1.459   0.083  1.9837  1.0537 -1.2723
    4IDB    C1910235   2.261   1.607  -0.113 -0.2375 -0.2752 -0.1638
    51IDQ   C2010236   2.271   1.547   0.186  0.5147 -0.5663 -0.4210
    51IDQ   C2110237   2.245   1.327   0.083 -0.5057 -0.8303 -0.5589
    51IDQ   C2210238   2.194   1.227  -0.028  0.3608  0.1471  0.1772
    51IDQ   C2310239   2.333   1.624   0.304  1.3462  0.4044 -1.8338
    51IDQ   C2410240   2.316   1.170  -0.089  0.4886  0.9423 -1.2232
    51IDQ   C2510241   2.316   1.177  -0.245  0.6614 -0.8074  0.2184
    51IDQ   C2610242   2.416   1.112  -0.337 -1.1436 -1.0386 -0.0058
    51IDQ   C2710243   2.555   1.154  -0.280  0.5622  1.5583  0.2526
    51IDQ   C2810244   2.646   1.051  -0.341  1.0440  0.9298  0.3670
    51IDQ   C2910245   2.787   1.109  -0.394 -0.2232 -0.3263 -0.9619
    51IDQ   C3010246   2.238   1.700   0.382  0.0243  0.6793 -0.5170
    51IDQ   C3110247   2.295   1.703   0.520  0.0752  0.0910 -0.6666
    51IDQ   C3210248   2.322   1.580   0.602 -1.0733  0.4433  0.4914
    51IDQ   C3310249   2.410   1.601   0.722  1.5624  0.0818  1.3955
    51IDQ   C3410250   2.405   1.484   0.826 -1.4443 -0.8950  0.6609
    51IDQ   C3510251   2.475   1.519   0.956 -0.3927 -0.0420 -0.1628
    4IDB    C3610252   2.532   1.600  -0.206 -0.2486  0.8630 -0.2961
    4IDB    C3710253   2.434   1.683  -0.269 -0.6796  0.2855 -0.3886
    11RH    C3810254   3.179   0.493   0.812 -0.2496  0.4107  0.6205
    4IDB    C3910255   2.303   1.685  -0.222 -0.6697 -0.2654 -0.3229
    62IDT   C4010256   2.203   1.751  -0.301  0.7666  0.1217  0.2306
    72IDQ   C4110257   2.425   1.775  -0.397  0.7420 -0.8307  2.0271
    62IDT   C4210258   2.269   1.819  -0.401  0.4807 -0.6108 -0.4663
    72IDQ   C4310259   2.438   1.702  -0.547  0.1880 -0.9803 -0.7007
    72IDQ   C4410260   2.542   1.873  -0.379  0.6278 -0.3009 -0.1526
    62IDT    S510261   2.028   1.790  -0.297  0.9195  0.7455  0.9577
    62IDT   C4510262   2.054   1.902  -0.437  0.5717 -0.0559  0.2462
    62IDT   C4610263   2.185   1.905  -0.479  0.3700 -0.7122 -0.4587
    82BTZ   C4710264   1.944   1.993  -0.470 -0.5646 -0.5818 -0.5353
    82BTZ   C4810265   1.871   2.047  -0.367 -0.4708 -0.5010 -0.5107
    82BTZ   C4910266   1.757   2.132  -0.392 -0.1316 -0.0342 -0.4683
    82BTZ   C5010267   1.717   2.164  -0.519  0.1130  0.3514 -0.4512
    82BTZ   C5110268   1.906   2.023  -0.605 -0.3176 -0.1894 -0.5188
    82BTZ   C5210269   1.790   2.110  -0.630  0.0271  0.2851 -0.4759
    92RH    C5310270   1.596   2.245  -0.563 -0.0715  0.3713 -0.4253
    82BTZ    N410271   1.969   1.977  -0.713 -0.3785 -0.2235 -0.5400
    82BTZ    N510272   1.761   2.134  -0.758  0.2431  0.6326 -0.4628
    82BTZ    S610273   1.882   2.044  -0.854  0.0103  0.3623 -0.5056
    92RH    C5410274   1.506   2.302  -0.483 -0.0815  0.2190 -0.3285
    92RH     S710275   1.507   2.303  -0.299  0.1284  0.2446 -0.3296
    92RH    C5510276   1.387   2.375  -0.532 -0.2712 -0.0013 -0.2010
    92RH     O210277   1.357   2.393  -0.652 -0.4399 -0.0699 -0.1695
    92RH     N610278   1.308   2.425  -0.426 -0.2378 -0.1285 -0.1171
    92RH    C5610279   1.350   2.400  -0.297 -0.0447 -0.0368 -0.1619
    92RH    C5710280   1.187   2.498  -0.460  0.1927 -0.5478 -0.0544
    92RH    C5810281   1.064   2.415  -0.497  0.2482 -0.8697  1.1967
    92RH     S810282   1.275   2.448  -0.153  0.0349 -0.1522 -0.0820
    72IDQ   C5910283   2.509   2.009  -0.430  0.6603  0.5272 -0.3612
    72IDQ   C6010284   2.639   2.093  -0.412  0.8175 -1.3669 -1.1321
    72IDQ   C6110285   2.632   2.227  -0.461  0.3624 -1.1973  0.0033
    72IDQ   C6210286   2.618   2.254  -0.616 -0.7009 -0.3943 -0.3352
    72IDQ   C6310287   2.572   2.397  -0.637  0.6334  0.4401 -0.1526
    72IDQ   C6410288   2.634   2.443  -0.758  1.0157 -1.2160 -0.7179
    72IDQ   C6510289   2.612   2.590  -0.736  0.3250  0.2451  0.6155
    72IDQ   C6610290   2.459   1.550  -0.573  0.4524  1.0504 -0.3396
    72IDQ   C6710291   2.597   1.463  -0.535  0.0169  0.0989  0.2781
    72IDQ   C6810292   2.727   1.527  -0.595 -0.3192  0.2593 -0.2624
    72IDQ   C6910293   2.849   1.503  -0.507 -0.1519 -0.4800  0.8670
    72IDQ   C7010294   2.871   1.566  -0.369 -0.8499  0.5318  0.0509
    72IDQ   C7110295   2.979   1.534  -0.261 -0.2273 -0.3387 -1.2984
    72IDQ   C7210296   2.990   1.392  -0.226  0.5623 -0.3043 -0.4860
    11RH     C110297   6.307   3.248   3.882  0.2830  0.3289 -0.5111
    11RH     C210298   6.360   3.115   3.843 -0.2644  0.0163 -0.2053
    11RH     N110299   6.377   3.301   3.992  0.2899  0.1408 -0.4235
    11RH     S110300   6.499   3.069   3.953 -0.7350 -0.5046  0.1771
    11RH     C310301   6.480   3.227   4.046 -0.1855 -0.2842 -0.0854
    11RH     C410302   6.349   3.438   4.052  0.8942  0.1306 -0.0802
    11RH     S210303   6.580   3.268   4.176 -0.2859 -0.5822  0.0851
    11RH     O110304   6.212   3.307   3.827  0.6907  0.7092 -0.8086
    11RH     C510305   6.310   3.043   3.742 -0.3808  0.1126 -0.2178
    21BTZ    C610306   6.332   2.909   3.691 -0.0745 -0.0149  0.2026
    21BTZ    C710307   6.411   2.817   3.754 -0.0048 -0.0262  0.0980
    21BTZ    C810308   6.271   2.874   3.566 -0.0851  0.0640  0.1854
    21BTZ    C910309   6.435   2.686   3.697  0.0577  0.0391 -0.0281
    21BTZ   C1010310   6.378   2.648   3.578  0.0505  0.1155 -0.0493
    21BTZ   C1110311   6.294   2.741   3.509 -0.0215  0.1303  0.0571
    21BTZ    N210312   6.191   2.955   3.496 -0.1500  0.0825  0.2798
    21BTZ    N310313   6.234   2.716   3.392 -0.0355  0.2022  0.0485
    21BTZ    S310314   6.142   2.863   3.350 -0.1325  0.1877  0.2075
    31IDT   C1210315   6.448   2.537   3.505 -0.5536 -0.1848 -0.0225
    31IDT   C1310316   6.457   2.525   3.368 -0.5951 -0.2936 -0.0157
    31IDT   C1410317   6.545   2.421   3.327 -0.0849  0.1124  0.0359
    31IDT   C1510318   6.604   2.352   3.431  0.3475  0.5325  0.0684
    31IDT    S410319   6.552   2.416   3.591  0.1402  0.4455  0.0362
    4IDB    C1610320   6.700   2.259   3.382 -0.2016 -0.7339  0.4249
    4IDB    C1710321   6.692   2.258   3.240 -0.1497 -0.3701  0.4176
    51IDQ   C1810322   6.599   2.373   3.190  0.2038 -0.6077 -0.9511
    4IDB    C1910323   6.772   2.172   3.165  0.1400  0.0781  0.2101
    51IDQ   C2010324   6.679   2.498   3.127  0.1929  0.8280 -0.3382
    51IDQ   C2110325   6.476   2.317   3.110 -0.0349 -0.6618  0.2401
    51IDQ   C2210326   6.445   2.168   3.080 -0.5005  1.0827 -0.6522
    51IDQ   C2310327   6.688   2.645   3.176 -0.4418 -1.1633 -2.4875
    51IDQ   C2410328   6.345   2.136   2.978  0.3952 -0.2668 -0.6130
    51IDQ   C2510329   6.220   2.212   3.005  0.0375 -0.2506 -0.0439
    51IDQ   C2610330   6.107   2.187   3.107  0.6163 -1.2740  1.0548
    51IDQ   C2710331   5.961   2.193   3.064  0.0948 -0.8882  0.6317
    51IDQ   C2810332   5.861   2.152   3.176  0.5565 -0.5451 -1.1673
    51IDQ   C2910333   5.715   2.210   3.171 -1.1020  0.5034 -0.4344
    51IDQ   C3010334   6.755   2.678   3.292  0.0665  0.4742 -1.0308
    51IDQ   C3110335   6.780   2.829   3.302  0.8556 -0.2240  0.0664
    51IDQ   C3210336   6.654   2.926   3.335  0.1629  0.1204  0.8438
    51IDQ   C3310337   6.651   2.994   3.472 -0.0266  0.6072  0.8771
    51IDQ   C3410338   6.766   3.064   3.544 -0.8898  0.0417  0.0336
    51IDQ   C3510339   6.734   3.081   3.693 -0.7698  1.1374  0.0559
    4IDB    C3610340   6.788   2.174   3.451  0.0381 -0.6508  0.2230
    4IDB    C3710341   6.869   2.087   3.373  0.3326 -0.1906  0.0128
    11RH    C3810342   6.456   3.540   4.011  1.9265  0.8334  0.9642
    4IDB    C3910343   6.860   2.087   3.234  0.3792  0.1613  0.0084
    62IDT   C4010344   6.970   2.012   3.176  0.3583 -0.8928  0.2208
    72IDQ   C4110345   6.968   1.975   3.418  0.7524 -0.9473 -0.1281
    62IDT   C4210346   7.029   1.942   3.279 -0.0187 -1.8277 -0.1910
    72IDQ   C4310347   6.883   1.848   3.469 -1.1959  0.1647  0.3282
    72IDQ   C4410348   7.066   2.023   3.528 -0.7537  0.2806 -0.9146
    62IDT    S510349   7.046   1.976   3.018  0.7364  0.3093  0.1233
    62IDT   C4510350   7.160   1.863   3.103  0.3463 -0.5581 -0.4996
    62IDT   C4610351   7.136   1.857   3.238 -0.0259 -1.6400 -0.5989
    82BTZ   C4710352   7.265   1.791   3.030  0.4378 -0.0089  0.1819
    82BTZ   C4810353   7.291   1.829   2.901  0.4095 -0.3602  0.0721
    82BTZ   C4910354   7.395   1.767   2.823  0.2516 -0.7210  0.1446
    82BTZ   C5010355   7.474   1.667   2.875  0.1223 -0.7299  0.3266
    82BTZ   C5110356   7.345   1.687   3.088  0.3062 -0.0029  0.3734
    82BTZ   C5210357   7.451   1.624   3.009  0.1457 -0.3696  0.4472
    92RH    C5310358   7.589   1.598   2.811  0.3817  0.0480  0.4084
    82BTZ    N410359   7.330   1.642   3.213  0.3187  0.3207  0.4938
    82BTZ    N510360   7.521   1.528   3.070  0.0292 -0.3408  0.6267
    82BTZ    S610361   7.453   1.514   3.235  0.1217  0.1669  0.7109
    92RH    C5410362   7.652   1.623   2.696  0.2479  0.1234  0.3504
    92RH     S710363   7.616   1.758   2.577 -0.1260 -0.0160  0.3029
    92RH    C5510364   7.765   1.541   2.646  0.3880  0.3390  0.3147
    92RH     O210365   7.814   1.442   2.703  0.6406  0.4728  0.3337
    92RH     N610366   7.813   1.590   2.522  0.1970  0.3764  0.2547
    92RH    C5610367   7.753   1.701   2.467 -0.0791  0.2172  0.2383
    92RH    C5710368   7.938   1.535   2.454  0.7502  0.1031  1.4418
    92RH    C5810369   8.069   1.521   2.544  0.4294  0.4645 -0.2519
    92RH     S810370   7.790   1.778   2.322 -0.3466  0.2213  0.1704
    72IDQ   C5910371   7.218   2.022   3.546 -0.1516  0.1470 -0.2184
    72IDQ   C6010372   7.327   2.116   3.476  0.9392 -0.8731  0.1116
    72IDQ   C6110373   7.326   2.258   3.489  1.2936 -0.7156  0.1991
    72IDQ   C6210374   7.319   2.330   3.623  1.9028  0.2214  0.5208
    72IDQ   C6310375   7.365   2.474   3.605 -0.1682 -1.2161  0.3229
    72IDQ   C6410376   7.338   2.570   3.722  0.6126 -0.7561 -1.4253
    72IDQ   C6510377   7.431   2.534   3.836  0.6675 -0.1360 -0.0548
    72IDQ   C6610378   6.885   1.774   3.598  0.0629 -0.7153  0.3908
    72IDQ   C6710379   6.763   1.695   3.647  0.9425 -0.5608 -0.4810
    72IDQ   C6810380   6.680   1.588   3.561 -1.4901  0.6852 -0.1876
    72IDQ   C6910381   6.613   1.475   3.643  0.6146 -1.6733 -0.3369
    72IDQ   C7010382   6.557   1.377   3.555  0.6035 -0.9527 -1.0984
    72IDQ   C7110383   6.514   1.249   3.620 -1.1519  0.6244 -0.4936
    72IDQ   C7210384   6.644   1.166   3.602 -0.4347 -0.8663  0.2042
    11RH     C110385   0.782   3.286   0.180  0.1846 -0.6557  0.4036
    11RH     C210386   0.742   3.413   0.244  0.2148 -0.5169  0.1512
    11RH     N110387   0.742   3.174   0.256  0.0131 -0.4989  0.5438
    11RH     S110388   0.653   3.377   0.401  0.0158 -0.1892  0.1147
    11RH     C310389   0.674   3.196   0.374 -0.0977 -0.2517  0.4346
    11RH     C410390   0.782   3.037   0.210 -1.1120  0.0702 -0.7615
    11RH     S210391   0.615   3.081   0.482 -0.3068 -0.0272  0.5603
    11RH     O110392   0.844   3.276   0.072  0.2936 -0.8810  0.4862
    11RH     C510393   0.768   3.534   0.193  0.3664 -0.6219 -0.0188
    21BTZ    C610394   0.760   3.668   0.235  0.5446 -0.4837  0.1832
    21BTZ    C710395   0.703   3.709   0.353  0.2984 -0.5953  0.1031
    21BTZ    C810396   0.800   3.767   0.140  0.1099 -0.4226  0.0636
    21BTZ    C910397   0.682   3.849   0.382 -0.3827 -0.6522 -0.0973
    21BTZ   C1010398   0.718   3.947   0.293 -0.8164 -0.5974 -0.2172
    21BTZ   C1110399   0.779   3.909   0.169 -0.5823 -0.4805 -0.1401
    21BTZ    N210400   0.857   3.739   0.022  0.2916 -0.3139  0.1252
    21BTZ    N310401   0.818   3.995   0.075 -0.9570 -0.4182 -0.2424
    21BTZ    S310402   0.886   3.897  -0.058 -0.4296 -0.2800 -0.0785
    31IDT   C1210403   0.741   4.087   0.349  0.0654 -0.2017  0.0529
    31IDT   C1310404   0.774   4.204   0.286 -0.6967  0.0041  0.0236
    31IDT   C1410405   0.816   4.307   0.377 -0.8691  0.1321 -0.0416
    31IDT   C1510406   0.814   4.268   0.509 -0.2412  0.0246 -0.0624
    31IDT    S410407   0.760   4.098   0.529  0.6251 -0.2495 -0.0004
    4IDB    C1610408   0.825   4.380   0.598  0.5038 -0.0176  0.0505
    4IDB    C1710409   0.858   4.496   0.522 -0.8970  0.4699  0.1611
    51IDQ   C1810410   0.841   4.458   0.366 -0.2417  0.0169 -0.0159
    4IDB    C1910411   0.880   4.618   0.584 -0.8138  0.3179  0.4331
    51IDQ   C2010412   0.708   4.518   0.315 -0.3781 -0.3020  0.0153
    51IDQ   C2110413   0.952   4.500   0.261 -0.0563  0.7052 -1.2477
    51IDQ   C2210414   1.089   4.504   0.325 -0.2716 -0.2000 -0.0953
    51IDQ   C2310415   0.569   4.450   0.331 -1.0645 -0.8669  1.4535
    51IDQ   C2410416   1.193   4.598   0.276 -0.6728 -0.8091 -0.1785
    51IDQ   C2510417   1.288   4.652   0.389 -0.2386 -0.9140  0.2971
    51IDQ   C2610418   1.398   4.755   0.349  0.8469 -0.4137  0.6560
    51IDQ   C2710419   1.550   4.714   0.322  0.1619  0.9908 -0.0744
    51IDQ   C2810420   1.560   4.604   0.236 -0.5704 -0.0471 -1.0823
    51IDQ   C2910421   1.608   4.624   0.086  0.6126  0.5739  0.2134
    51IDQ   C3010422   0.460   4.497   0.247  0.4165  1.1494 -0.6395
    51IDQ   C3110423   0.419   4.656   0.249 -0.3286 -0.1756 -0.5071
    51IDQ   C3210424   0.298   4.669   0.157 -0.2704 -0.5693 -0.3102
    51IDQ   C3310425   0.170   4.606   0.180 -0.0993  0.5643  0.5420
    51IDQ   C3410426   0.073   4.689   0.093 -0.6767  0.1010  0.1512
    51IDQ   C3510427  -0.079   4.660   0.081  0.1525  0.8930  0.2765
    4IDB    C3610428   0.814   4.386   0.738  2.0050 -0.6638  0.2126
    4IDB    C3710429   0.837   4.512   0.800  2.0669 -0.8101  0.4902
    11RH    C3810430   0.914   2.981   0.265 -0.3142  0.4112 -0.8490
    4IDB    C3910431   0.869   4.624   0.723  0.6874 -0.3284  0.5952
    62IDT   C4010432   0.866   4.744   0.809  0.5240 -0.1992  0.2297
    72IDQ   C4110433   0.842   4.556   0.947 -0.0033 -0.6714 -0.0215
    62IDT   C4210434   0.889   4.709   0.940  0.6248 -0.4170  0.1543
    72IDQ   C4310435   0.969   4.472   1.009 -1.0465 -0.1965  0.9648
    72IDQ   C4410436   0.739   4.517   1.034  0.0701  0.8014 -1.2135
    62IDT    S510437   0.830   4.919   0.791  0.0870 -0.2520  0.5977
    62IDT   C4510438   0.848   4.936   0.971  0.0625 -0.5817  0.6320
    62IDT   C4610439   0.878   4.817   1.032  0.3641 -0.6337  0.3816
    82BTZ   C4710440   0.844   5.064   1.056  0.2610  0.0062 -0.3562
    82BTZ   C4810441   0.791   5.050   1.181  0.3227 -0.2208 -0.3555
    82BTZ   C4910442   0.801   5.154   1.280  0.4469 -0.4344 -0.1428
    82BTZ   C5010443   0.865   5.273   1.254  0.5093 -0.4200  0.0689
    82BTZ   C5110444   0.912   5.187   1.023  0.3223  0.0303 -0.1389
    82BTZ   C5210445   0.922   5.292   1.124  0.4486 -0.1867  0.0774
    92RH    C5310446   0.872   5.362   1.368 -0.3681  0.9512 -0.3070
    82BTZ    N410447   0.968   5.212   0.905  0.2719  0.2413 -0.1171
    82BTZ    N510448   0.987   5.403   1.087  0.4996 -0.1502  0.2728
    82BTZ    S610449   1.038   5.377   0.918  0.3861  0.1698  0.1870
    92RH    C5410450   0.821   5.365   1.491 -0.1112  0.5136 -0.1875
    92RH     S710451   0.684   5.261   1.556  0.4387 -0.1560 -0.0794
    92RH    C5510452   0.869   5.456   1.598 -0.2389  0.5062 -0.1226
    92RH     O210453   0.962   5.538   1.586 -0.5915  0.8957 -0.1700
    92RH     N610454   0.798   5.438   1.718  0.0943 -0.0082  0.0028
    92RH    C5610455   0.697   5.343   1.721  0.4733 -0.4137  0.0462
    92RH    C5710456   0.812   5.543   1.824 -1.3565  0.0532  0.6561
    92RH    C5810457   0.887   5.527   1.951 -0.7418  1.1378 -0.0340
    92RH     S810458   0.597   5.303   1.850  0.9167 -1.0571  0.1905
    72IDQ   C5910459   0.597   4.579   1.033  0.4899 -0.4078  0.0038
    72IDQ   C6010460   0.549   4.704   1.116 -0.4062 -0.4516 -0.7035
    72IDQ   C6110461   0.489   4.809   1.023 -0.9267  0.0816  0.8251
    72IDQ   C6210462   0.438   4.965   1.048  1.7412 -0.3467  0.6373
    72IDQ   C6310463   0.378   5.045   0.931 -0.4177  0.8921  0.0990
    72IDQ   C6410464   0.410   5.016   0.785 -0.4699 -0.6903  0.2208
    72IDQ   C6510465   0.470   5.144   0.734 -0.2302  0.7208  0.0552
    72IDQ   C6610466   1.081   4.420   0.933  0.1993  1.5550 -0.2487
    72IDQ   C6710467   1.167   4.523   0.883  1.1866  0.1761  0.2905
    72IDQ   C6810468   1.300   4.478   0.864 -1.1388  1.2650  0.2982
    72IDQ   C6910469   1.323   4.465   0.717  0.6122 -0.1739  0.3773
    72IDQ   C7010470   1.450   4.397   0.664 -0.5074  0.2404 -0.5848
    72IDQ   C7110471   1.425   4.263   0.689 -1.5249  1.0227  0.5558
    72IDQ   C7210472   1.493   4.186   0.571  0.7048  0.1149 -0.4407
    11RH     C110473   4.879   6.604   1.397  0.0350 -0.2410 -0.2084
    11RH     C210474   4.774   6.514   1.344 -0.1342 -0.0124 -0.2590
    11RH     N110475   4.825   6.703   1.482  0.2235 -0.2025 -0.1323
    11RH     S110476   4.610   6.566   1.409 -0.0335  0.2381 -0.2033
    11RH     C310477   4.689   6.703   1.504  0.2267  0.0293 -0.1159
    11RH     C410478   4.933   6.788   1.560  1.2556  0.1350 -0.6251
    11RH     S210479   4.600   6.809   1.600  0.4303  0.1228 -0.0306
    11RH     O110480   5.000   6.596   1.371  0.0172 -0.4432 -0.2286
    11RH     C510481   4.798   6.413   1.260 -0.3290  0.0015 -0.3337
    21BTZ    C610482   4.700   6.314   1.203  1.0912 -0.6500  0.5088
    21BTZ    C710483   4.570   6.296   1.242  1.0729 -0.4318  0.5476
    21BTZ    C810484   4.751   6.233   1.096  0.8216 -0.4959  0.2634
    21BTZ    C910485   4.484   6.199   1.179  0.7901 -0.0539  0.3483
    21BTZ   C1010486   4.528   6.120   1.076  0.5264  0.1047  0.1109
    21BTZ   C1110487   4.664   6.135   1.031  0.5341 -0.1121  0.0609
    21BTZ    N210488   4.876   6.241   1.049  0.8104 -0.6807  0.2025
    21BTZ    N310489   4.718   6.063   0.932  0.2921  0.0117 -0.1627
    21BTZ    S310490   4.887   6.121   0.917  0.4242 -0.3653 -0.1229
    31IDT   C1210491   4.433   6.028   1.012 -0.1663  0.4249 -0.2583
    31IDT   C1310492   4.466   5.906   0.961 -0.0112  0.6211 -0.6361
    31IDT   C1410493   4.352   5.833   0.915  0.0684  0.5753 -0.7609
    31IDT   C1510494   4.232   5.900   0.930 -0.0251  0.3440 -0.4798
    31IDT    S410495   4.255   6.061   1.006 -0.2229  0.1647 -0.0310
    4IDB    C1610496   4.120   5.824   0.892 -0.0779 -0.3974  0.2320
    4IDB    C1710497   4.161   5.707   0.821 -0.1669 -0.3369  0.0810
    51IDQ   C1810498   4.317   5.691   0.855 -0.2739 -1.2620 -1.0562
    4IDB    C1910499   4.067   5.620   0.766 -0.2295 -0.0320 -0.2982
    51IDQ   C2010500   4.365   5.587   0.965  0.3473 -0.0847 -1.1534
    51IDQ   C2110501   4.414   5.680   0.734  0.8003 -0.0485  0.3488
    51IDQ   C2210502   4.352   5.708   0.593  0.0120 -1.2622 -0.3563
    51IDQ   C2310503   4.312   5.445   0.966  0.7997  0.4573 -1.1858
    51IDQ   C2410504   4.397   5.596   0.508  0.0964 -0.9089  0.9460
    51IDQ   C2510505   4.549   5.608   0.469 -1.4202  0.3651  0.0590
    51IDQ   C2610506   4.580   5.521   0.339  0.1034  1.3704 -0.4364
    51IDQ   C2710507   4.714   5.546   0.293 -1.8871  0.2682  0.2053
    51IDQ   C2810508   4.772   5.498   0.162 -0.5572  1.1441 -0.5595
    51IDQ   C2910509   4.737   5.353   0.105  0.9190 -0.6580  1.2440
    51IDQ   C3010510   4.395   5.357   1.055  0.7214 -0.2660 -0.3712
    51IDQ   C3110511   4.351   5.205   1.061  1.6320 -0.4732  0.8269
    51IDQ   C3210512   4.394   5.106   1.172  0.0161  1.1450 -0.2135
    51IDQ   C3310513   4.361   5.129   1.322  0.3235  1.2237  0.4276
    51IDQ   C3410514   4.227   5.172   1.349 -0.5443  0.1974 -1.0146
    51IDQ   C3510515   4.205   5.145   1.505  1.4532 -0.0519  0.1161
    4IDB    C3610516   3.984   5.855   0.909 -0.0509 -0.1514  0.0029
    4IDB    C3710517   3.890   5.765   0.852 -0.1154  0.1588 -0.3839
    11RH    C3810518   4.993   6.746   1.686 -0.3924 -0.8096 -1.0788
    4IDB    C3910519   3.931   5.651   0.783 -0.2023  0.2140 -0.5273
    62IDT   C4010520   3.826   5.575   0.732 -0.1964  0.1870 -0.7047
    72IDQ   C4110521   3.739   5.752   0.858  1.4730 -0.1604 -0.0364
    62IDT   C4210522   3.706   5.627   0.776 -0.1549  0.0520 -0.4338
    72IDQ   C4310523   3.669   5.882   0.831  0.5099  0.6112  1.1961
    72IDQ   C4410524   3.717   5.695   1.014  0.7026 -0.3648 -0.1048
    62IDT    S510525   3.802   5.424   0.637 -0.2153 -0.0361 -0.3477
    62IDT   C4510526   3.623   5.441   0.664 -0.1639 -0.3138  0.1743
    62IDT   C4610527   3.591   5.551   0.738 -0.1367 -0.2315  0.0634
    82BTZ   C4710528   3.536   5.318   0.629 -0.0220  0.2103  0.8639
    82BTZ   C4810529   3.614   5.218   0.576  0.0951  0.1678  1.1145
    82BTZ   C4910530   3.556   5.094   0.531  0.1769  0.1886  0.9529
    82BTZ   C5010531   3.422   5.070   0.538  0.1417  0.2521  0.5409
    82BTZ   C5110532   3.395   5.298   0.639 -0.0634  0.2770  0.4303
    82BTZ   C5210533   3.336   5.172   0.593  0.0199  0.2980  0.2660
    92RH    C5310534   3.349   4.964   0.475  0.0346 -0.0070  0.0237
    82BTZ    N410535   3.309   5.388   0.688 -0.1752  0.3231  0.1554
    82BTZ    N510536   3.204   5.160   0.605 -0.0252  0.3612 -0.1409
    82BTZ    S610537   3.147   5.313   0.678 -0.1790  0.3966 -0.3354
    92RH    C5410538   3.389   4.857   0.406  0.1130 -0.0126  0.0779
    92RH     S710539   3.556   4.781   0.409  0.0467 -0.1454  0.4402
    92RH    C5510540   3.302   4.782   0.313  0.2707  0.0913 -0.1564
    92RH     O210541   3.183   4.809   0.288  0.3479  0.1943 -0.4251
    92RH     N610542   3.370   4.674   0.253  0.3253  0.0595 -0.0367
    92RH    C5610543   3.502   4.653   0.287  0.2306 -0.0567  0.2648
    92RH    C5710544   3.292   4.589   0.162  0.0839  0.5361 -0.2864
    92RH    C5810545   3.204   4.477   0.218 -0.4597 -0.5657  0.5625
    92RH     S810546   3.605   4.533   0.231  0.2676 -0.1173  0.4615
    72IDQ   C5910547   3.631   5.756   1.121 -0.1335  0.5435  0.5192
    72IDQ   C6010548   3.623   5.903   1.160 -0.7478 -1.2133 -0.6065
    72IDQ   C6110549   3.561   5.899   1.303 -1.3606  0.6932  0.7858
    72IDQ   C6210550   3.522   6.050   1.340  0.1174 -0.6706 -0.7914
    72IDQ   C6310551   3.445   6.048   1.480 -0.8753 -0.2575  0.2935
    72IDQ   C6410552   3.342   6.163   1.500  0.9764 -0.7642 -0.7498
    72IDQ   C6510553   3.266   6.179   1.632  0.4838 -0.6859  0.2424
    72IDQ   C6610554   3.633   5.929   0.689  1.5292 -0.1421  1.2728
    72IDQ   C6710555   3.752   5.961   0.599  0.5931  0.1507  0.1137
    72IDQ   C6810556   3.702   5.964   0.460  1.1555 -0.1040  1.2482
    72IDQ   C6910557   3.805   5.942   0.343 -0.0891  0.6696  0.5448
    72IDQ   C7010558   3.867   5.790   0.339 -0.1741 -0.5248  0.7626
    72IDQ   C7110559   3.927   5.717   0.220 -0.4071  0.6545 -1.1052
    72IDQ   C7210560   4.033   5.773   0.134  1.0802  0.2846 -0.6057
    11RH     C110561   3.487   5.907   2.203  0.2463 -0.9401  0.1885
    11RH     C210562   3.358   5.833   2.191  0.0949 -0.6227 -0.1489
    11RH     N110563   3.593   5.819   2.234 -0.0118 -1.2381  0.2429
    11RH     S110564   3.386   5.654   2.222 -0.3774 -0.7367 -0.3723
    11RH     C310565   3.566   5.685   2.249 -0.3515 -1.1976 -0.0095
    11RH     C410566   3.732   5.857   2.256  0.4516 -0.4930 -0.0248
    11RH     S210567   3.674   5.561   2.286 -0.7056 -1.5080 -0.0082
    11RH     O110568   3.502   6.029   2.188  0.5591 -0.9503  0.4009
    11RH     C510569   3.242   5.892   2.162  0.2831 -0.3060 -0.2635
    21BTZ    C610570   3.114   5.841   2.105 -0.1874  0.1089  0.0337
    21BTZ    C710571   3.098   5.715   2.053 -0.2667  0.1123  0.0509
    21BTZ    C810572   3.006   5.934   2.095 -0.1599  0.1476  0.0995
    21BTZ    C910573   2.975   5.675   1.989 -0.3228  0.1531  0.1330
    21BTZ   C1010574   2.868   5.761   1.977 -0.2994  0.1911  0.1976
    21BTZ   C1110575   2.881   5.894   2.030 -0.2170  0.1891  0.1829
    21BTZ    N210576   3.010   6.059   2.143 -0.0840  0.1485  0.0905
    21BTZ    N310577   2.784   5.986   2.025 -0.1869  0.2234  0.2407
    21BTZ    S310578   2.851   6.132   2.105 -0.0825  0.2040  0.1901
    31IDT   C1210579   2.731   5.721   1.924  1.3956  1.0641 -1.0757
    31IDT   C1310580   2.619   5.704   2.001  2.5790  0.5789  0.6012
    31IDT   C1410581   2.523   5.618   1.940  2.3197 -0.4117  2.3537
    31IDT   C1510582   2.560   5.569   1.817  0.9403 -0.6868  2.0254
    31IDT    S410583   2.723   5.628   1.768 -0.1473  0.2956 -0.5524
    4IDB    C1610584   2.445   5.507   1.749  0.1018  0.4366  0.4300
    4IDB    C1710585   2.341   5.519   1.845 -0.3175  0.6831 -0.0482
    51IDQ   C1810586   2.378   5.597   1.971 -0.3158  0.0326  0.4678
    4IDB    C1910587   2.214   5.468   1.821 -0.1977  0.5747 -0.4444
    51IDQ   C2010588   2.293   5.728   2.027 -0.3849 -0.8380  0.1229
    51IDQ   C2110589   2.385   5.508   2.109 -0.3246  0.3860 -0.1928
    51IDQ   C2210590   2.391   5.355   2.114 -0.0715 -0.0695 -0.1553
    51IDQ   C2310591   2.254   5.837   1.928  0.1987 -0.6617  0.9077
    51IDQ   C2410592   2.524   5.280   2.089 -0.3125  0.4401 -0.0201
    51IDQ   C2510593   2.662   5.318   2.166  0.7124  1.4573 -0.7049
    51IDQ   C2610594   2.801   5.257   2.118 -0.0622 -0.5948  1.0482
    51IDQ   C2710595   2.841   5.334   1.991  1.3611 -1.2219  0.8460
    51IDQ   C2810596   2.826   5.281   1.858 -0.1056 -0.8592 -0.0497
    51IDQ   C2910597   2.911   5.354   1.769 -0.4104 -0.8752  0.5242
    51IDQ   C3010598   2.106   5.882   1.949 -0.1589 -0.2395 -0.2184
    51IDQ   C3110599   2.075   6.042   1.961  0.1050  0.5883 -1.3942
    51IDQ   C3210600   1.931   6.075   1.981  0.1591  0.7630 -0.1569
    51IDQ   C3310601   1.855   6.111   1.844 -0.9925  0.2843 -2.0928
    51IDQ   C3410602   1.740   6.016   1.802  0.4847 -0.4866 -1.1262
    51IDQ   C3510603   1.661   6.070   1.700 -1.4839 -0.5758  0.3194
    4IDB    C3610604   2.423   5.443   1.626  0.6468  0.0770  0.5151
    4IDB    C3710605   2.293   5.391   1.602  0.7616 -0.0291  0.1058
    11RH    C3810606   3.850   5.897   2.156  0.9138 -0.4671  1.0901
    4IDB    C3910607   2.192   5.404   1.698  0.3474  0.2155 -0.3594
    62IDT   C4010608   2.070   5.332   1.656 -0.5515  0.6220 -1.2890
    72IDQ   C4110609   2.228   5.310   1.482  0.5500 -0.1943  0.8776
    62IDT   C4210610   2.074   5.299   1.522 -1.2544  0.6943 -1.3323
    72IDQ   C4310611   2.301   5.168   1.460  0.3420 -0.0242  1.1216
    72IDQ   C4410612   2.200   5.412   1.361 -0.1895 -0.2680  0.4066
    62IDT    S510613   1.918   5.275   1.734  0.3011 -0.3216 -0.2835
    62IDT   C4510614   1.866   5.207   1.573 -0.3703 -0.5804  0.0410
    62IDT   C4610615   1.959   5.229   1.475 -1.1529  0.0150 -0.5806
    82BTZ   C4710616   1.722   5.157   1.558 -0.0979 -0.3192 -0.2953
    82BTZ   C4810617   1.664   5.106   1.671 -0.0271  0.0565 -0.0893
    82BTZ   C4910618   1.522   5.080   1.678 -0.0928  0.4904  0.2372
    82BTZ   C5010619   1.439   5.104   1.572 -0.2292  0.5478  0.3572
    82BTZ   C5110620   1.639   5.184   1.444 -0.2410 -0.2766 -0.1810
    82BTZ   C5210621   1.495   5.157   1.451 -0.3078  0.1645  0.1509
    92RH    C5310622   1.299   5.080   1.586 -0.4511  0.5214  0.0266
    82BTZ    N410623   1.684   5.233   1.328 -0.3209 -0.6177 -0.3586
    82BTZ    N510624   1.424   5.185   1.342 -0.4413  0.1774  0.2401
    82BTZ    S610625   1.541   5.248   1.222 -0.4882 -0.3846 -0.1036
    92RH    C5410626   1.221   5.022   1.678 -0.3177  0.3676  0.0442
    92RH     S710627   1.276   4.940   1.832 -0.0975  0.1586 -0.1460
    92RH    C5510628   1.073   5.017   1.668 -0.3289  0.3433  0.2270
    92RH     O210629   1.005   5.065   1.576 -0.4604  0.4597  0.3825
    92RH     N610630   1.016   4.951   1.779 -0.1689  0.1682  0.2041
    92RH    C5610631   1.101   4.902   1.877 -0.0309  0.0491  0.0254
    92RH    C5710632   0.873   4.917   1.790  0.4166  1.3127  0.1937
    92RH    C5810633   0.814   4.791   1.726  0.3350  0.0312 -0.2380
    92RH     S810634   1.059   4.820   2.018  0.1719 -0.1657 -0.0397
    72IDQ   C5910635   2.331   5.432   1.269 -0.8763  0.1183 -0.5632
    72IDQ   C6010636   2.335   5.558   1.172  0.0101 -0.0433 -0.6519
    72IDQ   C6110637   2.456   5.565   1.074  1.0594  0.1302 -0.2647
    72IDQ   C6210638   2.474   5.451   0.971  0.0846  0.2395  0.7311
    72IDQ   C6310639   2.629   5.426   0.924  0.4925  1.9094  0.1603
    72IDQ   C6410640   2.687   5.553   0.852  0.1884  0.9899  0.8096
    72IDQ   C6510641   2.805   5.503   0.769 -0.6240 -1.2178 -0.4583
    72IDQ   C6610642   2.251   5.058   1.363 -0.4944  0.4909 -0.5021
    72IDQ   C6710643   2.275   5.096   1.216  0.3843 -1.0720  0.4794
    72IDQ   C6810644   2.158   5.064   1.125 -1.4855  0.8499  0.6093
    72IDQ   C6910645   2.191   5.097   0.981 -0.4819 -0.9452  1.1001
    72IDQ   C7010646   2.204   5.226   0.914 -0.6250  0.2373  0.6138
    72IDQ   C7110647   2.201   5.220   0.767 -0.6178 -1.0457  0.4638
    72IDQ   C7210648   2.307   5.146   0.696 -0.3671  0.4700 -0.5460
    11RH     C110649   1.583   3.635   4.070 -0.0545  0.1695  0.2398
    11RH     C210650   1.449   3.673   4.120 -0.0291  0.1117  0.3536
    11RH     N110651   1.579   3.599   3.933 -0.1769  0.0532  0.2737
    11RH     S110652   1.326   3.660   3.984 -0.1677 -0.0920  0.4979
    11RH     C310653   1.458   3.604   3.868 -0.2527 -0.0910  0.4010
    11RH     C410654   1.707   3.572   3.862  1.3169  1.0657  0.3821
    11RH     S210655   1.426   3.567   3.706 -0.4012 -0.2487  0.4662
    11RH     O110656   1.687   3.633   4.137  0.0203  0.3028  0.1276
    11RH     C510657   1.425   3.711   4.246  0.0800  0.1991  0.3478
    21BTZ    C610658   1.308   3.720   4.330 -0.2620  0.1403 -0.5058
    21BTZ    C710659   1.189   3.673   4.281 -0.3670  0.1215 -0.2377
    21BTZ    C810660   1.328   3.720   4.472  0.1322 -0.0275 -0.5617
    21BTZ    C910661   1.085   3.623   4.367 -0.0920 -0.0620 -0.0134
    21BTZ   C1010662   1.100   3.620   4.504  0.2875 -0.2263 -0.0567
    21BTZ   C1110663   1.223   3.669   4.560  0.4116 -0.2140 -0.3338
    21BTZ    N210664   1.439   3.763   4.532  0.2691 -0.0274 -0.8137
    21BTZ    N310665   1.249   3.671   4.691  0.7733 -0.3637 -0.4022
    21BTZ    S310666   1.413   3.740   4.708  0.7718 -0.2708 -0.7693
    31IDT   C1210667   0.994   3.554   4.583  0.4391  1.5435  0.4333
    31IDT   C1310668   0.930   3.442   4.537  1.2811  1.3732 -0.3848
    31IDT   C1410669   0.821   3.403   4.622  1.4382  0.0533 -0.7737
    31IDT   C1510670   0.803   3.484   4.731  0.7188 -0.7891 -0.2556
    31IDT    S410671   0.922   3.618   4.737 -0.2221  0.0311  0.7742
    4IDB    C1610672   0.708   3.429   4.822 -0.1922  0.7138 -0.5514
    4IDB    C1710673   0.649   3.315   4.760 -0.0963  0.4114 -0.0978
    51IDQ   C1810674   0.704   3.300   4.609 -0.3303  0.5372  0.1480
    4IDB    C1910675   0.572   3.226   4.833 -0.0823  0.6774  0.2456
    51IDQ   C2010676   0.759   3.151   4.621  0.6319 -0.7116  1.7593
    51IDQ   C2110677   0.618   3.342   4.480 -0.9629  0.0269 -0.5203
    51IDQ   C2210678   0.490   3.421   4.501  0.2300 -0.1753 -0.0773
    51IDQ   C2310679   0.908   3.126   4.625  0.0649 -0.7372  0.3122
    51IDQ   C2410680   0.489   3.550   4.580  0.0436  0.2784 -0.6003
    51IDQ   C2510681   0.479   3.673   4.492 -0.4818 -0.3234 -0.7140
    51IDQ   C2610682   0.396   3.784   4.549 -0.0712 -0.4757 -0.3564
    51IDQ   C2710683   0.299   3.855   4.453  0.9688 -0.0316  0.4437
    51IDQ   C2810684   0.208   3.805   4.343 -1.5701  0.0004 -0.1279
    51IDQ   C2910685   0.068   3.777   4.369  0.2862  0.0225  0.7935
    51IDQ   C3010686   0.993   3.109   4.757  0.2727 -0.1494 -0.6266
    51IDQ   C3110687   1.150   3.128   4.729 -0.3564 -0.8064 -0.1280
    51IDQ   C3210688   1.231   3.051   4.828 -0.1902 -0.0440  0.5922
    51IDQ   C3310689   1.374   3.067   4.815  0.3253  0.5634  0.8571
    51IDQ   C3410690   1.390   3.159   4.924 -0.9302 -0.4042 -0.4147
    51IDQ   C3510691   1.545   3.185   4.937 -1.0922 -0.2892  0.2544
    4IDB    C3610692   0.691   3.454   4.959 -0.2751  1.2877 -0.6647
    4IDB    C3710693   0.611   3.362   5.032 -0.2594  1.5527 -0.3095
    11RH    C3810694   1.739   3.432   3.869  0.8595  1.3283 -0.4540
    4IDB    C3910695   0.554   3.251   4.970 -0.1653  1.2514  0.1326
    62IDT   C4010696   0.466   3.190   5.076 -0.5261  0.0977 -0.2257
    72IDQ   C4110697   0.581   3.359   5.175 -0.9226 -0.2875 -1.0877
    62IDT   C4210698   0.483   3.256   5.195  0.4130 -0.3548 -0.1042
    72IDQ   C4310699   0.512   3.500   5.208 -0.1573 -0.4230 -1.0582
    72IDQ   C4410700   0.731   3.367   5.256  0.2862  0.0082  0.3389
    62IDT    S510701   0.365   3.042   5.095 -0.4318  0.0616 -0.0089
    62IDT   C4510702   0.352   3.079   5.272  0.9393 -0.5956  0.2471
    62IDT   C4610703   0.419   3.194   5.307  1.2428 -0.7474  0.1633
    82BTZ   C4710704   0.255   3.036   5.373  0.6079  0.2723 -0.3168
    82BTZ   C4810705   0.135   2.997   5.320  0.8667 -0.1223 -0.6216
    82BTZ   C4910706   0.026   2.953   5.403  0.8659 -0.6663 -0.9103
    82BTZ   C5010707   0.038   2.947   5.540  0.6061 -0.8148 -0.8946
    82BTZ   C5110708   0.272   3.032   5.515  0.3297  0.1367 -0.2873
    82BTZ   C5210709   0.162   2.986   5.600  0.3288 -0.4164 -0.5813
    92RH    C5310710  -0.066   2.905   5.628  0.3034 -0.0364 -0.6459
    82BTZ    N410711   0.384   3.067   5.579  0.0632  0.4855 -0.0045
    82BTZ    N510712   0.185   2.984   5.732  0.0615 -0.5120 -0.5343
    82BTZ    S610713   0.353   3.042   5.753 -0.2058  0.1140 -0.1038
    92RH    C5410714  -0.193   2.869   5.606  0.2918 -0.0669 -0.5271
    92RH     S710715  -0.277   2.852   5.444  0.2173 -0.3432 -0.4607
    92RH    C5510716  -0.288   2.837   5.716  0.3395  0.1258 -0.4277
    92RH     O210717  -0.262   2.839   5.837  0.3951  0.3339 -0.4427
    92RH     N610718  -0.416   2.803   5.665  0.3146  0.0439 -0.3112
    92RH    C5610719  -0.434   2.803   5.528  0.2532 -0.1907 -0.3049
    92RH    C5710720  -0.513   2.761   5.779  0.4660 -0.7967 -0.0263
    92RH    C5810721  -0.639   2.851   5.803  0.2165 -0.3138  0.0624
    92RH     S810722  -0.574   2.767   5.443  0.2124 -0.3318 -0.1786
    72IDQ   C5910723   0.743   3.273   5.379  0.9887  2.3636 -0.1329
    72IDQ   C6010724   0.886   3.243   5.436  1.3885 -0.2903  0.3990
    72IDQ   C6110725   0.872   3.138   5.540  0.1692  0.3311 -1.2134
    72IDQ   C6210726   0.867   3.190   5.693 -0.9388  0.5437 -0.2096
    72IDQ   C6310727   0.781   3.295   5.732  0.6528  0.4268 -0.2807
    72IDQ   C6410728   0.665   3.260   5.833  0.1309 -0.0540 -0.6641
    72IDQ   C6510729   0.672   3.384   5.924  1.4237 -0.2135  0.6692
    72IDQ   C6610730   0.476   3.518   5.359 -0.7256  0.8358  0.4262
    72IDQ   C6710731   0.402   3.636   5.395  1.0490 -0.1565 -1.1470
    72IDQ   C6810732   0.419   3.769   5.343 -1.2797 -0.6281  1.1635
    72IDQ   C6910733   0.307   3.847   5.390  0.6281 -1.0863 -0.7983
    72IDQ   C7010734   0.222   3.907   5.285 -0.2731  0.0229  0.2500
    72IDQ   C7110735   0.076   3.958   5.289  0.4128 -0.3022  0.2055
    72IDQ   C7210736   0.066   4.040   5.159  0.6346  0.3569 -0.0658
    11RH     C110737   1.296   2.781   3.562 -0.5662  0.1009 -0.0846
    11RH     C210738   1.370   2.908   3.583 -0.1640 -0.1533  0.0556
    11RH     N110739   1.215   2.749   3.673 -0.6122  0.1990 -0.0900
    11RH     S110740   1.327   2.977   3.748  0.1278 -0.2467  0.1714
    11RH     C310741   1.214   2.835   3.781 -0.2958  0.0545  0.0287
    11RH     C410742   1.153   2.615   3.683 -0.8640  0.1087  0.2961
    11RH     S210743   1.127   2.821   3.924 -0.2733  0.1271  0.0497
    11RH     O110744   1.303   2.709   3.461 -0.8345  0.2172 -0.1864
    11RH     C510745   1.454   2.960   3.494 -0.0437 -0.2878  0.0886
    21BTZ    C610746   1.540   3.072   3.510 -0.3886  0.0430  0.4055
    21BTZ    C710747   1.571   3.147   3.620 -0.2953  0.0865  0.3498
    21BTZ    C810748   1.611   3.097   3.388 -0.3264 -0.1673  0.3994
    21BTZ    C910749   1.673   3.249   3.616 -0.1372 -0.0731  0.2859
    21BTZ   C1010750   1.744   3.276   3.502 -0.0726 -0.2760  0.2777
    21BTZ   C1110751   1.715   3.200   3.384 -0.1658 -0.3294  0.3345
    21BTZ    N210752   1.590   3.030   3.274 -0.4057 -0.2288  0.4499
    21BTZ    N310753   1.777   3.217   3.267 -0.1161 -0.5214  0.3328
    21BTZ    S310754   1.704   3.099   3.154 -0.2758 -0.5025  0.4159
    31IDT   C1210755   1.797   3.405   3.497  0.6241  0.0366 -0.4978
    31IDT   C1310756   1.737   3.528   3.480  0.6715 -0.0031 -0.9565
    31IDT   C1410757   1.829   3.636   3.493  0.5500  0.0473 -0.4880
    31IDT   C1510758   1.959   3.598   3.520  0.4094  0.1256  0.3286
    31IDT    S410759   1.975   3.419   3.531  0.4203  0.1416  0.5700
    4IDB    C1610760   2.042   3.721   3.527  0.1166  0.2870  1.0391
    4IDB    C1710761   1.963   3.834   3.490 -0.1581 -0.0706  0.5251
    51IDQ   C1810762   1.814   3.796   3.475  0.7215  0.1102  1.6450
    4IDB    C1910763   2.023   3.957   3.462 -0.4645 -0.0183  0.0789
    51IDQ   C2010764   1.724   3.847   3.601  0.2670 -0.6940  0.2662
    51IDQ   C2110765   1.757   3.844   3.333 -1.7494  0.8436  0.7451
    51IDQ   C2210766   1.684   3.751   3.227  0.6854  0.9291  1.5143
    51IDQ   C2310767   1.762   3.958   3.697 -0.3119 -1.0092 -0.5734
    51IDQ   C2410768   1.732   3.801   3.094 -0.3558 -0.0153 -0.2456
    51IDQ   C2510769   1.875   3.774   3.072  0.3418  0.2066 -0.7877
    51IDQ   C2610770   1.939   3.907   3.052  0.9769  0.3558  0.2741
    51IDQ   C2710771   2.082   3.924   3.002 -0.9051  0.9339 -1.4001
    51IDQ   C2810772   2.191   3.827   3.046  1.5496 -0.3419  0.0754
    51IDQ   C2910773   2.346   3.859   3.042  0.6336  0.2944 -0.2262
    51IDQ   C3010774   1.709   4.097   3.652 -1.2252 -0.7785 -0.6215
    51IDQ   C3110775   1.561   4.142   3.680  0.7307  0.1309 -0.3172
    51IDQ   C3210776   1.485   4.251   3.611  1.1596  0.2952 -0.0315
    51IDQ   C3310777   1.336   4.236   3.645  0.3283  0.1072 -0.7094
    51IDQ   C3410778   1.306   4.319   3.772 -0.7044 -0.4264 -0.1399
    51IDQ   C3510779   1.162   4.359   3.804 -0.3091 -0.6617  0.7949
    4IDB    C3610780   2.182   3.730   3.538  0.0863  0.7014  1.1097
    4IDB    C3710781   2.241   3.856   3.509 -0.2288  0.7486  0.6491
    11RH    C3810782   1.020   2.594   3.628  0.5586 -0.8952  0.5326
    4IDB    C3910783   2.163   3.966   3.473 -0.4946  0.3961  0.1495
    62IDT   C4010784   2.244   4.083   3.458  0.7143  0.0092 -0.5670
    72IDQ   C4110785   2.387   3.907   3.529  0.2262 -1.0263 -1.5017
    62IDT   C4210786   2.370   4.056   3.506  0.6983  0.1061 -0.4721
    72IDQ   C4310787   2.479   3.845   3.417  0.4528  0.5931  1.2739
    72IDQ   C4410788   2.431   3.877   3.680 -0.7846  0.4038  1.0883
    62IDT    S510789   2.220   4.257   3.423  0.4887  0.0419 -0.2492
    62IDT   C4510790   2.391   4.287   3.479  0.3797  0.1919  0.0078
    62IDT   C4610791   2.453   4.171   3.518  0.5093  0.2091 -0.1470
    82BTZ   C4710792   2.430   4.427   3.480 -0.3891 -0.2762  0.5464
    82BTZ   C4810793   2.386   4.510   3.380 -0.5428 -0.4787  0.4456
    82BTZ   C4910794   2.441   4.641   3.361 -0.6711 -0.4628  0.1812
    82BTZ   C5010795   2.541   4.690   3.441 -0.6458 -0.2442  0.0182
    82BTZ   C5110796   2.535   4.473   3.566 -0.3564 -0.0429  0.3836
    82BTZ   C5210797   2.591   4.607   3.547 -0.4870 -0.0267  0.1149
    92RH    C5310798   2.586   4.838   3.426  0.8135  0.3471  0.2302
    82BTZ    N410799   2.586   4.402   3.667 -0.2120  0.1671  0.4597
    82BTZ    N510800   2.688   4.643   3.632 -0.4473  0.1965 -0.0248
    82BTZ    S610801   2.711   4.505   3.742 -0.2371  0.3996  0.1852
    92RH    C5410802   2.563   4.934   3.336  0.5130  0.3498  0.3066
    92RH     S710803   2.433   4.936   3.207  0.3020  0.1944  0.5160
    92RH    C5510804   2.644   5.058   3.328  0.2984  0.4845  0.2302
    92RH     O210805   2.740   5.087   3.402  0.3695  0.6080  0.0894
    92RH     N610806   2.598   5.143   3.224 -0.0048  0.4559  0.3386
    92RH    C5610807   2.491   5.101   3.148 -0.0594  0.3145  0.4925
    92RH    C5710808   2.629   5.288   3.229 -1.1024 -0.3344  0.6301
    92RH    C5810809   2.741   5.337   3.136 -0.2198 -0.8491 -0.6239
    92RH     S810810   2.418   5.182   3.020 -0.3970  0.2515  0.6435
    72IDQ   C5910811   2.363   3.929   3.801  0.1141 -0.4230  0.7957
    72IDQ   C6010812   2.435   3.922   3.938  0.0521 -0.8007 -1.3524
    72IDQ   C6110813   2.454   3.786   4.028  0.3057 -1.9126  0.3345
    72IDQ   C6210814   2.340   3.729   4.100 -1.5081  0.2770  1.1648
    72IDQ   C6310815   2.245   3.839   4.147  0.2719  0.3855 -0.4297
    72IDQ   C6410816   2.114   3.796   4.228  0.1043  1.6066  0.4246
    72IDQ   C6510817   2.047   3.665   4.197 -0.0385 -0.3942  0.6274
    72IDQ   C6610818   2.630   3.825   3.453  0.9212  0.3459 -0.3438
    72IDQ   C6710819   2.727   3.925   3.483 -0.0719 -0.4517  0.8206
    72IDQ   C6810820   2.774   3.967   3.326  1.1211  0.3685  0.6539
    72IDQ   C6910821   2.896   4.048   3.294  0.2383  1.0366  0.0671
    72IDQ   C7010822   2.862   4.193   3.343 -0.9676  0.4858  0.1865
    72IDQ   C7110823   2.977   4.271   3.389  0.4897 -0.9727  0.1491
    72IDQ   C7210824   2.937   4.407   3.442 -0.4190  0.0318  0.5760
    11RH     C110825   3.983   5.047   0.525  0.2764 -0.0241 -0.1209
    11RH     C210826   3.959   4.925   0.443 -0.0061  0.0925 -0.2140
    11RH     N110827   4.048   5.015   0.646  0.1566 -0.2756 -0.1210
    11RH     S110828   4.024   4.778   0.530 -0.4115 -0.1362 -0.2956
    11RH     C310829   4.079   4.884   0.671 -0.1879 -0.3743 -0.2028
    11RH     C410830   4.045   5.115   0.755 -0.6320  0.4294  0.4748
    11RH     S210831   4.156   4.820   0.807 -0.3948 -0.6666 -0.2214
    11RH     O110832   3.950   5.162   0.493  0.5821  0.0813 -0.0506
    11RH     C510833   3.900   4.927   0.323  0.0385  0.3292 -0.2327
    21BTZ    C610834   3.879   4.829   0.216  0.0145 -0.1425 -0.2804
    21BTZ    C710835   3.927   4.701   0.212  0.1094 -0.1068 -0.2926
    21BTZ    C810836   3.804   4.878   0.104  0.1839 -0.1082 -0.3806
    21BTZ    C910837   3.904   4.614   0.099  0.3742 -0.0362 -0.4030
    21BTZ   C1010838   3.832   4.656  -0.010  0.5434 -0.0018 -0.5011
    21BTZ   C1110839   3.780   4.790  -0.011  0.4530 -0.0367 -0.4928
    21BTZ    N210840   3.752   5.001   0.096  0.1141 -0.1378 -0.3797
    21BTZ    N310841   3.709   4.842  -0.111  0.5994 -0.0088 -0.5817
    21BTZ    S310842   3.669   5.009  -0.062  0.3950 -0.0740 -0.5253
    31IDT   C1210843   3.797   4.555  -0.113  0.9734  0.0031  0.1209
    31IDT   C1310844   3.663   4.533  -0.127  0.8152  0.3996  0.9789
    31IDT   C1410845   3.633   4.408  -0.188  0.0474  0.4668  1.2007
    31IDT   C1510846   3.744   4.334  -0.222 -0.3833  0.1234  0.5153
    31IDT    S410847   3.897   4.418  -0.178  0.1545 -0.3164 -0.4734
    4IDB    C1610848   3.717   4.207  -0.275 -0.2162  0.8735 -0.0115
    4IDB    C1710849   3.576   4.189  -0.275 -0.1758  0.5598 -0.0443
    51IDQ   C1810850   3.506   4.316  -0.219 -1.5021  0.3261 -0.5611
    4IDB    C1910851   3.519   4.073  -0.326  0.0906  0.4499 -0.0934
    51IDQ   C2010852   3.401   4.372  -0.317 -1.0028 -1.2729 -0.3304
    51IDQ   C2110853   3.400   4.284  -0.101 -0.8878 -0.9449 -0.2247
    51IDQ   C2210854   3.357   4.123  -0.065 -0.5971  0.5180 -0.8788
    51IDQ   C2310855   3.402   4.527  -0.367 -1.0117 -0.0543  0.4117
    51IDQ   C2410856   3.474   4.065   0.001 -0.7139  0.5478 -0.9576
    51IDQ   C2510857   3.429   3.978   0.112  0.8518  0.3714  0.9406
    51IDQ   C2610858   3.474   4.016   0.248 -0.8411 -0.2662  0.8321
    51IDQ   C2710859   3.416   3.996   0.392 -0.2974  0.0647 -0.7966
    51IDQ   C2810860   3.497   3.912   0.484  1.3647 -0.0964  0.9547
    51IDQ   C2910861   3.581   3.994   0.593 -0.0209  0.5747  0.8684
    51IDQ   C3010862   3.361   4.644  -0.276  0.4401 -1.7389  1.3899
    51IDQ   C3110863   3.210   4.672  -0.255  0.9922  0.3942 -0.8362
    51IDQ   C3210864   3.113   4.719  -0.359 -0.1607  0.1554  0.3091
    51IDQ   C3310865   3.130   4.675  -0.502  0.0029  1.2218 -1.7465
    51IDQ   C3410866   3.030   4.768  -0.556 -1.4148 -0.9331  0.4652
    51IDQ   C3510867   3.021   4.723  -0.699  0.4443  0.7791 -0.4732
    4IDB    C3610868   3.803   4.109  -0.326  0.0116  1.0800 -0.0279
    4IDB    C3710869   3.743   3.991  -0.378  0.2824  0.9638 -0.0782
    11RH    C3810870   4.146   5.230   0.730  0.0303  0.1354  0.1895
    4IDB    C3910871   3.605   3.974  -0.377  0.3184  0.6566 -0.1099
    62IDT   C4010872   3.567   3.851  -0.453 -0.8082  1.1683  0.0868
    72IDQ   C4110873   3.802   3.861  -0.464  1.2112 -1.4988 -0.3683
    62IDT   C4210874   3.678   3.793  -0.511 -0.7386  1.3105  0.0787
    72IDQ   C4310875   3.915   3.794  -0.381  0.0719 -0.5185  1.1946
    72IDQ   C4410876   3.871   3.920  -0.593  0.4692  0.2354 -0.1757
    62IDT    S510877   3.419   3.751  -0.476 -0.6463  0.8883  0.2547
    62IDT   C4510878   3.520   3.631  -0.568 -0.4855  0.9830  0.3074
    62IDT   C4610879   3.652   3.669  -0.577 -0.5562  1.2059  0.2034
    82BTZ   C4710880   3.475   3.498  -0.607 -0.1664  0.6828 -0.3418
    82BTZ   C4810881   3.434   3.413  -0.507  0.0664  0.7360 -0.2007
    82BTZ   C4910882   3.376   3.284  -0.536  0.4078  0.5319  0.0117
    82BTZ   C5010883   3.358   3.240  -0.664  0.5162  0.2751  0.0833
    82BTZ   C5110884   3.458   3.456  -0.743 -0.0651  0.4166 -0.2737
    82BTZ   C5210885   3.399   3.326  -0.772  0.2822  0.2093 -0.0575
    92RH    C5310886   3.299   3.108  -0.694 -0.4267 -0.0280 -0.1407
    82BTZ    N410887   3.494   3.530  -0.849 -0.2686  0.3405 -0.3960
    82BTZ    N510888   3.387   3.294  -0.902  0.3576 -0.0336 -0.0060
    82BTZ    S610889   3.452   3.433  -0.993 -0.0197 -0.0070 -0.2367
    92RH    C5410890   3.281   2.999  -0.617 -0.2582 -0.0719 -0.1638
    92RH     S710891   3.356   2.968  -0.452  0.1574 -0.1948 -0.3721
    92RH    C5510892   3.196   2.884  -0.656 -0.3883 -0.0252 -0.0186
    92RH     O210893   3.132   2.875  -0.762 -0.6628  0.0582  0.1385
    92RH     N610894   3.196   2.784  -0.557 -0.1588 -0.0877 -0.0805
    92RH    C5610895   3.271   2.805  -0.443  0.1394 -0.1787 -0.2575
    92RH    C5710896   3.134   2.652  -0.575 -0.2909  0.1304  0.5389
    92RH    C5810897   3.219   2.576  -0.676  1.3920 -0.0315 -0.5080
    92RH     S810898   3.287   2.702  -0.310  0.4530 -0.2666 -0.3638
    72IDQ   C5910899   3.807   4.051  -0.688  1.0862  0.3211 -2.7776
    72IDQ   C6010900   3.687   4.018  -0.778  0.5241  0.0999  1.8783
    72IDQ   C6110901   3.661   4.100  -0.911 -0.5753 -0.8811  1.0831
    72IDQ   C6210902   3.772   4.215  -0.935  0.0521  0.8698 -0.3353
    72IDQ   C6310903   3.747   4.322  -1.038  0.3139 -0.3593 -0.3619
    72IDQ   C6410904   3.670   4.276  -1.157  1.2278  0.1286 -0.1069
    72IDQ   C6510905   3.732   4.224  -1.284 -0.3217  0.0537  0.4464
    72IDQ   C6610906   3.874   3.711  -0.265  0.0049  0.7697 -0.1418
    72IDQ   C6710907   3.834   3.764  -0.131 -0.5307 -1.2508 -0.6143
    72IDQ   C6810908   3.737   3.686  -0.054 -0.2693  0.7280  0.8758
    72IDQ   C6910909   3.758   3.556   0.028  1.0802  0.0514 -0.5104
    72IDQ   C7010910   3.625   3.516   0.076 -0.1601  0.0845 -1.0742
    72IDQ   C7110911   3.510   3.596   0.129  0.7090  0.2207  0.1482
    72IDQ   C7210912   3.458   3.492   0.225 -0.7572  0.0542 -1.5963
    11RH     C110913   6.674   5.970   3.052  0.3195  0.2463 -0.3811
    11RH     C210914   6.591   6.092   3.062  0.5226  0.3669 -0.1507
    11RH     N110915   6.598   5.858   3.009  0.0101  0.3243 -0.0363
    11RH     S110916   6.418   6.053   3.014  0.2935  0.5760  0.5044
    11RH     C310917   6.464   5.877   2.984 -0.0596  0.4933  0.4421
    11RH     C410918   6.646   5.726   3.035 -0.1478  1.1892  0.7145
    11RH     S210919   6.352   5.762   2.932 -0.4077  0.6156  0.9207
    11RH     O110920   6.795   5.963   3.077  0.4044  0.0947 -0.8200
    11RH     C510921   6.638   6.211   3.100  0.8267  0.3251 -0.3967
    21BTZ    C610922   6.582   6.333   3.134 -0.2842  0.1698  0.1398
    21BTZ    C710923   6.448   6.338   3.163 -0.2489  0.2222  0.2995
    21BTZ    C810924   6.662   6.449   3.160 -0.1996  0.1233  0.0876
    21BTZ    C910925   6.386   6.456   3.217 -0.1299  0.2313  0.4154
    21BTZ   C1010926   6.458   6.570   3.243 -0.0462  0.1882  0.3715
    21BTZ   C1110927   6.599   6.570   3.215 -0.0784  0.1326  0.2056
    21BTZ    N210928   6.793   6.457   3.137 -0.2232  0.0703 -0.0644
    21BTZ    N310929   6.680   6.674   3.237 -0.0048  0.0873  0.1483
    21BTZ    S310930   6.843   6.622   3.186 -0.0889  0.0292 -0.0633
    31IDT   C1210931   6.393   6.683   3.320  0.0916  0.9224 -0.2699
    31IDT   C1310932   6.410   6.818   3.308 -0.8426  1.0364 -0.4103
    31IDT   C1410933   6.316   6.894   3.384 -1.3433  0.4685 -0.4591
    31IDT   C1510934   6.226   6.817   3.456 -0.7955 -0.0804 -0.3568
    31IDT    S410935   6.254   6.641   3.431  0.4077  0.0803 -0.1890
    4IDB    C1610936   6.143   6.897   3.542 -0.0588  0.6701 -0.4774
    4IDB    C1710937   6.188   7.033   3.537  0.5772  0.5298  0.9612
    51IDQ   C1810938   6.304   7.031   3.439 -0.4893 -1.5376  0.7709
    4IDB    C1910939   6.120   7.133   3.606  0.3431  0.3060  1.0594
    51IDQ   C2010940   6.281   7.130   3.307  0.6458 -0.5548  0.4117
    51IDQ   C2110941   6.440   7.055   3.505 -0.2438 -1.1789 -1.8257
    51IDQ   C2210942   6.498   7.023   3.640  0.2170  1.1915  0.3362
    51IDQ   C2310943   6.277   7.080   3.162 -0.6719 -1.4674  0.3683
    51IDQ   C2410944   6.652   6.987   3.653  1.1305 -1.0632 -0.3580
    51IDQ   C2510945   6.716   7.036   3.785  2.2908  0.2537  0.4991
    51IDQ   C2610946   6.725   7.184   3.811 -0.1580 -0.7142  0.2723
    51IDQ   C2710947   6.834   7.257   3.892 -1.8545 -0.2684  0.0824
    51IDQ   C2810948   6.980   7.265   3.838  0.0415 -0.3875  1.0012
    51IDQ   C2910949   7.061   7.156   3.889 -1.4647  0.0686 -1.0039
    51IDQ   C3010950   6.207   7.199   3.100 -0.0121  0.6731  0.0747
    51IDQ   C3110951   6.049   7.196   3.111  1.1834  0.2555 -0.7289
    51IDQ   C3210952   5.978   7.237   2.979  0.5051 -0.7481 -1.4874
    51IDQ   C3310953   5.821   7.264   2.994  0.1804 -0.0964  0.5373
    51IDQ   C3410954   5.773   7.309   2.861  0.7345  0.7368 -0.2099
    51IDQ   C3510955   5.614   7.332   2.839 -2.0110 -0.4777 -1.1087
    4IDB    C3610956   6.029   6.861   3.616 -0.9384  0.5865 -1.8342
    4IDB    C3710957   5.961   6.965   3.686 -1.1656  0.3574 -1.7114
    11RH    C3810958   6.748   5.660   2.931  0.4830 -0.6736 -0.5814
    4IDB    C3910959   6.006   7.097   3.680 -0.5364  0.2227 -0.2973
    62IDT   C4010960   5.929   7.174   3.766 -0.5229  0.5256 -0.6040
    72IDQ   C4110961   5.851   6.952   3.792 -1.7076  0.0695 -0.4351
    62IDT   C4210962   5.842   7.091   3.835 -1.0016  0.5259 -1.1995
    72IDQ   C4310963   5.898   6.842   3.904 -0.1460  0.8262 -0.5730
    72IDQ   C4410964   5.697   6.918   3.730 -1.1237  0.7557  0.2412
    62IDT    S510965   5.900   7.347   3.803 -0.0003  0.4684  0.0886
    62IDT   C4510966   5.766   7.296   3.915 -0.4798  0.4468 -0.4918
    62IDT   C4610967   5.750   7.160   3.919 -0.9778  0.4814 -1.1369
    82BTZ   C4710968   5.697   7.393   3.985 -0.2529 -0.3119  0.2608
    82BTZ   C4810969   5.765   7.450   4.089 -0.1342 -0.4068  0.2360
    82BTZ   C4910970   5.696   7.517   4.197  0.0052 -0.2024  0.1979
    82BTZ   C5010971   5.560   7.527   4.199  0.0260  0.0966  0.1846
    82BTZ   C5110972   5.554   7.400   3.983 -0.2367 -0.0009  0.2486
    82BTZ   C5210973   5.484   7.469   4.093 -0.0951  0.2069  0.2098
    92RH    C5310974   5.475   7.596   4.301  0.3617  0.0152  0.6074
    82BTZ    N410975   5.477   7.348   3.887 -0.3448  0.1183  0.2699
    82BTZ    N510976   5.351   7.472   4.084 -0.0887  0.4931  0.2003
    82BTZ    S610977   5.308   7.385   3.933 -0.2678  0.5094  0.2409
    92RH    C5410978   5.491   7.640   4.426  0.3002  0.2592  0.5298
    92RH     S710979   5.645   7.637   4.526  0.2752  0.5412  0.5787
    92RH    C5510980   5.381   7.700   4.506  0.2408  0.3402  0.3874
    92RH     O210981   5.264   7.717   4.467  0.2408  0.1951  0.3245
    92RH     N610982   5.425   7.738   4.635  0.1822  0.6085  0.3299
    92RH    C5610983   5.557   7.715   4.668  0.1874  0.7524  0.4084
    92RH    C5710984   5.342   7.818   4.734 -0.1720  0.0249  1.3010
    92RH    C5810985   5.360   7.962   4.746  1.1073 -0.8837  0.4564
    92RH     S810986   5.635   7.750   4.813  0.1259  1.0729  0.3645
    72IDQ   C5910987   5.691   6.913   3.574  0.9647 -0.4211 -0.1360
    72IDQ   C6010988   5.575   6.999   3.522 -0.2789  0.0860 -0.7770
    72IDQ   C6110989   5.650   7.071   3.408  0.6294  1.2607  1.1228
    72IDQ   C6210990   5.693   7.210   3.439 -0.5852 -1.5001 -0.0371
    72IDQ   C6310991   5.786   7.304   3.349  0.0514 -0.6547 -2.3122
    72IDQ   C6410992   5.810   7.437   3.416  0.1682  1.2098  0.2140
    72IDQ   C6510993   5.912   7.509   3.335 -0.7918  0.7953  0.2140
    72IDQ   C6610994   5.875   6.689   3.852 -0.4294 -0.9474  1.0054
    72IDQ   C6710995   5.915   6.571   3.946  0.4343  0.5173 -0.3367
    72IDQ   C6810996   6.056   6.569   4.000  0.1363 -0.0489  0.2125
    72IDQ   C6910997   6.079   6.472   4.116 -0.7111 -1.4164  1.1462
    72IDQ   C7010998   6.030   6.491   4.258  0.6989 -0.1242 -0.4299
    72IDQ   C7110999   5.998   6.353   4.312 -0.3109 -0.0064  1.2539
    72IDQ   C7211000   5.864   6.285   4.281 -0.6830  0.2922 -0.3121
    11RH     C111001   3.512   2.734   5.823  0.3426 -0.3289  0.7367
    11RH     C211002   3.598   2.645   5.742  0.3099 -0.1931  0.5529
    11RH     N111003   3.577   2.855   5.854  0.1269 -0.1213  0.3846
    11RH     S111004   3.759   2.726   5.711 -0.0024  0.1984 -0.0712
    11RH     C311005   3.705   2.874   5.807 -0.0747  0.1639 -0.0587
    11RH     C411006   3.505   2.969   5.911  0.1763  0.1108  0.4438
    11RH     S211007   3.805   3.008   5.829 -0.3519  0.4513 -0.5372
    11RH     O111008   3.396   2.708   5.861  0.5333 -0.5906  1.1458
    11RH     C511009   3.559   2.524   5.699  0.4864 -0.3419  0.8144
    21BTZ    C611010   3.633   2.420   5.629 -0.0267  0.0511  0.1492
    21BTZ    C711011   3.755   2.443   5.571  0.0057  0.1079  0.2394
    21BTZ    C811012   3.570   2.293   5.610  0.1765 -0.0780  0.3366
    21BTZ    C911013   3.821   2.342   5.491  0.2379  0.0415  0.5159
    21BTZ   C1011014   3.765   2.218   5.471  0.4374 -0.0818  0.7021
    21BTZ   C1111015   3.637   2.190   5.529  0.4127 -0.1454  0.6180
    21BTZ    N211016   3.451   2.259   5.661  0.1676 -0.1436  0.2730
    21BTZ    N311017   3.572   2.074   5.516  0.5935 -0.2652  0.7806
    21BTZ    S311018   3.420   2.091   5.608  0.4669 -0.2974  0.5766
    31IDT   C1211019   3.819   2.121   5.367 -0.4650  0.3256 -0.0810
    31IDT   C1311020   3.794   1.989   5.338 -0.9451  0.4191 -0.1009
    31IDT   C1411021   3.878   1.937   5.235 -1.0760  0.1037 -0.0510
    31IDT   C1511022   3.968   2.029   5.185 -0.6975 -0.2318  0.0068
    31IDT    S411023   3.952   2.189   5.264 -0.1408 -0.1735  0.0024
    4IDB    C1611024   4.051   1.967   5.087  0.1063 -0.0918  0.5676
    4IDB    C1711025   4.002   1.835   5.064  0.3486 -0.1298  0.2663
    51IDQ   C1811026   3.885   1.803   5.158  1.2301 -0.0796  0.7107
    4IDB    C1911027   4.046   1.760   4.955  0.3059  0.2902 -0.0435
    51IDQ   C2011028   3.756   1.742   5.083 -0.4425  1.3115 -0.1576
    51IDQ   C2111029   3.924   1.684   5.245 -0.8991 -0.7632  0.1827
    51IDQ   C2211030   4.063   1.686   5.326  0.5820 -0.1949 -0.8685
    51IDQ   C2311031   3.601   1.775   5.083 -0.4633 -1.4530 -0.9730
    51IDQ   C2411032   4.045   1.689   5.479  0.2736 -0.2826  0.5881
    51IDQ   C2511033   3.952   1.601   5.557 -1.3485 -0.7666 -0.3780
    51IDQ   C2611034   3.988   1.632   5.704  1.1696 -0.9903  0.8116
    51IDQ   C2711035   3.867   1.565   5.763  0.5985 -0.2730 -0.1796
    51IDQ   C2811036   3.835   1.420   5.781 -0.0225 -0.3238  0.4398
    51IDQ   C2911037   3.741   1.345   5.707 -1.7182  0.0845  0.0130
    51IDQ   C3011038   3.546   1.898   5.166 -0.1194  1.3141  0.4979
    51IDQ   C3111039   3.401   1.856   5.197  0.5286  0.7746 -0.4634
    51IDQ   C3211040   3.402   1.772   5.329 -0.4306  1.1730  1.3098
    51IDQ   C3311041   3.287   1.656   5.352 -0.0614  0.2611  1.6435
    51IDQ   C3411042   3.148   1.712   5.340 -1.0373  0.7090 -0.2068
    51IDQ   C3511043   3.048   1.605   5.360 -0.3246 -0.0179  0.3725
    4IDB    C3611044   4.145   2.025   5.001 -0.1814  0.3695  0.5603
    4IDB    C3711045   4.190   1.947   4.891 -0.2208  0.7948  0.2410
    11RH    C3811046   3.549   2.992   6.056 -0.3214  0.9418 -1.4575
    4IDB    C3911047   4.141   1.818   4.870  0.0182  0.7516 -0.0508
    62IDT   C4011048   4.206   1.766   4.755  2.0191 -0.4227  0.7757
    72IDQ   C4111049   4.279   1.993   4.769 -1.5181  0.6774  0.7436
    62IDT   C4211050   4.280   1.863   4.691  3.5269 -1.1635  1.3635
    72IDQ   C4311051   4.418   1.991   4.840  1.3193 -2.0051  0.7480
    72IDQ   C4411052   4.246   2.137   4.708 -1.5052 -0.4621 -0.6895
    62IDT    S511053   4.181   1.621   4.652 -0.2525  0.5390 -0.1104
    62IDT   C4511054   4.278   1.703   4.521  1.0179 -0.1446  0.3846
    62IDT   C4611055   4.321   1.827   4.559  2.9631 -1.0074  1.1435
    82BTZ   C4711056   4.337   1.631   4.405  0.4250 -0.3232 -0.5989
    82BTZ   C4811057   4.346   1.496   4.430 -0.1383 -0.3635 -0.5875
    82BTZ   C4911058   4.351   1.399   4.323 -1.1537 -0.4406 -0.5713
    82BTZ   C5011059   4.346   1.437   4.192 -1.6042 -0.4773 -0.5667
    82BTZ   C5111060   4.331   1.675   4.269 -0.0134 -0.3592 -0.5946
    82BTZ   C5211061   4.336   1.576   4.160 -1.0452 -0.4375 -0.5782
    92RH    C5311062   4.341   1.354   4.073 -0.2914 -0.0758 -0.3231
    82BTZ    N411063   4.322   1.803   4.232  0.4599 -0.3259 -0.6046
    82BTZ    N511064   4.330   1.625   4.036 -1.4014 -0.4672 -0.5748
    82BTZ    S611065   4.319   1.803   4.053 -0.4122 -0.3948 -0.5931
    92RH    C5411066   4.349   1.223   4.046  0.0854 -0.0656 -0.2723
    92RH     S711067   4.344   1.085   4.167  0.7711 -0.0236 -0.1934
    92RH    C5511068   4.363   1.169   3.908 -0.0010 -0.0879 -0.2722
    92RH     O211069   4.369   1.236   3.804 -0.4227 -0.1179 -0.3183
    92RH     N611070   4.368   1.028   3.909  0.4634 -0.0707 -0.2123
    92RH    C5611071   4.361   0.963   4.030  0.9110 -0.0373 -0.1640
    92RH    C5711072   4.387   0.950   3.785 -1.3075 -0.7563 -0.5089
    92RH    C5811073   4.539   0.926   3.739  0.9242 -1.1454 -0.2734
    92RH     S811074   4.365   0.796   4.059  1.5106 -0.0113 -0.0887
    72IDQ   C5911075   4.122   2.226   4.738 -0.6661 -1.4720 -0.0030
    72IDQ   C6011076   4.131   2.380   4.763 -0.9655  0.6622 -0.9586
    72IDQ   C6111077   4.213   2.452   4.885  0.1451  0.7164  0.6515
    72IDQ   C6211078   4.359   2.439   4.908 -1.5487  0.9773  1.3199
    72IDQ   C6311079   4.451   2.479   4.798 -0.7225  1.7271 -1.2453
    72IDQ   C6411080   4.602   2.435   4.823  0.0548  1.0254  0.2235
    72IDQ   C6511081   4.694   2.453   4.939  1.3395 -0.2194 -0.0068
    72IDQ   C6611082   4.539   1.976   4.761 -1.0135 -0.7988  1.5042
    72IDQ   C6711083   4.653   2.035   4.844 -0.3315  0.3987 -0.6124
    72IDQ   C6811084   4.790   2.026   4.765  0.4970  1.0969  1.0358
    72IDQ   C6911085   4.917   2.082   4.830 -0.2618  0.6999 -1.1415
    72IDQ   C7011086   5.047   2.056   4.756 -2.0727 -1.0727  0.1829
    72IDQ   C7111087   5.103   1.910   4.708 -0.7786  0.0075  0.2977
    72IDQ   C7211088   5.043   1.830   4.582  0.6520  0.0409  1.2511
    11RH     C111089   6.169   0.530   6.910  0.0429  0.0780  0.0539
    11RH     C211090   6.107   0.664   6.919 -0.1879 -0.0108 -0.1970
    11RH     N111091   6.074   0.428   6.931  0.2244 -0.0461  0.2765
    11RH     S111092   5.928   0.648   6.955 -0.1516 -0.2516 -0.1236
    11RH     C311093   5.943   0.464   6.956  0.1669 -0.2234  0.2351
    11RH     C411094   6.103   0.283   6.929  0.3655 -0.7000 -0.8274
    11RH     S211095   5.811   0.362   6.984  0.3488 -0.3967  0.4642
    11RH     O111096   6.289   0.507   6.887  0.0777  0.2404  0.0720
    11RH     C511097   6.175   0.778   6.903 -0.3886  0.0766 -0.4366
    21BTZ    C611098   6.134   0.913   6.918  0.0644 -0.4804 -0.5081
    21BTZ    C711099   6.009   0.951   6.962 -0.0057 -0.5255 -0.6684
    21BTZ    C811100   6.240   1.009   6.926  0.0491 -0.4827 -0.2537
    21BTZ    C911101   5.984   1.082   7.015 -0.0937 -0.5748 -0.5875
    21BTZ   C1011102   6.083   1.177   7.024 -0.1111 -0.5790 -0.3465
    21BTZ   C1111103   6.215   1.142   6.980 -0.0403 -0.5329 -0.1715
    21BTZ    N211104   6.366   0.984   6.887  0.1116 -0.4416 -0.0799
    21BTZ    N311105   6.319   1.226   6.983 -0.0496 -0.5320  0.0682
    21BTZ    S311106   6.458   1.134   6.917  0.0584 -0.4656  0.2020
    31IDT   C1211107   6.037   1.310   7.064 -0.2312 -0.6108 -0.3400
    31IDT   C1311108   6.117   1.412   7.108  0.2351 -0.7080 -0.9405
    31IDT   C1411109   6.044   1.514   7.177  0.7699 -0.2289 -1.0690
    31IDT   C1511110   5.908   1.490   7.186  0.7159  0.2354 -0.5686
    31IDT    S411111   5.862   1.335   7.107 -0.0240  0.1007  0.1104
    4IDB    C1611112   5.850   1.585   7.276  0.1329  0.1624 -0.0202
    4IDB    C1711113   5.942   1.682   7.325  0.0896  0.6899 -0.9603
    51IDQ   C1811114   6.084   1.628   7.280  0.4063 -1.3337 -0.0719
    4IDB    C1911115   5.898   1.791   7.398  0.1819  0.6057 -0.7787
    51IDQ   C2011116   6.134   1.768   7.210  0.4655  0.3019 -0.9009
    51IDQ   C2111117   6.185   1.564   7.377  0.9153 -0.5555 -0.4835
    51IDQ   C2211118   6.138   1.496   7.501 -0.8003 -2.0359 -0.4609
    51IDQ   C2311119   6.167   1.770   7.072  1.2936 -0.3223 -0.0884
    51IDQ   C2411120   6.046   1.567   7.596 -0.1950 -1.3226  0.4695
    51IDQ   C2511121   5.967   1.500   7.703 -0.7077  0.3105  0.3052
    51IDQ   C2611122   5.836   1.468   7.651  0.5124 -0.3279 -0.8248
    51IDQ   C2711123   5.718   1.524   7.734  0.0664 -1.2990 -0.9467
    51IDQ   C2811124   5.731   1.664   7.817 -1.2396  0.1215  0.6700
    51IDQ   C2911125   5.703   1.626   7.960 -0.0468 -0.7882 -0.8233
    51IDQ   C3011126   6.312   1.756   7.018 -0.5097 -0.7619 -0.9808
    51IDQ   C3111127   6.365   1.901   7.012 -0.0967 -1.3280  0.0122
    51IDQ   C3211128   6.470   1.898   6.895 -0.3433 -0.2284 -0.5151
    51IDQ   C3311129   6.611   1.838   6.935  0.0270 -0.6535  0.7196
    51IDQ   C3411130   6.711   1.930   7.010  0.1560 -0.8258  0.7022
    51IDQ   C3511131   6.840   1.867   7.072  1.1830  0.1003  0.1470
    4IDB    C3611132   5.713   1.596   7.300  0.2694 -0.4562  1.1139
    4IDB    C3711133   5.669   1.708   7.375  0.3624 -0.5332  1.2830
    11RH    C3811134   6.069   0.205   6.794 -0.7267  0.5179 -0.1124
    4IDB    C3911135   5.760   1.803   7.423  0.3185 -0.0128  0.3555
    62IDT   C4011136   5.687   1.905   7.507 -0.0242  0.5501 -0.2604
    72IDQ   C4111137   5.532   1.768   7.395 -0.5053  0.2998 -0.2220
    62IDT   C4211138   5.553   1.880   7.492 -0.0415  0.0892  0.5861
    72IDQ   C4311139   5.417   1.659   7.419 -0.3036 -0.0163  0.3569
    72IDQ   C4411140   5.491   1.874   7.273 -0.8518 -0.4651  0.1339
    62IDT    S511141   5.718   2.035   7.627  0.2840  0.7175 -0.5185
    62IDT   C4511142   5.538   2.049   7.651  0.3774  0.1267  0.5853
    62IDT   C4611143   5.468   1.961   7.573  0.1855 -0.1508  1.0653
    82BTZ   C4711144   5.487   2.150   7.751 -0.2854 -0.6415  0.2496
    82BTZ   C4811145   5.587   2.224   7.806 -0.2875 -0.4700  0.0246
    82BTZ   C4911146   5.562   2.320   7.912 -0.2775 -0.2104 -0.2070
    82BTZ   C5011147   5.436   2.340   7.961 -0.2661 -0.1227 -0.2132
    82BTZ   C5111148   5.353   2.168   7.799 -0.2737 -0.5589  0.2530
    82BTZ   C5211149   5.327   2.265   7.906 -0.2637 -0.2950  0.0176
    92RH    C5311150   5.399   2.423   8.085 -0.1472 -0.3683 -0.1092
    82BTZ    N411151   5.247   2.101   7.753 -0.2704 -0.7080  0.4602
    82BTZ    N511152   5.200   2.276   7.946 -0.2520 -0.2322  0.0356
    82BTZ    S611153   5.106   2.160   7.846 -0.2541 -0.5134  0.3611
    92RH    C5411154   5.457   2.507   8.171 -0.0501 -0.4427 -0.1007
    92RH     S711155   5.619   2.591   8.152  0.1418 -0.7876  0.0023
    92RH    C5511156   5.395   2.547   8.300 -0.0858 -0.2490 -0.1764
    92RH     O211157   5.285   2.507   8.343 -0.2067 -0.0002 -0.2549
    92RH     N611158   5.477   2.637   8.372  0.0367 -0.3825 -0.1484
    92RH    C5611159   5.597   2.674   8.315  0.1657 -0.6597 -0.0596
    92RH    C5711160   5.425   2.739   8.471 -1.7971  0.1588  0.8498
    92RH    C5811161   5.467   2.702   8.610 -0.4914 -0.3823 -0.4259
    92RH     S811162   5.713   2.779   8.379  0.3266 -0.8658 -0.0094
    72IDQ   C5911163   5.517   1.857   7.126 -0.7189 -0.8181 -0.3830
    72IDQ   C6011164   5.473   1.713   7.089  1.3135 -0.1835 -0.0798
    72IDQ   C6111165   5.506   1.687   6.953  1.2929  1.2393 -0.2457
    72IDQ   C6211166   5.644   1.613   6.923  0.8036 -0.7616 -0.1954
    72IDQ   C6311167   5.671   1.582   6.780  0.6357 -0.6968 -0.6867
    72IDQ   C6411168   5.638   1.691   6.692 -1.5432  1.2434  0.0055
    72IDQ   C6511169   5.684   1.678   6.558  0.7931  1.1518  0.5823
    72IDQ   C6611170   5.423   1.602   7.565  1.0826 -0.5494 -0.2954
    72IDQ   C6711171   5.379   1.474   7.623 -0.2774 -0.2795 -1.0853
    72IDQ   C6811172   5.247   1.416   7.594 -0.9633  1.1957  0.0507
    72IDQ   C6911173   5.242   1.281   7.659 -0.3979 -0.5217  0.0268
    72IDQ   C7011174   5.094   1.243   7.635  1.1269 -0.6725  0.2130
    72IDQ   C7111175   5.038   1.150   7.514 -0.2166  0.6070 -1.2604
    72IDQ   C7211176   5.089   1.170   7.373  1.2571 -1.1557  0.6826
    11RH     C111177   5.934   2.940   0.944 -0.0515 -0.2618  0.4186
    11RH     C211178   5.862   3.057   0.999 -0.0644 -0.0006 -0.1560
    11RH     N111179   5.845   2.847   0.886  0.0132 -0.2867  0.3594
    11RH     S111180   5.682   3.039   0.969  0.0097  0.1948 -0.7365
    11RH     C311181   5.710   2.877   0.886  0.0536 -0.0776 -0.1922
    11RH     C411182   5.895   2.720   0.827 -0.1225  0.3108  0.0504
    11RH     S211183   5.584   2.785   0.823  0.1323 -0.0570 -0.3807
    11RH     O111184   6.057   2.922   0.949 -0.0916 -0.4394  0.8975
    11RH     C511185   5.924   3.159   1.060 -0.1218  0.0733 -0.2219
    21BTZ    C611186   5.869   3.296   1.085 -0.2798  0.8903 -0.5028
    21BTZ    C711187   5.746   3.336   1.039 -0.2017  1.2149 -0.4242
    21BTZ    C811188   5.950   3.389   1.157 -0.2248  0.5027 -0.0604
    21BTZ    C911189   5.697   3.470   1.063 -0.0672  1.1760  0.0896
    21BTZ   C1011190   5.771   3.563   1.132 -0.0108  0.8122  0.5237
    21BTZ   C1111191   5.900   3.525   1.181 -0.0882  0.4631  0.4618
    21BTZ    N211192   6.071   3.361   1.206 -0.2906  0.1643 -0.0872
    21BTZ    N311193   5.981   3.606   1.250 -0.0441  0.0929  0.8547
    21BTZ    S311194   6.128   3.511   1.287 -0.1781 -0.2276  0.5675
    31IDT   C1211195   5.729   3.700   1.106 -1.0746 -1.3970 -0.1573
    31IDT   C1311196   5.816   3.798   1.066 -0.5219 -1.5900  0.5520
    31IDT   C1411197   5.749   3.916   1.022  0.1419 -0.8804  1.4200
    31IDT   C1511198   5.611   3.909   1.028  0.0989 -0.1434  1.3781
    31IDT    S411199   5.555   3.751   1.091 -0.7931 -0.2923  0.2259
    4IDB    C1611200   5.556   4.037   0.979 -0.1349 -0.0934 -0.3876
    4IDB    C1711201   5.665   4.121   0.941 -0.1898 -0.2534 -0.9071
    51IDQ   C1811202   5.797   4.034   0.940 -0.2843 -0.3132  0.0938
    4IDB    C1911203   5.647   4.256   0.917 -0.0791 -0.1928 -0.6581
    51IDQ   C2011204   5.835   4.009   0.789 -0.4335  0.4485 -1.7003
    51IDQ   C2111205   5.912   4.110   1.019 -1.1279  0.5143  0.5683
    51IDQ   C2211206   6.046   4.038   1.024 -0.9771  0.6796 -0.2857
    51IDQ   C2311207   5.823   3.870   0.741 -1.0338 -0.3137  0.6440
    51IDQ   C2411208   6.142   4.084   1.141  0.4904 -0.2201  1.0089
    51IDQ   C2511209   6.269   4.148   1.106  0.3022 -1.4469 -0.8132
    51IDQ   C2611210   6.272   4.297   1.071  0.5669 -0.0278  1.8678
    51IDQ   C2711211   6.406   4.365   0.996  1.5411  0.3598  0.5376
    51IDQ   C2811212   6.436   4.331   0.852  0.3397 -0.9369  0.0903
    51IDQ   C2911213   6.560   4.388   0.804 -0.2581  0.3837  0.5243
    51IDQ   C3011214   5.673   3.838   0.696  0.5499  0.9098 -0.3544
    51IDQ   C3111215   5.605   3.934   0.603  0.7386 -1.2788 -0.2930
    51IDQ   C3211216   5.610   3.863   0.464  0.8422 -0.8399  0.0853
    51IDQ   C3311217   5.599   3.959   0.353 -0.0070  0.2370 -0.2647
    51IDQ   C3411218   5.523   4.086   0.337 -0.5625  0.1983 -1.3301
    51IDQ   C3511219   5.460   4.086   0.192 -1.0096 -0.1323 -0.2775
    4IDB    C3611220   5.426   4.089   0.992  0.0315  0.1290  0.3888
    4IDB    C3711221   5.409   4.228   0.967  0.1428  0.1876  0.6329
    11RH    C3811222   5.902   2.617   0.939  0.5058 -0.2646 -1.3097
    4IDB    C3911223   5.517   4.308   0.930  0.0873  0.0295  0.1183
    62IDT   C4011224   5.462   4.435   0.898 -0.2367 -0.3356 -0.7493
    72IDQ   C4111225   5.275   4.303   0.957 -0.2274 -1.9338 -1.8527
    62IDT   C4211226   5.331   4.434   0.943 -0.4096 -0.3493 -1.2531
    72IDQ   C4311227   5.183   4.295   1.094  0.1496 -1.6704 -0.3362
    72IDQ   C4411228   5.165   4.252   0.848 -0.0990  0.2617 -0.6303
    62IDT    S511229   5.520   4.601   0.863  0.1497 -0.2550  0.2468
    62IDT   C4511230   5.357   4.664   0.913  0.0526 -0.2433 -0.0868
    62IDT   C4611231   5.272   4.563   0.951 -0.2463 -0.2971 -0.8794
    82BTZ   C4711232   5.314   4.806   0.904 -0.2927  0.0065 -0.0341
    82BTZ   C4811233   5.217   4.841   0.994 -0.2496  0.0191  0.0077
    82BTZ   C4911234   5.143   4.964   0.982 -0.3226 -0.0279 -0.0287
    82BTZ   C5011235   5.166   5.053   0.880 -0.4383 -0.0875 -0.1070
    82BTZ   C5111236   5.342   4.896   0.795 -0.4137 -0.0553 -0.1162
    82BTZ   C5211237   5.267   5.021   0.783 -0.4878 -0.1032 -0.1532
    92RH    C5311238   5.096   5.190   0.864  0.2296 -0.1498  0.2414
    82BTZ    N411239   5.434   4.873   0.701 -0.4661 -0.0727 -0.1631
    82BTZ    N511240   5.298   5.099   0.680 -0.5996 -0.1590 -0.2300
    82BTZ    S611241   5.428   5.014   0.591 -0.6154 -0.1534 -0.2586
    92RH    C5411242   5.006   5.250   0.943  0.2077 -0.0625  0.1513
    92RH     S711243   4.953   5.194   1.110 -0.2178 -0.1632 -0.0175
    92RH    C5511244   4.934   5.374   0.907  0.5364  0.1359  0.1759
    92RH     O211245   4.948   5.437   0.801  0.8647  0.2427  0.2805
    92RH     N611246   4.846   5.415   1.009  0.4319  0.1914  0.0639
    92RH    C5611247   4.838   5.338   1.123  0.0594  0.0620 -0.0474
    92RH    C5711248   4.755   5.529   0.975  1.4410  0.8197  0.4203
    92RH    C5811249   4.776   5.674   1.020 -0.1050  0.4388  0.7766
    92RH     S811250   4.741   5.364   1.259 -0.1369  0.0920 -0.1929
    72IDQ   C5911251   5.211   4.198   0.715  0.1036  1.3994  0.1384
    72IDQ   C6011252   5.085   4.173   0.624  0.4857  1.6958 -0.8779
    72IDQ   C6111253   5.061   4.311   0.566 -0.6224  1.7285  0.5402
    72IDQ   C6211254   4.928   4.311   0.497 -0.6573 -1.1319 -0.2227
    72IDQ   C6311255   4.847   4.439   0.504  0.1582 -0.9153  0.0990
    72IDQ   C6411256   4.702   4.445   0.447  0.2279 -0.7086  0.1770
    72IDQ   C6511257   4.665   4.587   0.461  0.3694  0.4963 -0.5260
    72IDQ   C6611258   5.242   4.232   1.216 -0.9974  0.4985 -0.9633
    72IDQ   C6711259   5.139   4.218   1.338 -0.1310  0.0828  1.0887
    72IDQ   C6811260   5.017   4.140   1.285 -0.4839  1.0192 -0.3100
    72IDQ   C6911261   4.908   4.129   1.388 -0.2266 -0.2163 -0.0447
    72IDQ   C7011262   4.782   4.033   1.389  1.8754 -0.8437  0.8511
    72IDQ   C7111263   4.709   3.989   1.511 -0.1222  0.8767  0.6013
    72IDQ   C7211264   4.671   4.100   1.612 -0.3712  0.1432 -1.0910
    11RH     C111265   3.388   6.414   0.097  0.0659  0.5383  0.0511
    11RH     C211266   3.270   6.474   0.162 -0.0668  0.3603 -0.0263
    11RH     N111267   3.367   6.278   0.066  0.2923  0.5039  0.0444
    11RH     S111268   3.137   6.348   0.179  0.1152  0.1595 -0.1029
    11RH     C311269   3.246   6.221   0.099  0.3574  0.3204 -0.0289
    11RH     C411270   3.465   6.231  -0.031  0.7108  1.3302 -1.6201
    11RH     S211271   3.195   6.063   0.073  0.6151  0.2422 -0.0528
    11RH     O111272   3.495   6.473   0.072 -0.0081  0.6986  0.1147
    11RH     C511273   3.263   6.602   0.202 -0.2858  0.3529 -0.0362
    21BTZ    C611274   3.157   6.688   0.220  0.2469 -0.0833 -0.2430
    21BTZ    C711275   3.023   6.660   0.215  0.2564 -0.1016 -0.3958
    21BTZ    C811276   3.198   6.820   0.259  0.1874 -0.1173 -0.0677
    21BTZ    C911277   2.923   6.759   0.248  0.2080 -0.1543 -0.3842
    21BTZ   C1011278   2.958   6.885   0.287  0.1505 -0.1881 -0.2199
    21BTZ   C1111279   3.097   6.920   0.293  0.1384 -0.1705 -0.0559
    21BTZ    N211280   3.325   6.859   0.268  0.1724 -0.1040  0.0908
    21BTZ    N311281   3.142   7.040   0.330  0.0843 -0.2005  0.1120
    21BTZ    S311282   3.321   7.030   0.321  0.0937 -0.1605  0.2654
    31IDT   C1211283   2.855   6.969   0.354  0.9156  0.0296  0.0865
    31IDT   C1311284   2.780   6.925   0.459  1.2258  0.3488  0.4444
    31IDT   C1411285   2.710   7.030   0.527  1.0033  0.4878  0.0010
    31IDT   C1511286   2.732   7.155   0.473  0.5236  0.2761 -0.6962
    31IDT    S411287   2.842   7.149   0.332  0.3140 -0.1193 -0.8466
    4IDB    C1611288   2.649   7.252   0.534 -0.2854 -0.3190 -1.2256
    4IDB    C1711289   2.551   7.180   0.608 -0.1407 -0.2882 -1.0028
    51IDQ   C1811290   2.594   7.034   0.625  0.0028  0.9753 -0.6050
    4IDB    C1911291   2.438   7.244   0.659  0.3103 -0.1232 -0.1980
    51IDQ   C2011292   2.622   7.021   0.778  0.8416  1.0992  0.0438
    51IDQ   C2111293   2.481   6.928   0.590  0.6914 -0.6934  0.2382
    51IDQ   C2211294   2.349   6.950   0.506 -1.2976  0.0692 -0.5163
    51IDQ   C2311295   2.592   6.885   0.851  0.7125 -0.9877 -0.5102
    51IDQ   C2411296   2.352   6.910   0.367 -0.0048 -0.1897  0.3409
    51IDQ   C2511297   2.249   6.797   0.350  0.2147 -1.2405  0.2326
    51IDQ   C2611298   2.252   6.737   0.212 -0.1870  0.8645  0.3205
    51IDQ   C2711299   2.192   6.604   0.207  0.7152  0.3637  0.2087
    51IDQ   C2811300   2.256   6.461   0.241  0.0664 -0.4257  0.1579
    51IDQ   C2911301   2.402   6.467   0.221  0.7099  0.1376  0.8287
    51IDQ   C3011302   2.575   6.867   1.008 -0.3980  0.9974  1.1219
    51IDQ   C3111303   2.516   6.733   1.067 -1.4380 -0.3404  0.5633
    51IDQ   C3211304   2.368   6.705   1.052 -0.0929  0.9049 -1.1118
    51IDQ   C3311305   2.317   6.654   0.904 -0.1455  0.1387 -0.4503
    51IDQ   C3411306   2.173   6.605   0.881  0.4415 -0.8845 -1.3900
    51IDQ   C3511307   2.058   6.633   0.984 -0.4309  0.0110 -1.6553
    4IDB    C3611308   2.635   7.389   0.510  0.0224 -0.1839 -0.6406
    4IDB    C3711309   2.520   7.453   0.563  0.4818 -0.0161  0.1788
    11RH    C3811310   3.577   6.130   0.005 -0.1270 -0.3795  0.3628
    4IDB    C3911311   2.425   7.382   0.635  0.6181  0.0119  0.3870
    62IDT   C4011312   2.304   7.459   0.638  0.2481 -0.3688 -0.8967
    72IDQ   C4111313   2.473   7.600   0.548  0.1804  1.0844  1.3776
    62IDT   C4211314   2.326   7.584   0.583  0.0497 -0.4162 -1.0892
    72IDQ   C4311315   2.491   7.638   0.395 -0.7714 -0.2353  0.0532
    72IDQ   C4411316   2.538   7.699   0.648 -1.4450 -0.5533 -0.2846
    62IDT    S511317   2.128   7.421   0.646  0.2347 -0.0749  0.4165
    62IDT   C4511318   2.093   7.583   0.572 -0.0525 -0.0294  0.6472
    62IDT   C4611319   2.208   7.654   0.546 -0.1204 -0.2245 -0.2168
    82BTZ   C4711320   1.959   7.629   0.541 -0.4768  0.2281  0.6785
    82BTZ   C4811321   1.922   7.759   0.562 -0.7083  0.2038  0.4354
    82BTZ   C4911322   1.786   7.803   0.543 -0.7182  0.0009  0.0289
    82BTZ   C5011323   1.688   7.717   0.502 -0.4964 -0.1774 -0.1340
    82BTZ   C5111324   1.860   7.535   0.497 -0.2392  0.0461  0.5217
    82BTZ   C5211325   1.722   7.580   0.478 -0.2491 -0.1601  0.1085
    92RH    C5311326   1.545   7.749   0.489 -0.0590 -0.4825 -0.1737
    82BTZ    N411327   1.883   7.406   0.473 -0.0019  0.0498  0.7290
    82BTZ    N511328   1.634   7.487   0.437 -0.0198 -0.3222 -0.0163
    82BTZ    S611329   1.727   7.335   0.423  0.2235 -0.2158  0.3977
    92RH    C5411330   1.475   7.864   0.489  0.0206 -0.4354  0.1422
    92RH     S711331   1.543   8.034   0.475  0.1206 -0.4514  0.4121
    92RH    C5511332   1.328   7.870   0.503  0.0402 -0.3604  0.3272
    92RH     O211333   1.252   7.772   0.515 -0.0134 -0.3328  0.2143
    92RH     N611334   1.281   8.003   0.500  0.1293 -0.3228  0.6555
    92RH    C5611335   1.373   8.104   0.487  0.1835 -0.3584  0.7561
    92RH    C5711336   1.129   8.021   0.504 -1.0744 -0.5928 -1.2956
    92RH    C5811337   1.071   8.021   0.366 -0.1552  0.0385 -1.2127
    92RH     S811338   1.344   8.270   0.481  0.2913 -0.3260  1.1312
    72IDQ   C5911339   2.663   7.682   0.745 -0.4205  0.6999  0.2604
    72IDQ   C6011340   2.636   7.594   0.872 -0.8257  0.1959  0.0560
    72IDQ   C6111341   2.767   7.536   0.932 -0.2893  1.8279  0.2257
    72IDQ   C6211342   2.755   7.439   1.044  1.2955 -0.3552  0.0684
    72IDQ   C6311343   2.710   7.306   0.984  0.6348 -0.6646 -0.8038
    72IDQ   C6411344   2.585   7.226   1.062 -0.3661  0.3319  0.0012
    72IDQ   C6511345   2.576   7.182   1.197  0.2301  0.1325  0.9359
    72IDQ   C6611346   2.517   7.781   0.345 -0.4793 -0.5054 -0.1885
    72IDQ   C6711347   2.434   7.909   0.371  0.4927 -0.4264  0.8233
    72IDQ   C6811348   2.305   7.880   0.294  0.4046 -0.2808  0.9604
    72IDQ   C6911349   2.207   7.996   0.280  0.3525  0.7574  0.8121
    72IDQ   C7011350   2.175   8.083   0.396  0.1250  0.8021  0.9831
    72IDQ   C7111351   2.057   8.178   0.375 -0.0812  0.9433 -0.7800
    72IDQ   C7211352   2.100   8.290   0.478  2.1050 -1.1334 -1.7458
    11RH     C111353   2.389   5.983   6.494  0.5398 -0.2935  0.9284
    11RH     C211354   2.286   6.076   6.546  0.3313 -0.1366  0.2422
    11RH     N111355   2.334   5.857   6.462  0.5622 -0.2187  0.5877
    11RH     S111356   2.123   5.992   6.550  0.1786  0.0987 -0.8058
    11RH     C311357   2.199   5.838   6.482  0.3976 -0.0210 -0.2873
    11RH     C411358   2.421   5.733   6.429  1.2870  0.5615  0.5639
    11RH     S211359   2.109   5.699   6.453  0.3843  0.1040 -0.8512
    11RH     O111360   2.510   6.010   6.479  0.6796 -0.4687  1.7078
    11RH     C511361   2.312   6.202   6.583  0.2700 -0.1682  0.3925
    21BTZ    C611362   2.224   6.314   6.637 -0.3183 -0.4404  0.3354
    21BTZ    C711363   2.088   6.298   6.650 -0.2649 -0.5143  0.8314
    21BTZ    C811364   2.286   6.427   6.698 -0.1665 -0.3667  0.0441
    21BTZ    C911365   2.008   6.393   6.723 -0.0607 -0.5200  1.0645
    21BTZ   C1011366   2.063   6.503   6.782  0.0896 -0.4513  0.8017
    21BTZ   C1111367   2.205   6.524   6.772  0.0411 -0.3724  0.2811
    21BTZ    N211368   2.418   6.453   6.692 -0.2002 -0.2906 -0.4418
    21BTZ    N311369   2.270   6.627   6.826  0.1742 -0.3011 -0.0141
    21BTZ    S311370   2.443   6.605   6.783  0.0371 -0.2216 -0.6205
    31IDT   C1211371   1.974   6.611   6.838 -0.2756  0.3055 -0.6395
    31IDT   C1311372   1.986   6.701   6.940  0.4262  0.3088 -0.7143
    31IDT   C1411373   1.861   6.762   6.974  0.7288  0.6101 -0.1335
    31IDT   C1511374   1.754   6.719   6.898  0.2608  0.8377  0.3865
    31IDT    S411375   1.804   6.597   6.776 -0.6074  0.6871  0.1791
    4IDB    C1611376   1.630   6.762   6.940 -1.0256 -0.3198 -0.0475
    4IDB    C1711377   1.648   6.849   7.051 -0.1811 -0.0219 -0.4132
    51IDQ   C1811378   1.802   6.844   7.085  0.8326 -1.0796 -1.0386
    4IDB    C1911379   1.540   6.912   7.111  0.3153  0.4748 -0.0241
    51IDQ   C2011380   1.843   6.987   7.089 -0.1287  0.5630 -0.5873
    51IDQ   C2111381   1.850   6.779   7.238 -1.4126  0.9108  0.8567
    51IDQ   C2211382   1.741   6.739   7.342 -0.6422  0.4879  0.0816
    51IDQ   C2311383   1.986   7.040   7.078 -0.7978 -0.2366 -0.0503
    51IDQ   C2411384   1.665   6.837   7.422  0.9783 -0.2466 -0.4337
    51IDQ   C2511385   1.612   6.773   7.547  1.5825 -0.8379 -0.0110
    51IDQ   C2611386   1.706   6.726   7.668 -0.3560  0.5127 -1.2685
    51IDQ   C2711387   1.639   6.616   7.760 -0.1697  0.4438  0.7631
    51IDQ   C2811388   1.665   6.626   7.905 -0.4079  0.4749 -0.5061
    51IDQ   C2911389   1.596   6.522   7.983 -0.8527 -0.2517  0.3967
    51IDQ   C3011390   1.977   7.192   7.116  0.6429 -1.0473  0.6782
    51IDQ   C3111391   2.114   7.256   7.146 -0.1724  0.9859  1.1421
    51IDQ   C3211392   2.097   7.398   7.143  0.7638  0.0941 -0.3067
    51IDQ   C3311393   2.074   7.451   6.998  1.3818  0.5149 -1.8175
    51IDQ   C3411394   1.932   7.515   6.981 -1.2895 -0.0994  0.4992
    51IDQ   C3511395   1.881   7.624   7.078  0.6253  0.2795 -0.6841
    4IDB    C3611396   1.502   6.736   6.888 -1.3801 -0.1211  0.7143
    4IDB    C3711397   1.393   6.801   6.951 -0.8635  0.3874  1.1029
    11RH    C3811398   2.455   5.640   6.539  0.4306  0.0719  0.4533
    4IDB    C3911399   1.412   6.886   7.060 -0.0394  0.6735  0.7377
    62IDT   C4011400   1.285   6.953   7.090  0.0913  0.1007 -0.2247
    72IDQ   C4111401   1.238   6.777   6.937 -0.7573  0.5535 -0.9811
    62IDT   C4211402   1.182   6.888   7.026  0.0754  0.9577 -1.0740
    72IDQ   C4311403   1.183   6.636   6.965  0.7141  0.0587  0.2274
    72IDQ   C4411404   1.184   6.833   6.797  0.6863  0.2593  1.6826
    62IDT    S511405   1.226   7.086   7.196  0.2368 -0.2786  0.3405
    62IDT   C4511406   1.056   7.046   7.144  0.2701  0.7941 -0.6495
    62IDT   C4611407   1.052   6.941   7.056  0.1765  1.3511 -1.3154
    82BTZ   C4711408   0.941   7.129   7.165  0.5838  0.0681 -0.0642
    82BTZ   C4811409   0.829   7.104   7.090  0.5463 -0.2427  0.0910
    82BTZ   C4911410   0.708   7.180   7.107  0.3221 -0.6576  0.3387
    82BTZ   C5011411   0.698   7.280   7.200  0.1358 -0.7611  0.4306
    82BTZ   C5111412   0.936   7.233   7.264  0.3940 -0.0246  0.0235
    82BTZ   C5211413   0.812   7.310   7.282  0.1662 -0.4464  0.2751
    92RH    C5311414   0.579   7.369   7.215 -0.3855 -0.6588 -0.1295
    82BTZ    N411415   1.038   7.266   7.344  0.4089  0.2516 -0.1103
    82BTZ    N511416   0.815   7.405   7.376 -0.0020 -0.5091  0.3437
    82BTZ    S611417   0.979   7.400   7.447  0.1264 -0.0215  0.0840
    92RH    C5411418   0.463   7.389   7.151 -0.3027 -0.2620 -0.1556
    92RH     S711419   0.373   7.269   7.046 -0.4402  0.2112 -0.5839
    92RH    C5511420   0.388   7.517   7.156 -0.0789 -0.1427  0.1708
    92RH     O211421   0.423   7.618   7.219  0.0558 -0.3903  0.5005
    92RH     N611422   0.270   7.510   7.080 -0.0346  0.2966  0.0623
    92RH    C5611423   0.241   7.393   7.014 -0.1955  0.5437 -0.3111
    92RH    C5711424   0.191   7.644   7.072 -0.0394  1.0573 -0.4961
    92RH    C5811425   0.071   7.632   7.176 -0.3025 -0.4155  0.6310
    92RH     S811426   0.107   7.359   6.917 -0.1845  1.0710 -0.5119
    72IDQ   C5911427   1.165   6.745   6.670 -1.9969  0.1455  0.2834
    72IDQ   C6011428   1.283   6.666   6.624 -0.8259 -0.7337  0.6144
    72IDQ   C6111429   1.400   6.728   6.549  0.1690 -0.6933 -0.8023
    72IDQ   C6211430   1.337   6.793   6.427 -0.5088  0.7826  1.0482
    72IDQ   C6311431   1.449   6.846   6.328 -0.3304 -0.9363  0.9524
    72IDQ   C6411432   1.517   6.760   6.228  0.1138  0.6303  0.3276
    72IDQ   C6511433   1.610   6.851   6.160 -0.2024 -0.6345 -0.5394
    72IDQ   C6611434   1.149   6.584   7.108  0.4705 -0.3288 -0.6167
    72IDQ   C6711435   1.063   6.451   7.121  0.4327 -0.2726 -0.8688
    72IDQ   C6811436   1.068   6.335   7.010 -0.6081 -0.2131  0.1740
    72IDQ   C6911437   0.956   6.225   7.039 -1.5384  0.3162  0.2976
    72IDQ   C7011438   0.920   6.127   7.158 -1.2422  1.5128  1.3737
    72IDQ   C7111439   0.826   6.033   7.104  0.8985 -1.0872  0.1922
    72IDQ   C7211440   0.847   5.889   7.150  0.3708  0.5413  0.1635
    11RH     C111441   6.879   3.516   2.034 -0.1991  0.3134 -0.2193
    11RH     C211442   6.932   3.513   2.173  0.0842  0.1935 -0.3303
    11RH     N111443   6.774   3.424   2.017 -0.0363  0.1165 -0.1634
    11RH     S111444   6.840   3.389   2.271  0.5466 -0.1705 -0.3537
    11RH     C311445   6.736   3.347   2.125  0.3428 -0.1465 -0.2159
    11RH     C411446   6.699   3.427   1.886 -1.2212  0.1730 -1.2034
    11RH     S211447   6.614   3.230   2.131  0.6034 -0.4175 -0.1676
    11RH     O111448   6.920   3.590   1.943 -0.5381  0.5553 -0.1786
    11RH     C511449   7.032   3.591   2.215  0.0032  0.3365 -0.4003
    21BTZ    C611450   7.091   3.608   2.350 -0.1611 -0.5017  0.0253
    21BTZ    C711451   7.037   3.553   2.463  0.1867 -0.8789  0.0091
    21BTZ    C811452   7.201   3.699   2.363 -0.4124 -0.1942  0.0186
    21BTZ    C911453   7.088   3.584   2.594  0.3040 -0.9725 -0.0147
    21BTZ   C1011454   7.193   3.670   2.612  0.0738 -0.6888 -0.0221
    21BTZ   C1111455   7.253   3.730   2.496 -0.2929 -0.2894 -0.0056
    21BTZ    N211456   7.262   3.759   2.260 -0.7578  0.1844  0.0328
    21BTZ    N311457   7.356   3.816   2.501 -0.5423  0.0128 -0.0105
    21BTZ    S311458   7.391   3.860   2.331 -0.9488  0.4403  0.0158
    31IDT   C1211459   7.252   3.701   2.755  0.6420  0.0923 -0.1652
    31IDT   C1311460   7.279   3.830   2.793  0.8397  0.0560 -0.1847
    31IDT   C1411461   7.341   3.838   2.921  0.3148  0.0155  0.0753
    31IDT   C1511462   7.362   3.716   2.982 -0.2849  0.0205  0.2940
    31IDT    S411463   7.303   3.580   2.880 -0.2311  0.0776  0.1865
    4IDB    C1611464   7.459   3.738   3.091  0.3328 -0.0110  0.3424
    4IDB    C1711465   7.470   3.878   3.116 -0.3318 -0.0287  0.7622
    51IDQ   C1811466   7.379   3.946   3.026 -0.7165 -0.5423 -0.5532
    4IDB    C1911467   7.558   3.927   3.212 -0.2832  0.1246  0.6405
    51IDQ   C2011468   7.281   4.016   3.106  1.5329 -0.0434 -0.2884
    51IDQ   C2111469   7.453   4.043   2.935  0.9099  0.5917  0.5794
    51IDQ   C2211470   7.590   4.109   2.948  1.1277  0.1205 -0.2023
    51IDQ   C2311471   7.141   3.943   3.119 -0.4842  0.5303 -1.4310
    51IDQ   C2411472   7.630   4.139   2.814 -0.4279  0.0178  0.0924
    51IDQ   C2511473   7.752   4.209   2.768  0.1577 -0.3832  0.5701
    51IDQ   C2611474   7.723   4.201   2.620 -0.1117  0.5337 -0.5176
    51IDQ   C2711475   7.827   4.128   2.539  0.7016  1.0913  0.8418
    51IDQ   C2811476   7.820   3.972   2.579 -1.1496 -0.8646 -0.4974
    51IDQ   C2911477   7.693   3.897   2.570  0.2525 -1.0379 -0.1507
    51IDQ   C3011478   7.042   3.990   3.224 -1.3230 -0.8335 -0.1851
    51IDQ   C3111479   6.914   3.920   3.225  0.4717 -0.4382 -1.5325
    51IDQ   C3211480   6.831   3.976   3.109 -0.9973 -0.4748 -1.5511
    51IDQ   C3311481   6.694   3.916   3.077  0.7613  1.1367  0.9833
    51IDQ   C3411482   6.693   3.763   3.068  0.8270 -0.3798  0.2779
    51IDQ   C3511483   6.565   3.674   3.081  1.2059  0.5723  0.4022
    4IDB    C3611484   7.536   3.646   3.162  1.0543  0.1612 -0.2054
    4IDB    C3711485   7.626   3.697   3.259  1.0929  0.3161 -0.3221
    11RH    C3811486   6.573   3.508   1.867  0.6869 -0.8180  0.8709
    4IDB    C3911487   7.636   3.834   3.283  0.4382  0.2967  0.0928
    62IDT   C4011488   7.740   3.865   3.374  0.3517 -0.2533 -0.2667
    72IDQ   C4111489   7.736   3.621   3.342  1.5253 -0.6896  0.0108
    62IDT   C4211490   7.792   3.744   3.415  0.9281 -0.2416 -0.9485
    72IDQ   C4311491   7.816   3.544   3.220 -1.1758 -0.1737 -1.1871
    72IDQ   C4411492   7.675   3.499   3.424 -0.5483 -1.0210 -0.0229
    62IDT    S511493   7.814   4.003   3.463 -0.2754 -0.3938  0.4816
    62IDT   C4511494   7.916   3.884   3.555  0.3029 -0.4313 -0.2002
    62IDT   C4611495   7.891   3.754   3.517  0.9013 -0.3422 -0.9120
    82BTZ   C4711496   7.997   3.929   3.674 -0.8560  0.2094 -0.1722
    82BTZ   C4811497   8.131   3.903   3.682 -0.8804  0.0527 -0.2674
    82BTZ   C4911498   8.207   3.936   3.800 -0.7527 -0.0137 -0.3314
    82BTZ   C5011499   8.149   3.996   3.909 -0.6006  0.0770 -0.2998
    82BTZ   C5111500   7.932   3.991   3.785 -0.6989  0.3095 -0.1357
    82BTZ   C5211501   8.009   4.025   3.905 -0.5690  0.2420 -0.2007
    92RH    C5311502   8.222   4.038   4.029  0.4163  0.4498 -0.1184
    82BTZ    N411503   7.802   4.022   3.788 -0.6603  0.4640 -0.0443
    82BTZ    N511504   7.941   4.083   4.004 -0.4260  0.3424 -0.1616
    82BTZ    S611505   7.772   4.097   3.948 -0.4519  0.5312 -0.0376
    92RH    C5411506   8.348   4.042   4.072  0.3684  0.3335  0.0322
    92RH     S711507   8.499   4.001   3.976  0.4555  0.3258  0.1715
    92RH    C5511508   8.387   4.082   4.210  0.2325  0.1886  0.1118
    92RH     O211509   8.308   4.115   4.300  0.1487  0.1578  0.0501
    92RH     N611510   8.526   4.077   4.228  0.2085  0.0862  0.2710
    92RH    C5611511   8.605   4.038   4.122  0.3084  0.1318  0.3283
    92RH    C5711512   8.584   4.141   4.341 -0.5177  0.4124  1.2749
    92RH    C5811513   8.584   4.293   4.330  0.0726  0.5222  0.8714
    92RH     S811514   8.773   4.024   4.118  0.3051  0.0322  0.5114
    72IDQ   C5911515   7.572   3.506   3.541 -0.6538  0.2805 -0.2525
    72IDQ   C6011516   7.637   3.512   3.682  0.2778 -0.9888 -0.3611
    72IDQ   C6111517   7.552   3.480   3.806 -0.4590  0.6801  1.0801
    72IDQ   C6211518   7.625   3.498   3.946 -0.4671  1.3741 -0.5897
    72IDQ   C6311519   7.680   3.642   3.983 -0.1734 -1.2458  0.5989
    72IDQ   C6411520   7.727   3.668   4.126  0.7406  0.0876 -0.1255
    72IDQ   C6511521   7.755   3.566   4.232 -0.1959  0.5743 -0.6112
    72IDQ   C6611522   7.945   3.482   3.260 -0.3948  0.2807  1.3103
    72IDQ   C6711523   7.998   3.406   3.132 -0.4770 -0.3158  0.3125
    72IDQ   C6811524   7.926   3.293   3.067  1.3830  0.1710 -0.3874
    72IDQ   C6911525   7.945   3.281   2.915  0.3857 -0.1549  0.7958
    72IDQ   C7011526   7.886   3.414   2.849  0.5624  0.8776  0.9776
    72IDQ   C7111527   7.833   3.400   2.701  0.4548 -1.9679 -0.6972
    72IDQ   C7211528   7.762   3.526   2.677  0.2161  0.8074  0.4795
    11RH     C111529   4.520   3.974   6.708  0.4504 -0.5271  0.2508
    11RH     C211530   4.459   3.863   6.786  0.3221 -0.3686  0.3793
    11RH     N111531   4.590   4.063   6.792 -0.1585 -0.0505  0.2580
    11RH     S111532   4.499   3.883   6.964 -0.5902  0.3967  0.5011
    11RH     C311533   4.593   4.037   6.928 -0.7586  0.4704  0.3765
    11RH     C411534   4.657   4.180   6.726  0.1138  0.3770 -0.4100
    11RH     S211535   4.669   4.127   7.048 -1.5476  1.0998  0.4106
    11RH     O111536   4.511   3.989   6.586  1.0147 -1.0132  0.1483
    11RH     C511537   4.388   3.765   6.730  0.8123 -0.7412  0.3990
    21BTZ    C611538   4.300   3.649   6.777  0.8517 -0.6718 -0.2138
    21BTZ    C711539   4.270   3.620   6.908  0.8368 -0.8218 -0.2506
    21BTZ    C811540   4.253   3.560   6.675  0.5057 -0.3340 -0.3531
    21BTZ    C911541   4.194   3.502   6.944  0.4840 -0.6487 -0.4249
    21BTZ   C1011542   4.148   3.415   6.850  0.1462 -0.3262 -0.5624
    21BTZ   C1111543   4.176   3.441   6.711  0.1469 -0.1582 -0.5302
    21BTZ    N211544   4.276   3.578   6.544  0.4840 -0.1615 -0.3335
    21BTZ    N311545   4.137   3.363   6.610 -0.1631  0.1556 -0.6533
    21BTZ    S311546   4.198   3.440   6.461 -0.0063  0.2415 -0.5452
    31IDT   C1211547   4.066   3.297   6.898  0.2072 -0.2469 -0.5864
    31IDT   C1311548   3.968   3.219   6.843  0.1237 -0.3763 -0.2582
    31IDT   C1411549   3.911   3.126   6.936  0.1942 -0.0925  0.0696
    31IDT   C1511550   3.966   3.133   7.063  0.3311  0.2544 -0.0070
    31IDT    S411551   4.095   3.258   7.074  0.3820  0.2485 -0.5039
    4IDB    C1611552   3.890   3.040   7.145  0.5576 -1.0049 -0.4338
    4IDB    C1711553   3.799   2.959   7.070 -0.0618 -0.5306 -0.1908
    51IDQ   C1811554   3.813   3.007   6.920 -0.7434  0.0795  0.8716
    4IDB    C1911555   3.730   2.854   7.131 -0.1302 -0.4390 -0.1094
    51IDQ   C2011556   3.892   2.871   6.882 -0.3409  0.0058  0.9014
    51IDQ   C2111557   3.670   3.036   6.840  0.2055  0.5357  1.1205
    51IDQ   C2211558   3.564   3.152   6.863  0.4425 -0.6696  0.6082
    51IDQ   C2311559   4.037   2.874   6.816 -0.1551  1.8472 -0.3250
    51IDQ   C2411560   3.460   3.113   6.969 -0.2122 -0.9728  0.1685
    51IDQ   C2511561   3.381   2.984   6.941  2.5067 -0.3469  0.5348
    51IDQ   C2611562   3.290   2.959   7.057 -1.0267  0.2464 -0.7034
    51IDQ   C2711563   3.309   2.819   7.101 -0.4388 -0.6420 -1.3079
    51IDQ   C2811564   3.178   2.767   7.134  0.6608 -0.1098  0.4178
    51IDQ   C2911565   3.190   2.628   7.180  0.3533 -0.3727  0.3715
    51IDQ   C3011566   4.079   2.728   6.757 -0.5624 -1.5680  0.6304
    51IDQ   C3111567   4.227   2.718   6.759 -0.4872  0.5901  1.7337
    51IDQ   C3211568   4.313   2.669   6.875  0.4610 -0.0504 -0.1546
    51IDQ   C3311569   4.279   2.674   7.028  0.6556 -1.1667  0.0518
    51IDQ   C3411570   4.307   2.806   7.095 -0.2614  1.0509 -0.7417
    51IDQ   C3511571   4.221   2.811   7.220  0.3803  0.1059 -1.3117
    4IDB    C3611572   3.914   3.015   7.281  1.1148 -1.3928 -0.5978
    4IDB    C3711573   3.844   2.908   7.341  1.0353 -1.2926 -0.5115
    11RH    C3811574   4.816   4.189   6.717  0.3602 -1.6732  0.5978
    4IDB    C3911575   3.754   2.830   7.267  0.4272 -0.8270 -0.2734
    62IDT   C4011576   3.719   2.710   7.343  0.4730 -0.3797  0.2782
    72IDQ   C4111577   3.834   2.866   7.488 -0.0792 -0.4022 -0.0043
    62IDT   C4211578   3.761   2.713   7.474  1.4125 -0.9503 -0.0021
    72IDQ   C4311579   3.762   2.968   7.581  1.0800  1.9415  0.6804
    72IDQ   C4411580   3.985   2.846   7.542  1.1779  0.7485 -0.7443
    62IDT    S511581   3.654   2.550   7.297 -0.3336 -0.0306  0.1864
    62IDT   C4511582   3.689   2.492   7.466  0.6917 -0.7072 -0.2472
    62IDT   C4611583   3.744   2.590   7.544  1.5373 -1.1362 -0.2995
    82BTZ   C4711584   3.683   2.346   7.505  0.2022 -0.1704  0.0198
    82BTZ   C4811585   3.674   2.325   7.640  0.2394 -0.1431  0.0264
    82BTZ   C4911586   3.673   2.192   7.697  0.4264 -0.1283  0.0656
    82BTZ   C5011587   3.681   2.080   7.618  0.5760 -0.1409  0.0980
    82BTZ   C5111588   3.692   2.231   7.419  0.3542 -0.1845  0.0528
    82BTZ   C5211589   3.690   2.097   7.476  0.5442 -0.1694  0.0926
    92RH    C5311590   3.636   1.952   7.656 -0.0478 -0.0731 -0.3727
    82BTZ    N411591   3.701   2.239   7.286  0.3356 -0.2110  0.0501
    82BTZ    N511592   3.699   1.995   7.390  0.6783 -0.1838  0.1219
    82BTZ    S611593   3.708   2.070   7.227  0.5650 -0.2181  0.0994
    92RH    C5411594   3.575   1.904   7.765  0.0238 -0.0394 -0.3176
    92RH     S711595   3.509   2.001   7.906  0.0268  0.0116 -0.3514
    92RH    C5511596   3.551   1.760   7.788  0.1148 -0.0383 -0.2174
    92RH     O211597   3.584   1.668   7.711  0.1349 -0.0678 -0.1733
    92RH     N611598   3.485   1.737   7.911  0.1774  0.0012 -0.1763
    92RH    C5611599   3.453   1.846   7.989  0.1478  0.0318 -0.2315
    92RH    C5711600   3.483   1.606   7.984  0.4887 -0.3668  0.0479
    92RH    C5811601   3.392   1.494   7.927 -1.0465  1.1661 -0.0392
    92RH     S811602   3.375   1.847   8.138  0.2084  0.0812 -0.1999
    72IDQ   C5911603   4.020   2.777   7.666  0.1244 -0.4669  0.2963
    72IDQ   C6011604   4.091   2.644   7.672  0.3005  0.5285  0.2876
    72IDQ   C6111605   4.188   2.611   7.797  0.4204  0.5522 -0.4392
    72IDQ   C6211606   4.167   2.677   7.927 -1.4367 -0.1531 -0.2849
    72IDQ   C6311607   4.292   2.679   8.022  0.4203 -0.6138 -1.0030
    72IDQ   C6411608   4.245   2.746   8.145 -0.1122  0.6297 -1.2984
    72IDQ   C6511609   4.323   2.696   8.276 -0.0356 -0.6425 -0.2161
    72IDQ   C6611610   3.809   3.113   7.600  0.3328 -2.2841 -0.0909
    72IDQ   C6711611   3.717   3.196   7.500  0.7872  1.1945 -1.1112
    72IDQ   C6811612   3.617   3.256   7.600 -1.2770 -0.3429  0.4390
    72IDQ   C6911613   3.522   3.357   7.554  0.9822 -1.3964 -0.0105
    72IDQ   C7011614   3.416   3.386   7.673  0.6662 -0.2901  1.7197
    72IDQ   C7111615   3.297   3.462   7.617  1.5855 -0.0294 -0.7006
    72IDQ   C7211616   3.308   3.594   7.533  0.1471  1.0249 -0.2641
    11RH     C111617   3.515   0.064   5.272 -0.2363  0.0552  0.2191
    11RH     C211618   3.477   0.207   5.269 -0.2730  0.0459  0.2503
    11RH     N111619   3.588   0.028   5.156  0.0393  0.1741  0.3552
    11RH     S111620   3.539   0.285   5.115  0.0572  0.1941  0.4574
    11RH     C311621   3.613   0.125   5.062  0.2277  0.2611  0.4921
    11RH     C411622   3.617  -0.115   5.137 -1.2254 -0.2755 -0.0351
    11RH     S211623   3.697   0.108   4.916  0.5659  0.4084  0.6692
    11RH     O111624   3.489  -0.017   5.363 -0.4202 -0.0291  0.0906
    11RH     C511625   3.407   0.266   5.367 -0.5141 -0.0569  0.1416
    21BTZ    C611626   3.344   0.400   5.374 -0.1302 -0.1887 -0.3839
    21BTZ    C711627   3.341   0.492   5.272 -0.2549 -0.1554 -0.3502
    21BTZ    C811628   3.247   0.410   5.478 -0.1243 -0.3401 -0.3633
    21BTZ    C911629   3.243   0.598   5.269 -0.3792 -0.2683 -0.2949
    21BTZ   C1011630   3.149   0.612   5.366 -0.3787 -0.4143 -0.2738
    21BTZ   C1111631   3.148   0.518   5.475 -0.2506 -0.4548 -0.3076
    21BTZ    N211632   3.240   0.327   5.582 -0.0091 -0.3863 -0.3924
    21BTZ    N311633   3.060   0.521   5.576 -0.2371 -0.5932 -0.2913
    21BTZ    S311634   3.103   0.383   5.682 -0.0582 -0.5825 -0.3483
    31IDT   C1211635   3.065   0.734   5.369  0.2240  0.1996  0.2997
    31IDT   C1311636   3.004   0.786   5.480  0.1090  0.1646  0.2520
    31IDT   C1411637   2.925   0.902   5.450 -0.1200 -0.0160  0.1531
    31IDT   C1511638   2.925   0.938   5.317 -0.1803 -0.1196  0.1234
    31IDT    S411639   3.027   0.829   5.218  0.0498  0.0047  0.2205
    4IDB    C1611640   2.856   1.056   5.305  0.3255  0.6029  0.3855
    4IDB    C1711641   2.831   1.120   5.430  0.3946  1.0117  0.1919
    51IDQ   C1811642   2.859   1.008   5.541 -1.9979 -0.2523 -1.2672
    4IDB    C1911643   2.761   1.240   5.436 -0.0745  0.7591 -0.1196
    51IDQ   C2011644   2.959   1.077   5.632  0.7133 -1.1185  0.6848
    51IDQ   C2111645   2.735   0.951   5.622  0.2074  0.1700  0.0891
    51IDQ   C2211646   2.584   0.976   5.585 -0.1859  0.2789 -0.2051
    51IDQ   C2311647   3.103   1.048   5.655  0.5159  0.7731  0.4782
    51IDQ   C2411648   2.546   0.918   5.436 -0.8556  0.0325 -0.8483
    51IDQ   C2511649   2.416   0.941   5.372 -0.2614 -0.4525  0.4819
    51IDQ   C2611650   2.310   1.040   5.439 -0.2865  1.2220 -0.0255
    51IDQ   C2711651   2.270   1.184   5.402  0.1707 -0.7501  0.9005
    51IDQ   C2811652   2.356   1.292   5.452  0.2636 -1.3872  0.5156
    51IDQ   C2911653   2.385   1.266   5.607 -0.5253  0.1208  0.6843
    51IDQ   C3011654   3.204   1.150   5.723 -0.1139 -1.2070 -0.1340
    51IDQ   C3111655   3.227   1.279   5.635  0.1665  0.3273 -1.2459
    51IDQ   C3211656   3.326   1.273   5.510  0.9656 -0.5695  0.1334
    51IDQ   C3311657   3.266   1.205   5.386  1.0267 -0.4769 -0.9859
    51IDQ   C3411658   3.357   1.176   5.262 -0.8087 -1.1009 -0.2278
    51IDQ   C3511659   3.354   1.054   5.161 -0.0109 -0.4762 -0.5415
    4IDB    C3611660   2.811   1.112   5.184 -0.2167 -0.0653  0.2677
    4IDB    C3711661   2.740   1.235   5.193 -0.6914 -0.3147 -0.0508
    11RH    C3811662   3.765  -0.135   5.161 -0.2960  0.4593  0.8347
    4IDB    C3911663   2.716   1.296   5.316 -0.6170  0.0911 -0.2370
    62IDT   C4011664   2.649   1.427   5.300 -0.1160  0.2095 -0.3794
    72IDQ   C4111665   2.694   1.329   5.079  0.4994 -0.3351 -0.9549
    62IDT   C4211666   2.624   1.443   5.165 -0.4611  0.8212 -0.2465
    72IDQ   C4311667   2.576   1.273   4.983  0.2580  0.4723 -0.6460
    72IDQ   C4411668   2.810   1.385   4.988  1.4213  1.2175  0.4464
    62IDT    S511669   2.573   1.556   5.398 -0.1033 -0.3903  0.4308
    62IDT   C4511670   2.508   1.629   5.244 -0.5888  0.2487  0.9306
    62IDT   C4611671   2.544   1.557   5.134 -0.7287  0.8443  0.4940
    82BTZ   C4711672   2.437   1.757   5.250  0.4348 -0.6701 -0.4296
    82BTZ   C4811673   2.426   1.819   5.371  0.0495 -1.1177 -0.2291
    82BTZ   C4911674   2.359   1.946   5.386 -0.2822 -1.3276  0.0854
    82BTZ   C5011675   2.302   2.010   5.279 -0.2277 -1.0895  0.1979
    82BTZ   C5111676   2.379   1.820   5.135  0.5072 -0.4066 -0.3231
    82BTZ   C5211677   2.310   1.949   5.150  0.1704 -0.6199 -0.0033
    92RH    C5311678   2.237   2.147   5.284 -0.0492  0.2331 -0.1907
    82BTZ    N411679   2.382   1.769   5.012  0.8690  0.0318 -0.4964
    82BTZ    N511680   2.259   2.001   5.038  0.2612 -0.3529  0.0799
    82BTZ    S611681   2.297   1.886   4.907  0.7926  0.1939 -0.2541
    92RH    C5411682   2.230   2.242   5.378 -0.0824  0.1919 -0.1521
    92RH     S711683   2.253   2.219   5.559  0.5946  0.2443 -0.2296
    92RH    C5511684   2.201   2.384   5.349 -0.6958  0.0943 -0.0365
    92RH     O211685   2.181   2.432   5.237 -1.2406  0.0399  0.0372
    92RH     N611686   2.200   2.462   5.467 -0.5889  0.0691 -0.0182
    92RH    C5611687   2.224   2.399   5.587  0.0349  0.1347 -0.1054
    92RH    C5711688   2.176   2.608   5.463 -0.0463  0.0991  0.8643
    92RH    C5811689   2.042   2.656   5.481 -0.0100 -0.9277 -0.6402
    92RH     S811690   2.227   2.468   5.741  0.2910  0.1224 -0.1061
    72IDQ   C5911691   2.904   1.492   5.002 -0.9184 -0.2116 -1.2399
    72IDQ   C6011692   3.034   1.503   4.935 -0.5616 -0.0506  0.2831
    72IDQ   C6111693   3.119   1.396   5.006  0.3042  0.6091  0.0667
    72IDQ   C6211694   3.255   1.352   4.946  0.1181  0.5858 -0.4668
    72IDQ   C6311695   3.347   1.466   4.988  0.4757  0.5935  0.1839
    72IDQ   C6411696   3.476   1.473   4.908 -0.5704  0.0872  0.1340
    72IDQ   C6511697   3.583   1.355   4.922 -0.2762 -1.0121  0.1282
    72IDQ   C6611698   2.442   1.197   5.047 -0.1911 -1.2487 -0.0951
    72IDQ   C6711699   2.346   1.137   4.942 -0.2796 -0.4518 -0.7620
    72IDQ   C6811700   2.388   1.020   4.851 -0.9477 -0.4216  0.2128
    72IDQ   C6911701   2.468   1.072   4.734 -0.3484  0.7733 -1.4977
    72IDQ   C7011702   2.418   1.196   4.667  0.6414 -0.1857  0.2173
    72IDQ   C7111703   2.499   1.249   4.549  0.3355 -0.3565  0.5323
    72IDQ   C7211704   2.641   1.267   4.595 -0.9754 -1.7166  0.3818
    11RH     C111705   2.353   2.184   6.959  0.2078 -0.3393  0.2518
    11RH     C211706   2.390   2.265   7.078  0.2742 -0.2873  0.1957
    11RH     N111707   2.354   2.262   6.842  0.1307 -0.3877  0.2189
    11RH     S111708   2.425   2.438   7.028  0.2309 -0.3057  0.1035
    11RH     C311709   2.388   2.396   6.852  0.1273 -0.3812  0.1428
    11RH     C411710   2.288   2.200   6.720  0.5506  1.2858  0.6461
    11RH     S211711   2.397   2.510   6.728  0.0439 -0.4318  0.0901
    11RH     O111712   2.324   2.064   6.960  0.2170 -0.3411  0.3195
    11RH     C511713   2.397   2.215   7.202  0.3529 -0.2356  0.2126
    21BTZ    C611714   2.406   2.269   7.336 -0.2101 -0.3656 -0.1314
    21BTZ    C711715   2.399   2.403   7.364 -0.7231 -0.3567 -0.2767
    21BTZ    C811716   2.459   2.180   7.435 -0.1143 -0.0856  0.0690
    21BTZ    C911717   2.445   2.456   7.490 -1.1649 -0.0743 -0.2328
    21BTZ   C1011718   2.497   2.375   7.588 -1.0931  0.1989 -0.0437
    21BTZ   C1111719   2.506   2.234   7.563 -0.5633  0.2013  0.1136
    21BTZ    N211720   2.471   2.048   7.419  0.3670 -0.0651  0.2232
    21BTZ    N311721   2.555   2.146   7.650 -0.4430  0.4525  0.3037
    21BTZ    S311722   2.543   1.986   7.571  0.2645  0.3304  0.4363
    31IDT   C1211723   2.568   2.443   7.692 -0.3805  0.2202  0.5613
    31IDT   C1311724   2.611   2.381   7.806 -1.4637  1.0334  1.4368
    31IDT   C1411725   2.701   2.461   7.883 -1.6330  1.3065  1.3523
    31IDT   C1511726   2.727   2.585   7.828 -0.6829  0.7048  0.4142
    31IDT    S411727   2.639   2.610   7.673  0.5114 -0.2632 -0.4428
    4IDB    C1611728   2.813   2.661   7.917  0.3766 -0.4454 -0.7758
    4IDB    C1711729   2.865   2.578   8.021  1.0115 -0.8035 -1.3727
    51IDQ   C1811730   2.788   2.445   8.011  0.0435  0.4820  0.7784
    4IDB    C1911731   2.966   2.623   8.104  0.5370 -0.5539 -0.9284
    51IDQ   C2011732   2.884   2.323   8.011  0.1987  0.9850  1.0031
    51IDQ   C2111733   2.689   2.434   8.133 -0.5772 -0.0627 -0.0155
    51IDQ   C2211734   2.698   2.494   8.271 -0.4404  0.2034  1.1030
    51IDQ   C2311735   2.857   2.180   7.963  0.2825 -0.0814  0.1102
    51IDQ   C2411736   2.755   2.372   8.347 -0.2960 -0.3749 -0.5010
    51IDQ   C2511737   2.754   2.415   8.502 -0.0691  0.9882 -0.1316
    51IDQ   C2611738   2.789   2.299   8.573 -0.4183 -0.5293  1.5256
    51IDQ   C2711739   2.749   2.341   8.709 -1.6506 -0.4648 -0.0609
    51IDQ   C2811740   2.728   2.267   8.851  0.0666 -0.4272 -0.4446
    51IDQ   C2911741   2.674   2.123   8.842 -0.2479  0.0920  0.9671
    51IDQ   C3011742   2.753   2.100   8.036 -0.4485  0.4194 -0.6536
    51IDQ   C3111743   2.694   1.985   7.980  0.3560  0.3082  0.2311
    51IDQ   C3211744   2.761   1.838   7.960 -0.3354 -1.2321  0.2041
    51IDQ   C3311745   2.879   1.820   7.872  0.9455 -0.7380 -0.1767
    51IDQ   C3411746   2.938   1.683   7.902  0.3004  0.2744 -0.7469
    51IDQ   C3511747   3.065   1.671   7.829 -0.5298 -0.9244  0.2188
    4IDB    C3611748   2.862   2.790   7.896 -0.7437  0.1683  0.2759
    4IDB    C3711749   2.965   2.835   7.982 -1.2145  0.4158  0.7168
    11RH    C3811750   2.149   2.259   6.683  0.1378 -0.0625  0.1802
    4IDB    C3911751   3.015   2.753   8.083 -0.5832  0.0600  0.1233
    62IDT   C4011752   3.135   2.812   8.129  0.8644  0.2063 -0.3291
    72IDQ   C4111753   3.041   2.966   7.977 -2.8925 -0.9764 -0.0029
    62IDT   C4211754   3.151   2.944   8.091  1.2429  0.2464 -0.0404
    72IDQ   C4311755   2.931   3.087   8.003  0.6190  1.3286 -0.6079
    72IDQ   C4411756   3.140   2.972   7.862 -0.9270 -0.1025  1.0808
    62IDT    S511757   3.252   2.765   8.257 -0.0681 -0.0672  0.4319
    62IDT   C4511758   3.319   2.934   8.252  0.1116 -0.1152  1.1344
    62IDT   C4611759   3.255   3.013   8.161  0.8179  0.0650  0.7873
    82BTZ   C4711760   3.426   2.992   8.345  0.0367 -0.7357 -0.4080
    82BTZ   C4811761   3.422   2.948   8.474 -0.3372 -0.6053 -0.3735
    82BTZ   C4911762   3.525   2.983   8.569 -0.6683 -0.4182 -0.0806
    82BTZ   C5011763   3.632   3.062   8.534 -0.6251 -0.3617  0.1773
    82BTZ   C5111764   3.535   3.075   8.303  0.0974 -0.6834 -0.1447
    82BTZ   C5211765   3.640   3.110   8.400 -0.2391 -0.4932  0.1530
    92RH    C5311766   3.746   3.079   8.622 -0.0527  0.3464  0.3026
    82BTZ    N411767   3.550   3.124   8.180  0.4475 -0.7980 -0.1493
    82BTZ    N511768   3.739   3.188   8.354 -0.1596 -0.4549  0.3875
    82BTZ    S611769   3.702   3.219   8.182  0.3596 -0.6648  0.2347
    92RH    C5411770   3.784   3.008   8.728 -0.1006  0.1508  0.1882
    92RH     S711771   3.710   2.850   8.786  0.1073 -0.1415 -0.3414
    92RH    C5511772   3.894   3.047   8.819 -0.3380  0.1420  0.4848
    92RH     O211773   3.964   3.149   8.807 -0.5172  0.3105  0.8665
    92RH     N611774   3.912   2.953   8.923 -0.3379 -0.0866  0.2793
    92RH    C5611775   3.829   2.843   8.927 -0.1293 -0.2613 -0.1456
    92RH    C5711776   4.037   2.952   9.016  2.0663 -0.0855  1.3791
    92RH    C5811777   4.014   2.978   9.165 -0.4044 -1.5573 -0.5175
    92RH     S811778   3.830   2.718   9.039 -0.0820 -0.5459 -0.4623
    72IDQ   C5911779   3.096   3.014   7.728  0.2725  0.8467  0.2121
    72IDQ   C6011780   3.191   3.005   7.595 -1.2162 -0.7059 -0.0173
    72IDQ   C6111781   3.153   3.014   7.455  1.2669  0.6345 -0.2613
    72IDQ   C6211782   3.193   3.106   7.357  1.1007  0.0696  0.3228
    72IDQ   C6311783   3.102   3.217   7.303  0.2811  0.0853  0.7745
    72IDQ   C6411784   3.162   3.345   7.249  0.4453 -1.3647 -0.1697
    72IDQ   C6511785   3.056   3.466   7.225 -0.8208 -0.1915 -0.6289
    72IDQ   C6611786   2.980   3.226   8.051 -1.6323 -0.4828  0.8077
    72IDQ   C6711787   2.890   3.336   8.027  1.1286 -0.3336 -1.2638
    72IDQ   C6811788   2.954   3.456   8.117  0.1900  0.6204  0.9124
    72IDQ   C6911789   2.868   3.576   8.134  0.1174  0.5115 -0.9049
    72IDQ   C7011790   2.944   3.659   8.245  2.0102 -0.4323 -0.7480
    72IDQ   C7111791   2.857   3.692   8.351 -0.4457  0.0503  0.1957
    72IDQ   C7211792   2.886   3.818   8.426 -0.4517  1.5868  0.8348
    11RH     C111793   0.115   6.873   6.335  0.1282 -0.2780 -0.2904
    11RH     C211794   0.097   6.729   6.366 -0.1817 -0.1705  0.0341
    11RH     N111795   0.183   6.940   6.439  0.2579 -0.1847 -0.4344
    11RH     S111796   0.170   6.692   6.530 -0.2825  0.0469  0.1286
    11RH     C311797   0.221   6.868   6.550  0.0897 -0.0153 -0.2649
    11RH     C411798   0.202   7.092   6.442  0.2201  0.0994 -0.2818
    11RH     S211799   0.302   6.924   6.686  0.1908  0.1237 -0.3810
    11RH     O111800   0.077   6.930   6.231  0.2624 -0.4311 -0.4246
    11RH     C511801   0.036   6.643   6.284 -0.3545 -0.2276  0.2219
    21BTZ    C611802   0.004   6.502   6.285  1.2359 -0.6474 -0.1856
    21BTZ    C711803   0.058   6.433   6.390  1.4952 -0.8452 -0.4451
    21BTZ    C811804  -0.051   6.427   6.175  0.3610 -0.4475  0.1111
    21BTZ    C911805   0.060   6.289   6.393  0.9122 -0.8569 -0.4265
    21BTZ   C1011806   0.009   6.214   6.291  0.0707 -0.6706 -0.1483
    21BTZ   C1111807  -0.049   6.281   6.178 -0.2316 -0.4597  0.1302
    21BTZ    N211808  -0.106   6.483   6.067  0.0327 -0.2449  0.3803
    21BTZ    N311809  -0.102   6.219   6.073 -1.0362 -0.2663  0.4144
    21BTZ    S311810  -0.159   6.347   5.962 -1.0709 -0.0566  0.6751
    31IDT   C1211811   0.042   6.071   6.286 -0.2926 -0.0313  0.1047
    31IDT   C1311812   0.084   6.004   6.174 -0.3347  0.1087  0.0050
    31IDT   C1411813   0.131   5.872   6.203 -0.2689  0.0939 -0.1700
    31IDT   C1511814   0.126   5.838   6.336 -0.1765 -0.0567 -0.2048
    31IDT    S411815   0.061   5.971   6.437 -0.1655 -0.1930 -0.0171
    4IDB    C1611816   0.180   5.708   6.368  0.7954  0.8445 -0.9314
    4IDB    C1711817   0.229   5.642   6.251  1.0453  0.3214 -0.5355
    51IDQ   C1811818   0.184   5.750   6.140 -0.4269 -0.9979  0.0966
    4IDB    C1911819   0.283   5.515   6.259  0.3328  0.0458  0.0330
    51IDQ   C2011820   0.342   5.764   6.097  0.2265  1.3165  0.9038
    51IDQ   C2111821   0.100   5.692   6.021  0.7141 -0.2131  0.6225
    51IDQ   C2211822  -0.001   5.583   6.044 -0.1787 -0.5923 -1.2147
    51IDQ   C2311823   0.430   5.884   6.128  0.6456 -0.7154  1.0300
    51IDQ   C2411824  -0.137   5.603   6.101 -0.3829  1.2308 -0.4714
    51IDQ   C2511825  -0.234   5.600   5.990 -0.0796 -0.0911  0.2469
    51IDQ   C2611826  -0.263   5.481   5.896 -0.1386  0.4986 -1.8584
    51IDQ   C2711827  -0.400   5.496   5.836 -0.1772 -0.8047 -1.5324
    51IDQ   C2811828  -0.408   5.380   5.743  0.5170 -2.1074  0.8837
    51IDQ   C2911829  -0.547   5.341   5.722 -0.5325  0.8855  1.5653
    51IDQ   C3011830   0.578   5.866   6.055 -0.3273  1.0675 -0.1204
    51IDQ   C3111831   0.706   5.925   6.117  0.3242  0.0650 -0.6228
    51IDQ   C3211832   0.681   6.056   6.208 -0.7461 -0.7510 -0.3820
    51IDQ   C3311833   0.803   6.146   6.226  0.9300  0.2449  0.3556
    51IDQ   C3411834   0.875   6.198   6.101  1.8114  0.6694 -0.4086
    51IDQ   C3511835   0.796   6.299   6.011  1.1741 -0.5111 -0.2668
    4IDB    C3611836   0.185   5.646   6.494 -0.1751  1.0962 -0.7596
    4IDB    C3711837   0.241   5.516   6.499 -0.8935  0.8082 -0.1771
    11RH    C3811838   0.307   7.129   6.344 -0.5635 -0.0842 -0.1422
    4IDB    C3911839   0.288   5.453   6.384 -0.6378  0.2974  0.2045
    62IDT   C4011840   0.337   5.325   6.432 -0.4473 -0.1926  0.0511
    72IDQ   C4111841   0.257   5.435   6.620 -0.6721 -0.0996 -0.8715
    62IDT   C4211842   0.288   5.298   6.559 -0.7010 -0.2697 -0.0622
    72IDQ   C4311843   0.112   5.409   6.675 -0.9458 -1.3467 -0.0203
    72IDQ   C4411844   0.352   5.500   6.742  0.4735 -0.0282 -0.1481
    62IDT    S511845   0.407   5.179   6.355  0.3647  0.0142  0.3853
    62IDT   C4511846   0.364   5.084   6.504  0.3159 -0.0165  0.3526
    62IDT   C4611847   0.304   5.162   6.600 -0.2700 -0.1705  0.1075
    82BTZ   C4711848   0.392   4.942   6.525 -0.4879 -0.1872 -0.1008
    82BTZ   C4811849   0.527   4.920   6.526 -0.4326  0.1211 -0.3164
    82BTZ   C4911850   0.583   4.789   6.500 -0.1668  0.2885 -0.5927
    82BTZ   C5011851   0.503   4.681   6.471  0.0432  0.1476 -0.6528
    82BTZ   C5111852   0.304   4.833   6.496 -0.2748 -0.3450 -0.1535
    82BTZ   C5211853   0.360   4.700   6.469 -0.0047 -0.1748 -0.4342
    92RH    C5311854   0.558   4.549   6.437  0.0706  0.1883  0.3127
    82BTZ    N411855   0.171   4.843   6.492 -0.3039 -0.6447  0.0389
    82BTZ    N511856   0.272   4.603   6.443  0.1833 -0.3376 -0.4675
    82BTZ    S611857   0.111   4.679   6.452  0.0196 -0.7234 -0.1338
    92RH    C5411858   0.676   4.486   6.440 -0.0221  0.0048  0.1621
    92RH     S711859   0.831   4.547   6.519  0.0778 -0.3969  0.2781
    92RH    C5511860   0.700   4.354   6.379 -0.2270  0.1037 -0.1316
    92RH     O211861   0.616   4.286   6.318 -0.3352  0.3629 -0.2708
    92RH     N611862   0.834   4.311   6.397 -0.2874 -0.1361 -0.2386
    92RH    C5611863   0.920   4.394   6.466 -0.1559 -0.4151 -0.0668
    92RH    C5711864   0.871   4.157   6.387  1.4477  1.2059 -0.1982
    92RH    C5811865   0.901   4.115   6.248 -1.0567  0.3167  1.7469
    92RH     S811866   1.082   4.368   6.501 -0.1909 -0.7358 -0.1428
    72IDQ   C5911867   0.486   5.446   6.792  0.4303 -0.9836  1.7755
    72IDQ   C6011868   0.549   5.541   6.905  1.1011 -0.5758  0.1690
    72IDQ   C6111869   0.531   5.472   7.043 -2.2889 -1.7151  1.2823
    72IDQ   C6211870   0.663   5.462   7.112 -0.7515  0.1066 -0.1375
    72IDQ   C6311871   0.749   5.336   7.153  0.2772  0.8712  0.4799
    72IDQ   C6411872   0.792   5.272   7.022  1.5964 -0.0099  0.8946
    72IDQ   C6511873   0.706   5.151   6.974 -0.1690 -0.7092 -0.7630
    72IDQ   C6611874   0.040   5.415   6.809  0.0644  1.9324 -0.9758
    72IDQ   C6711875  -0.094   5.328   6.810 -0.5670  0.3468  0.2603
    72IDQ   C6811876  -0.061   5.185   6.808 -0.3345  0.5614 -0.4917
    72IDQ   C6911877  -0.160   5.072   6.799  0.8113  0.1230  0.4486
    72IDQ   C7011878  -0.316   5.110   6.816  0.0011  0.0999 -1.0987
    72IDQ   C7111879  -0.383   4.980   6.786  0.2135  0.3049 -1.4295
    72IDQ   C7211880  -0.521   4.967   6.856 -0.3371 -0.9260 -0.4094
    11RH     C111881   5.779   0.556   0.478 -0.5474 -0.6209 -0.2343
    11RH     C211882   5.914   0.496   0.459 -0.3688 -0.2556 -0.1204
    11RH     N111883   5.689   0.464   0.537 -0.3466 -0.8634 -0.3067
    11RH     S111884   5.914   0.323   0.521  0.0515 -0.2548 -0.1160
    11RH     C311885   5.736   0.338   0.568 -0.0293 -0.7370 -0.2648
    11RH     C411886   5.538   0.499   0.549  0.0428  0.5117  0.5181
    11RH     S211887   5.650   0.211   0.638  0.2577 -0.9685 -0.3330
    11RH     O111888   5.746   0.671   0.447 -0.8366 -0.7100 -0.2645
    11RH     C511889   6.017   0.562   0.406 -0.5021  0.0240 -0.0359
    21BTZ    C611890   6.153   0.535   0.374 -0.0076 -0.1810 -0.4281
    21BTZ    C711891   6.209   0.410   0.384  0.0041 -0.1915 -0.6164
    21BTZ    C811892   6.239   0.647   0.348 -0.0167 -0.1318 -0.2463
    21BTZ    C911893   6.351   0.390   0.370  0.0076 -0.1545 -0.6355
    21BTZ   C1011894   6.437   0.494   0.345 -0.0004 -0.1071 -0.4663
    21BTZ   C1111895   6.383   0.626   0.334 -0.0131 -0.0942 -0.2658
    21BTZ    N211896   6.196   0.773   0.336 -0.0286 -0.1171 -0.0546
    21BTZ    N311897   6.456   0.735   0.310 -0.0219 -0.0493 -0.0896
    21BTZ    S311898   6.341   0.872   0.305 -0.0359 -0.0533  0.1127
    31IDT   C1211899   6.578   0.472   0.348 -0.7799 -0.1483  0.3393
    31IDT   C1311900   6.662   0.496   0.453 -1.3404 -0.6911  0.9203
    31IDT   C1411901   6.777   0.412   0.453 -1.1101 -0.3785  0.8364
    31IDT   C1511902   6.782   0.323   0.348 -0.3744  0.4027  0.1926
    31IDT    S411903   6.639   0.339   0.240  0.0878  0.8068 -0.3625
    4IDB    C1611904   6.896   0.241   0.373  0.1165 -0.4877  0.4104
    4IDB    C1711905   6.966   0.288   0.488  0.6192  0.0836 -0.1227
    51IDQ   C1811906   6.905   0.415   0.533  0.5899  1.2937  1.2844
    4IDB    C1911907   7.089   0.234   0.524  0.5825 -0.0281 -0.1650
    51IDQ   C2011908   6.872   0.397   0.687  1.2352 -0.3004 -0.1474
    51IDQ   C2111909   6.994   0.535   0.492 -0.1747 -0.6075 -0.8529
    51IDQ   C2211910   7.064   0.630   0.591  0.3422 -0.3169  1.4452
    51IDQ   C2311911   6.741   0.328   0.728 -0.1088  0.5244  0.2163
    51IDQ   C2411912   7.188   0.562   0.665  0.6384 -1.0968 -1.2259
    51IDQ   C2511913   7.296   0.536   0.566 -0.2365 -0.4628 -1.0743
    51IDQ   C2611914   7.422   0.596   0.635  0.6620 -0.0692  0.8556
    51IDQ   C2711915   7.525   0.515   0.717  0.0413 -0.5398  0.0979
    51IDQ   C2811916   7.482   0.423   0.829 -0.3189  0.7454  0.7116
    51IDQ   C2911917   7.468   0.487   0.957 -0.4043 -0.8979 -1.0182
    51IDQ   C3011918   6.742   0.190   0.816  1.0806  0.7324  1.1610
    51IDQ   C3111919   6.775   0.076   0.719  0.0912  0.7130 -0.1535
    51IDQ   C3211920   6.711  -0.060   0.764 -0.0287 -0.5368  1.2156
    51IDQ   C3311921   6.779  -0.128   0.879 -0.2412  0.1137  0.4878
    51IDQ   C3411922   6.697  -0.240   0.953 -1.2139  0.0616  0.7869
    51IDQ   C3511923   6.797  -0.291   1.054 -0.8366  0.3588 -0.3700
    4IDB    C3611924   6.949   0.139   0.292 -0.4280 -1.1784  0.9073
    4IDB    C3711925   7.075   0.086   0.330 -0.4570 -1.2826  0.8558
    11RH    C3811926   5.442   0.446   0.437  0.1071 -0.6876 -0.1988
    4IDB    C3911927   7.143   0.133   0.443  0.0377 -0.7188  0.3318
    62IDT   C4011928   7.280   0.093   0.445 -0.1686 -0.2300  0.2303
    72IDQ   C4111929   7.173  -0.031   0.271  0.5235 -1.8626 -1.6589
    62IDT   C4211930   7.310   0.004   0.345  0.2285  0.2224 -0.0582
    72IDQ   C4311931   7.185  -0.022   0.108 -0.3501 -0.0964 -0.8392
    72IDQ   C4411932   7.127  -0.179   0.321 -0.0746 -0.5559 -0.4172
    62IDT    S511933   7.418   0.117   0.558 -0.4538 -0.3823  0.6144
    62IDT   C4511934   7.513  -0.002   0.458  0.0009  0.2025  0.3519
    62IDT   C4611935   7.442  -0.050   0.352  0.3249  0.4675  0.0101
    82BTZ   C4711936   7.655  -0.009   0.473 -0.1071  0.5692 -0.2172
    82BTZ   C4811937   7.712   0.081   0.559  0.0320  0.3471 -0.0752
    82BTZ   C4911938   7.854   0.081   0.587  0.0048 -0.0279  0.0638
    82BTZ   C5011939   7.938  -0.010   0.528 -0.1614 -0.1803  0.0605
    82BTZ   C5111940   7.739  -0.106   0.410 -0.2837  0.4220 -0.2267
    82BTZ   C5211941   7.883  -0.107   0.437 -0.3113  0.0408 -0.0854
    92RH    C5311942   8.081   0.001   0.549  0.0951  0.7259  0.0952
    82BTZ    N411943   7.695  -0.199   0.324 -0.4296  0.6113 -0.3582
    82BTZ    N511944   7.955  -0.200   0.374 -0.4795 -0.0765 -0.1035
    82BTZ    S611945   7.839  -0.293   0.275 -0.6124  0.3033 -0.3060
    92RH    C5411946   8.156   0.096   0.605  0.2254  0.5338  0.2443
    92RH     S711947   8.100   0.228   0.719  0.3965  0.4662  0.4071
    92RH    C5511948   8.302   0.109   0.581  0.2515  0.3417  0.3017
    92RH     O211949   8.370   0.035   0.509  0.1578  0.3350  0.2205
    92RH     N611950   8.357   0.218   0.653  0.3989  0.1623  0.4637
    92RH    C5611951   8.272   0.294   0.731  0.4941  0.1874  0.5431
    92RH    C5711952   8.504   0.214   0.651  0.3077  0.8397  0.3427
    92RH    C5811953   8.566   0.160   0.772  1.1521 -0.4300  0.1348
    92RH     S811954   8.312   0.428   0.825  0.6738  0.0005  0.7349
    72IDQ   C5911955   7.149  -0.227   0.468  0.9097  0.5491  0.7364
    72IDQ   C6011956   7.099  -0.380   0.475 -0.2769  0.4258  0.9206
    72IDQ   C6111957   7.225  -0.453   0.444  0.6144  1.1623 -0.0325
    72IDQ   C6211958   7.226  -0.509   0.302 -0.0684 -0.0047 -0.5502
    72IDQ   C6311959   7.344  -0.603   0.267  0.7751 -0.1767 -0.1922
    72IDQ   C6411960   7.381  -0.739   0.349  0.6144 -0.6335 -0.4067
    72IDQ   C6511961   7.295  -0.855   0.303  0.7634 -0.8759  0.8424
    72IDQ   C6611962   7.256  -0.137   0.040  0.4247 -0.6715 -1.0528
    72IDQ   C6711963   7.414  -0.135   0.032  0.6742 -0.1945 -1.1897
    72IDQ   C6811964   7.472  -0.267  -0.017  0.6363 -1.0649 -0.2550
    72IDQ   C6911965   7.623  -0.298  -0.002  0.3994  0.3528 -0.1240
    72IDQ   C7011966   7.654  -0.437  -0.074  0.3600 -0.8051 -0.7016
    72IDQ   C7111967   7.719  -0.415  -0.207  0.4199  1.1843 -0.4058
    72IDQ   C7211968   7.648  -0.514  -0.305  1.3627 -1.1916  0.2308
    11RH     C111969   5.376   0.920   0.331 -0.1829  0.5940  0.0728
    11RH     C211970   5.402   0.943   0.475  0.1228  0.1138  0.0957
    11RH     N111971   5.436   1.019   0.250 -0.0970  0.6905  0.2561
    11RH     S111972   5.505   1.093   0.495  0.5028 -0.1794  0.3567
    11RH     C311973   5.508   1.118   0.312  0.2394  0.3465  0.4230
    11RH     C411974   5.440   0.977   0.112 -0.8389 -0.0834  1.3042
    11RH     S211975   5.589   1.247   0.240  0.4077  0.3720  0.6574
    11RH     O111976   5.309   0.826   0.284 -0.4792  0.8820 -0.0853
    11RH     C511977   5.356   0.863   0.572  0.1123 -0.0652 -0.0552
    21BTZ    C611978   5.358   0.868   0.726  0.1938  0.1939  0.4323
    21BTZ    C711979   5.404   0.969   0.807  0.2446  0.0735  0.5557
    21BTZ    C811980   5.316   0.745   0.788  0.1843  0.1204  0.2787
    21BTZ    C911981   5.410   0.955   0.950  0.2885 -0.1238  0.5344
    21BTZ   C1011982   5.371   0.840   1.013  0.2812 -0.2005  0.3899
    21BTZ   C1111983   5.323   0.731   0.933  0.2289 -0.0802  0.2572
    21BTZ    N211984   5.270   0.640   0.720  0.1366  0.2234  0.1495
    21BTZ    N311985   5.282   0.614   0.983  0.2170 -0.1383  0.1107
    21BTZ    S311986   5.232   0.515   0.843  0.1468  0.0652 -0.0083
    31IDT   C1211987   5.370   0.847   1.158  0.1187 -0.0293 -0.6417
    31IDT   C1311988   5.292   0.770   1.241 -0.1085 -0.0960 -0.9161
    31IDT   C1411989   5.295   0.815   1.377 -0.3662 -0.2926 -0.8460
    31IDT   C1511990   5.374   0.925   1.398 -0.3377 -0.3768 -0.5188
    31IDT    S411991   5.453   0.982   1.247  0.0221 -0.2122 -0.2714
    4IDB    C1611992   5.362   0.991   1.526  0.2795  0.2071 -0.1650
    4IDB    C1711993   5.267   0.916   1.602  0.5732 -0.1788 -0.1743
    51IDQ   C1811994   5.224   0.787   1.518  1.5435  0.4858  0.0702
    4IDB    C1911995   5.223   0.962   1.726  0.3354 -0.3305 -0.2026
    51IDQ   C2011996   5.258   0.660   1.599 -0.6924 -0.0274  0.1216
    51IDQ   C2111997   5.073   0.795   1.493  1.2482 -0.8116 -0.8775
    51IDQ   C2211998   4.985   0.684   1.438  0.6931  1.9383 -0.5163
    51IDQ   C2311999   5.365   0.559   1.564  0.4258  0.0503  0.2715
    51IDQ   C2412000   4.833   0.702   1.397  1.7001 -0.5618 -0.3101
    51IDQ   C2512001   4.754   0.579   1.360  0.0997  0.2236  0.7066
    51IDQ   C2612002   4.789   0.569   1.214 -0.3253  0.2068 -0.0637
    51IDQ   C2712003   4.906   0.486   1.136 -0.6592  0.5366  0.0812
    51IDQ   C2812004   4.951   0.368   1.204  0.5950 -2.1056 -0.1042
    51IDQ   C2912005   5.092   0.376   1.254  0.7465 -0.7524 -0.4163
    51IDQ   C3012006   5.497   0.598   1.624  0.5217 -0.0712  0.5208
    51IDQ   C3112007   5.605   0.495   1.636 -0.5461 -1.1292 -0.7964
    51IDQ   C3212008   5.588   0.366   1.722  0.5634  1.8533  0.4386
    51IDQ   C3312009   5.716   0.328   1.792  0.8918 -0.1607  0.4204
    51IDQ   C3412010   5.719   0.310   1.946  1.0572  0.1664  0.5612
    51IDQ   C3512011   5.661   0.431   2.032  0.0079  0.6354  0.9687
    4IDB    C3612012   5.414   1.112   1.574 -0.2568  0.4448 -0.1844
    4IDB    C3712013   5.367   1.157   1.700 -0.4928  0.2848 -0.2131
    11RH    C3812014   5.555   0.884   0.086 -0.4728 -0.2302  0.6641
    4IDB    C3912015   5.274   1.083   1.773 -0.2005 -0.0928 -0.2219
    62IDT   C4012016   5.228   1.162   1.886 -0.9771 -0.2834 -0.4345
    72IDQ   C4112017   5.398   1.289   1.764  1.1198  0.4035 -1.5652
    62IDT   C4212018   5.294   1.283   1.878 -0.6588 -0.4434 -0.2777
    72IDQ   C4312019   5.394   1.416   1.669 -0.5269  0.4029 -0.5045
    72IDQ   C4412020   5.537   1.271   1.848 -0.2772  0.4565  0.3291
    62IDT    S512021   5.132   1.147   2.037 -0.5817 -0.4411 -0.1974
    62IDT   C4512022   5.188   1.314   2.084  0.0222 -0.7290  0.1168
    62IDT   C4612023   5.271   1.369   1.990 -0.0937 -0.6955  0.0342
    82BTZ   C4712024   5.145   1.360   2.219  0.1467 -0.2354  0.8733
    82BTZ   C4812025   5.025   1.317   2.270  0.2675 -0.3360  1.0750
    82BTZ   C4912026   4.969   1.375   2.389  0.2944 -0.2038  1.0238
    82BTZ   C5012027   5.032   1.475   2.458  0.2006  0.0287  0.7711
    82BTZ   C5112028   5.215   1.464   2.287  0.0453  0.0076  0.6053
    82BTZ   C5212029   5.158   1.523   2.408  0.0730  0.1419  0.5533
    92RH    C5312030   4.973   1.534   2.584  0.0255  0.6941 -0.0900
    82BTZ    N412031   5.333   1.514   2.247 -0.0761  0.1250  0.3926
    82BTZ    N512032   5.229   1.621   2.466 -0.0262  0.3673  0.2986
    82BTZ    S612033   5.376   1.641   2.365 -0.1619  0.4185  0.1106
    92RH    C5412034   4.850   1.523   2.636  0.0176  0.4427 -0.1584
    92RH     S712035   4.717   1.409   2.581  0.0858  0.5809 -0.6167
    92RH    C5512036   4.801   1.606   2.749 -0.0494 -0.0013  0.1383
    92RH     O212037   4.867   1.693   2.809 -0.1054 -0.1900  0.4783
    92RH     N612038   4.668   1.574   2.783 -0.0425 -0.1917 -0.0128
    92RH    C5612039   4.604   1.476   2.711  0.0222  0.0454 -0.3942
    92RH    C5712040   4.621   1.657   2.898  0.3390 -0.1137  0.7406
    92RH    C5812041   4.528   1.772   2.855  0.1773  0.3857 -1.3513
    92RH     S812042   4.446   1.419   2.731  0.0439 -0.1051 -0.6429
    72IDQ   C5912043   5.670   1.221   1.808 -0.2008  1.2031  0.6798
    72IDQ   C6012044   5.785   1.297   1.843 -1.7426  0.0737 -0.1474
    72IDQ   C6112045   5.806   1.446   1.806  0.1217 -1.2417 -0.0584
    72IDQ   C6212046   5.954   1.472   1.815 -1.4783 -0.2407 -0.8499
    72IDQ   C6312047   6.077   1.400   1.754 -0.8485 -1.1028 -0.0642
    72IDQ   C6412048   6.208   1.468   1.771 -1.0141  0.6752 -1.2105
    72IDQ   C6512049   6.324   1.397   1.718  0.6810 -0.3306 -1.1774
    72IDQ   C6612050   5.516   1.442   1.579 -0.1209 -1.9651 -0.5267
    72IDQ   C6712051   5.514   1.572   1.503  0.6695 -0.2280  0.6031
    72IDQ   C6812052   5.401   1.619   1.397 -1.7006 -1.0082  0.5793
    72IDQ   C6912053   5.454   1.740   1.322  0.3257 -0.3483  0.3180
    72IDQ   C7012054   5.384   1.806   1.194 -0.2395  0.5187  0.8052
    72IDQ   C7112055   5.226   1.787   1.201  0.5876 -0.4089 -0.3926
    72IDQ   C7212056   5.136   1.852   1.097 -0.8063 -1.3534  1.0055
    11RH     C112057   1.107   5.000   6.698  0.7885  0.3138  0.4027
    11RH     C212058   1.057   4.869   6.745  0.5348  0.3576  0.2520
    11RH     N112059   1.233   4.988   6.635  0.5162  0.0644 -0.0971
    11RH     S112060   1.178   4.737   6.703 -0.0451  0.0679 -0.5368
    11RH     C312061   1.289   4.862   6.626  0.0755 -0.0968 -0.6297
    11RH     C412062   1.288   5.103   6.563  0.8019 -0.1338 -0.8192
    11RH     S212063   1.437   4.820   6.556 -0.3166 -0.4008 -1.2865
    11RH     O112064   1.049   5.109   6.712  1.1892  0.4725  0.9005
    11RH     C512065   0.940   4.853   6.808  0.7145  0.5779  0.6455
    21BTZ    C612066   0.867   4.738   6.868 -0.2308  0.0174  0.9377
    21BTZ    C712067   0.923   4.615   6.891 -0.3013 -0.0522  0.7379
    21BTZ    C812068   0.724   4.749   6.862 -0.2149  0.0284  0.5167
    21BTZ    C912069   0.841   4.498   6.910 -0.3593 -0.1142  0.1187
    21BTZ   C1012070   0.705   4.503   6.905 -0.3468 -0.1065 -0.3002
    21BTZ   C1112071   0.642   4.630   6.882 -0.2739 -0.0346 -0.1130
    21BTZ    N212072   0.659   4.864   6.841 -0.1486  0.0935  0.6568
    21BTZ    N312073   0.509   4.648   6.875 -0.2549 -0.0200 -0.4787
    21BTZ    S312074   0.485   4.822   6.844 -0.1588  0.0769 -0.0240
    31IDT   C1212075   0.631   4.370   6.892 -0.1850  0.5047  0.0584
    31IDT   C1312076   0.516   4.330   6.956 -0.3461  0.6628 -0.1271
    31IDT   C1412077   0.489   4.191   6.938 -0.2691  0.6051  0.1915
    31IDT   C1512078   0.581   4.124   6.860 -0.0494  0.4032  0.6205
    31IDT    S412079   0.712   4.234   6.803  0.0782  0.2692  0.6548
    4IDB    C1612080   0.545   3.990   6.838 -0.4437  0.1188  0.0103
    4IDB    C1712081   0.417   3.974   6.901 -0.4302 -0.3203 -0.0734
    51IDQ   C1812082   0.381   4.090   6.990 -0.0102  0.1818 -0.5073
    4IDB    C1912083   0.343   3.858   6.882  0.0795 -0.6744  0.0548
    51IDQ   C2012084   0.241   4.149   6.967  1.3978 -0.0711 -0.5503
    51IDQ   C2112085   0.420   4.074   7.152 -0.7183 -0.2603  0.1683
    51IDQ   C2212086   0.307   4.034   7.246 -0.9921 -0.5604  0.1001
    51IDQ   C2312087   0.191   4.281   6.903  0.5344 -0.6194  0.0873
    51IDQ   C2412088   0.310   4.058   7.399 -0.2200 -0.7548  0.1285
    51IDQ   C2512089   0.324   4.215   7.404  0.3179 -0.6219  0.0185
    51IDQ   C2612090   0.289   4.290   7.533 -0.9803 -0.9627 -0.5750
    51IDQ   C2712091   0.389   4.249   7.645 -0.6165 -0.4998  0.7251
    51IDQ   C2812092   0.311   4.230   7.778 -0.6629 -0.1587  1.4707
    51IDQ   C2912093   0.206   4.117   7.804  0.5713 -0.5381 -0.4726
    51IDQ   C3012094   0.241   4.331   6.759 -0.6773 -0.6710 -0.2892
    51IDQ   C3112095   0.146   4.292   6.650 -0.5910  0.7155  0.3410
    51IDQ   C3212096   0.181   4.146   6.592  0.0915 -1.6748  0.3110
    51IDQ   C3312097   0.316   4.113   6.568 -0.2059  0.6322 -0.6045
    51IDQ   C3412098   0.387   4.131   6.433 -0.2663  0.5735  0.6196
    51IDQ   C3512099   0.307   4.094   6.300  1.2828  0.3351 -0.0603
    4IDB    C3612100   0.598   3.890   6.756  0.0559  0.2066  0.2241
    4IDB    C3712101   0.520   3.773   6.737  0.5729 -0.1597  0.3524
    11RH    C3812102   1.309   5.078   6.418  0.7871 -0.3497 -0.2169
    4IDB    C3912103   0.396   3.758   6.799  0.5791 -0.5866  0.2683
    62IDT   C4012104   0.344   3.630   6.756  0.2886 -0.5869  0.2666
    72IDQ   C4112105   0.562   3.648   6.659 -0.7582 -0.6751  0.9712
    62IDT   C4212106   0.432   3.564   6.674 -0.1787 -0.7104 -0.1383
    72IDQ   C4312107   0.707   3.582   6.693 -0.3379 -0.1927 -0.1146
    72IDQ   C4412108   0.556   3.694   6.505  0.9264 -0.2223  0.4661
    62IDT    S512109   0.207   3.526   6.807 -0.0306 -0.1739  0.2663
    62IDT   C4512110   0.280   3.390   6.710 -0.8174 -0.1908 -0.3098
    62IDT   C4612111   0.396   3.428   6.648 -0.8046 -0.4866 -0.4652
    82BTZ   C4712112   0.212   3.260   6.699  0.1964 -0.0257 -0.0670
    82BTZ   C4812113   0.098   3.250   6.775  0.0819 -0.0495 -0.2422
    82BTZ   C4912114   0.045   3.122   6.814  0.0439 -0.0608 -0.3290
    82BTZ   C5012115   0.106   3.005   6.779  0.1205 -0.0482 -0.2400
    82BTZ   C5112116   0.279   3.140   6.659  0.2798 -0.0118  0.0319
    82BTZ   C5212117   0.225   3.010   6.700  0.2412 -0.0232 -0.0563
    92RH    C5312118   0.035   2.878   6.798 -0.1668  0.3181  0.5303
    82BTZ    N412119   0.391   3.137   6.586  0.3936  0.0116  0.2036
    82BTZ    N512120   0.293   2.903   6.659  0.3240 -0.0092  0.0443
    82BTZ    S612121   0.432   2.965   6.565  0.4575  0.0199  0.2608
    92RH    C5412122  -0.085   2.837   6.843 -0.1559  0.0778  0.3381
    92RH     S712123  -0.201   2.930   6.950 -0.5534 -0.1252  0.0867
    92RH    C5512124  -0.142   2.704   6.811  0.1924 -0.0647  0.2987
    92RH     O212125  -0.088   2.616   6.741  0.5093  0.0193  0.4365
    92RH     N612126  -0.269   2.686   6.872  0.1220 -0.3140  0.0816
    92RH    C5612127  -0.320   2.789   6.947 -0.2401 -0.3886 -0.0577
    92RH    C5712128  -0.339   2.546   6.840 -1.3653 -1.3327  0.0163
    92RH    C5812129  -0.399   2.522   6.700 -0.4607 -0.7136 -0.2119
    92RH     S812130  -0.467   2.794   7.029 -0.3977 -0.6729 -0.3228
    72IDQ   C5912131   0.669   3.770   6.440  1.0251 -1.3119  0.9948
    72IDQ   C6012132   0.730   3.743   6.299 -0.5943 -0.0577  0.7979
    72IDQ   C6112133   0.621   3.727   6.192 -0.5099 -0.8474  0.7646
    72IDQ   C6212134   0.674   3.780   6.049 -0.2501  0.4853 -0.0147
    72IDQ   C6312135   0.571   3.768   5.922 -0.9737  0.1490 -0.2620
    72IDQ   C6412136   0.416   3.779   5.952 -0.3481  0.3273  0.3482
    72IDQ   C6512137   0.314   3.821   5.846 -0.1590 -0.6658  0.4452
    72IDQ   C6612138   0.739   3.435   6.687 -0.9067  0.5902 -0.9178
    72IDQ   C6712139   0.801   3.365   6.568  1.2421 -1.1161  0.8574
    72IDQ   C6812140   0.712   3.377   6.442 -0.4455 -1.5862  1.3771
    72IDQ   C6912141   0.636   3.264   6.372 -0.4531 -0.1504 -0.4179
    72IDQ   C7012142   0.522   3.336   6.303 -0.4773  0.3970 -1.7349
    72IDQ   C7112143   0.432   3.283   6.206  0.3611 -0.0223  0.7552
    72IDQ   C7212144   0.294   3.358   6.221 -1.5163  0.4879  0.7845
    11RH     C112145   0.218   3.292   3.322 -0.1255  0.3314 -0.7023
    11RH     C212146   0.172   3.279   3.182 -0.4471  0.3613 -0.6007
    11RH     N112147   0.121   3.356   3.403  0.0155  0.2220 -0.4436
    11RH     S112148   0.004   3.351   3.165 -0.5431  0.2437 -0.1716
    11RH     C312149   0.003   3.395   3.344 -0.1538  0.1606 -0.1475
    11RH     C412150   0.148   3.379   3.543 -0.3083 -0.0207  0.1931
    11RH     S212151  -0.128   3.472   3.417 -0.0405  0.0293  0.1971
    11RH     O112152   0.327   3.253   3.367  0.0087  0.3929 -0.9778
    11RH     C512153   0.245   3.222   3.085 -0.6319  0.4600 -0.7995
    21BTZ    C612154   0.222   3.151   2.951  0.4041  0.0915  0.3865
    21BTZ    C712155   0.094   3.113   2.922  0.3012  0.1856  0.7141
    21BTZ    C812156   0.321   3.144   2.847  0.2112 -0.3054  0.2291
    21BTZ    C912157   0.057   3.065   2.791  0.0056 -0.1034  0.9025
    21BTZ   C1012158   0.148   3.056   2.689 -0.1866 -0.4861  0.7631
    21BTZ   C1112159   0.283   3.095   2.714 -0.0893 -0.5991  0.4206
    21BTZ    N212160   0.449   3.179   2.863  0.2859 -0.4327 -0.0885
    21BTZ    N312161   0.381   3.091   2.623 -0.2560 -0.9626  0.2570
    21BTZ    S312162   0.528   3.150   2.705 -0.0313 -0.9443 -0.1572
    31IDT   C1212163   0.106   3.032   2.535 -0.5294 -0.3893  0.3709
    31IDT   C1312164   0.000   2.950   2.508 -0.1049 -0.9109  0.2706
    31IDT   C1412165  -0.039   2.953   2.371  0.1669 -1.2931  0.1839
    31IDT   C1512166   0.037   3.037   2.292 -0.0481 -1.0659  0.2176
    31IDT    S412167   0.165   3.120   2.387 -0.6166 -0.3439  0.3630
    4IDB    C1612168  -0.006   3.013   2.156  0.4250  0.1057  0.2772
    4IDB    C1712169  -0.113   2.919   2.151  0.3331  0.1979  0.4910
    51IDQ   C1812170  -0.142   2.877   2.297 -0.4275 -1.0553 -0.7663
    4IDB    C1912171  -0.183   2.897   2.033  0.2342  0.0849  0.5706
    51IDQ   C2012172  -0.293   2.933   2.320  0.6613  0.2259 -1.3700
    51IDQ   C2112173  -0.154   2.729   2.320  1.7021  0.6929 -0.9804
    51IDQ   C2212174  -0.071   2.597   2.276  0.8086  0.7766 -0.2728
    51IDQ   C2312175  -0.422   2.873   2.255  0.7578  0.3442  1.4597
    51IDQ   C2412176   0.057   2.612   2.362 -0.5749  0.0240 -1.0489
    51IDQ   C2512177   0.151   2.502   2.368 -0.3624  0.1802 -0.6802
    51IDQ   C2612178   0.263   2.486   2.468 -0.3665 -0.0985 -0.0776
    51IDQ   C2712179   0.283   2.600   2.567  1.2606  0.3490  0.6893
    51IDQ   C2812180   0.373   2.720   2.535 -0.9758  1.0831 -1.2289
    51IDQ   C2912181   0.519   2.707   2.495  0.2636 -0.2716 -0.3957
    51IDQ   C3012182  -0.542   2.938   2.315 -0.1137  0.6449  1.2793
    51IDQ   C3112183  -0.635   2.929   2.198 -0.3980 -0.0805  1.7144
    51IDQ   C3212184  -0.751   3.022   2.216  0.3598 -1.5776 -0.0233
    51IDQ   C3312185  -0.834   3.051   2.095 -0.0992  0.3252 -1.3744
    51IDQ   C3412186  -0.895   2.916   2.034  0.9144 -1.1230 -0.6189
    51IDQ   C3512187  -0.967   2.831   2.136  0.1569 -0.6559 -0.1448
    4IDB    C3612188   0.032   3.086   2.043  0.4185 -0.1017  0.1413
    4IDB    C3712189  -0.041   3.062   1.923  0.3166 -0.2147  0.2254
    11RH    C3812190   0.098   3.273   3.642 -1.4233 -0.6385 -0.2115
    4IDB    C3912191  -0.145   2.970   1.920  0.2276 -0.1224  0.4347
    62IDT   C4012192  -0.199   2.968   1.789 -0.3413  0.3210 -0.2850
    72IDQ   C4112193  -0.014   3.119   1.783 -1.2845  0.5313  0.7392
    62IDT   C4212194  -0.121   3.050   1.710 -0.5426  0.5721 -0.2258
    72IDQ   C4312195   0.116   3.052   1.722  0.1487  0.4061  0.0875
    72IDQ   C4412196   0.009   3.274   1.753  0.9632  0.9780  1.1578
    62IDT    S512197  -0.329   2.888   1.694  0.0767 -0.2152 -0.4134
    62IDT   C4512198  -0.268   2.974   1.546 -0.0494 -0.0645 -0.3785
    62IDT   C4612199  -0.160   3.053   1.572 -0.3781  0.3545 -0.2785
    82BTZ   C4712200  -0.327   2.947   1.412  0.6324 -0.2393 -0.0956
    82BTZ   C4812201  -0.341   2.813   1.384  0.6514 -0.2617 -0.0011
    82BTZ   C4912202  -0.423   2.768   1.274  0.3786 -0.3666  0.2455
    82BTZ   C5012203  -0.491   2.856   1.193  0.0868 -0.4491  0.3973
    82BTZ   C5112204  -0.395   3.042   1.331  0.3321 -0.3228  0.0563
    82BTZ   C5212205  -0.478   2.996   1.219  0.0548 -0.4296  0.3069
    92RH    C5312206  -0.550   2.809   1.066 -0.5148 -0.0992  0.2947
    82BTZ    N412207  -0.389   3.175   1.348  0.2837 -0.3108 -0.0150
    82BTZ    N512208  -0.539   3.091   1.148 -0.2167 -0.5033  0.4371
    82BTZ    S612209  -0.491   3.247   1.221 -0.1273 -0.4381  0.2408
    92RH    C5412210  -0.522   2.715   0.975 -0.0942  0.1121  0.2008
    92RH     S712211  -0.378   2.601   0.975  0.1343  0.4002  0.3736
    92RH    C5512212  -0.608   2.688   0.857  0.2625  0.1446 -0.0671
    92RH     O212213  -0.713   2.747   0.829  0.2153 -0.0157 -0.2332
    92RH     N612214  -0.555   2.583   0.778  0.6735  0.3854 -0.1140
    92RH    C5612215  -0.438   2.523   0.819  0.6900  0.5498  0.0837
    92RH    C5712216  -0.625   2.529   0.658  1.0018  0.0484 -1.0247
    92RH    C5812217  -0.604   2.629   0.535 -0.0184 -0.0707  0.0237
    92RH     S812218  -0.355   2.398   0.743  1.1344  0.8456  0.0781
    72IDQ   C5912219   0.114   3.320   1.854 -1.1357 -0.6210 -0.0271
    72IDQ   C6012220   0.234   3.378   1.780 -1.3960 -0.3498  0.1029
    72IDQ   C6112221   0.272   3.521   1.811  0.0052 -0.2226 -1.1068
    72IDQ   C6212222   0.213   3.631   1.710 -0.1620  0.4514  0.2100
    72IDQ   C6312223   0.163   3.759   1.772  0.5745 -1.1129  0.1663
    72IDQ   C6412224   0.279   3.853   1.813  0.5651 -0.8848  0.8571
    72IDQ   C6512225   0.294   3.976   1.731  0.1294  0.8597  0.6763
    72IDQ   C6612226   0.216   2.962   1.785 -0.1696 -0.5555 -0.2750
    72IDQ   C6712227   0.296   2.859   1.709 -0.9080 -0.9046 -0.0268
    72IDQ   C6812228   0.430   2.933   1.664  0.1541  0.3659  0.1301
    72IDQ   C6912229   0.432   3.043   1.554 -1.1853  0.2389  0.2327
    72IDQ   C7012230   0.337   3.077   1.440  0.1836  0.8177 -1.1323
    72IDQ   C7112231   0.276   2.980   1.336  0.1543  0.2099  0.0828
    72IDQ   C7212232   0.301   2.834   1.353 -0.1244 -0.9243 -0.3991
    11RH     C112233   6.700   3.248   5.747  0.3490 -0.3983 -0.1066
    11RH     C212234   6.732   3.253   5.602  0.2780 -0.1622 -0.1142
    11RH     N112235   6.811   3.286   5.826  0.2907 -0.2255 -0.1093
    11RH     S112236   6.906   3.308   5.579  0.1392  0.2713 -0.1247
    11RH     C312237   6.927   3.322   5.762  0.1819  0.1202 -0.1185
    11RH     C412238   6.785   3.307   5.973  0.6203  0.4156  1.0661
    11RH     S212239   7.072   3.371   5.832  0.0944  0.3839 -0.1235
    11RH     O112240   6.591   3.214   5.795  0.4473 -0.7092 -0.0987
    11RH     C512241   6.645   3.221   5.506  0.3130 -0.2612 -0.1134
    21BTZ    C612242   6.661   3.220   5.368 -0.0471 -0.3619 -0.1807
    21BTZ    C712243   6.768   3.236   5.284  0.0558 -0.4429 -0.0660
    21BTZ    C812244   6.530   3.207   5.311  0.0000 -0.2308 -0.3197
    21BTZ    C912245   6.752   3.241   5.140  0.2091 -0.3992 -0.0825
    21BTZ   C1012246   6.628   3.230   5.082  0.2595 -0.2749 -0.2131
    21BTZ   C1112247   6.514   3.212   5.166  0.1559 -0.1864 -0.3362
    21BTZ    N212248   6.419   3.191   5.383 -0.0896 -0.1428 -0.4389
    21BTZ    N312249   6.388   3.200   5.120  0.1917 -0.0629 -0.4690
    21BTZ    S312250   6.285   3.181   5.265  0.0241  0.0033 -0.5805
    31IDT   C1212251   6.632   3.196   4.939 -0.0913  0.1840 -0.3712
    31IDT   C1312252   6.536   3.136   4.863 -0.0517  0.2126 -0.4432
    31IDT   C1412253   6.586   3.089   4.737 -0.0341  0.4466 -0.5240
    31IDT   C1512254   6.720   3.113   4.718 -0.0597  0.5976 -0.5141
    31IDT    S412255   6.795   3.198   4.858 -0.1085  0.4536 -0.4007
    4IDB    C1612256   6.763   3.046   4.595  0.2596 -0.4597  0.4259
    4IDB    C1712257   6.649   2.997   4.524  0.4194 -0.7273  0.3552
    51IDQ   C1812258   6.529   3.026   4.605  0.0253 -1.2800 -0.3533
    4IDB    C1912259   6.664   2.933   4.401  0.6298 -0.5457  0.2862
    51IDQ   C2012260   6.432   3.099   4.502  0.7021 -0.0969 -0.7065
    51IDQ   C2112261   6.449   2.901   4.660 -0.4891  0.2474  0.2852
    51IDQ   C2212262   6.488   2.737   4.654 -0.3853 -0.5505 -0.6503
    51IDQ   C2312263   6.416   3.250   4.519 -1.3236 -0.2320  1.6912
    51IDQ   C2412264   6.539   2.663   4.779  0.3719  0.5978 -0.5027
    51IDQ   C2512265   6.510   2.516   4.784 -0.0793 -1.3613  0.4941
    51IDQ   C2612266   6.562   2.461   4.914 -0.6133  1.2398  0.8785
    51IDQ   C2712267   6.492   2.330   4.933  0.2173 -0.1465 -1.2880
    51IDQ   C2812268   6.558   2.269   5.052  0.0747  1.2621 -0.4140
    51IDQ   C2912269   6.554   2.111   5.042  0.5989 -0.0020 -1.0260
    51IDQ   C3012270   6.278   3.294   4.571 -0.1477 -0.0803  0.1179
    51IDQ   C3112271   6.171   3.302   4.466 -0.8047  0.9116  0.3252
    51IDQ   C3212272   6.036   3.343   4.523  0.4225  0.4861 -0.4929
    51IDQ   C3312273   5.919   3.248   4.519 -1.6556  1.4141  0.4094
    51IDQ   C3412274   5.785   3.319   4.535 -1.6092 -0.8281  0.0043
    51IDQ   C3512275   5.723   3.378   4.411  1.2594 -0.3262 -0.4219
    4IDB    C3612276   6.892   3.032   4.544  0.3102 -0.0062  0.4280
    4IDB    C3712277   6.905   2.967   4.418  0.5262  0.1734  0.3572
    11RH    C3812278   6.715   3.426   6.018  0.8454  0.1319 -0.8923
    4IDB    C3912279   6.793   2.920   4.349  0.6803 -0.0922  0.2883
    62IDT   C4012280   6.835   2.872   4.225  0.1097 -1.1723 -0.1871
    72IDQ   C4112281   7.027   2.959   4.326  0.2068 -0.4668 -0.2216
    62IDT   C4212282   6.970   2.895   4.210  0.1438 -1.2246  0.0334
    72IDQ   C4312283   7.144   2.863   4.380 -1.2778 -0.9133 -0.3951
    72IDQ   C4412284   7.101   3.102   4.300 -0.2792  0.7890  1.0474
    62IDT    S512285   6.761   2.805   4.075  0.1268 -0.2192 -0.6306
    62IDT   C4512286   6.925   2.813   3.997  0.1819  0.0726 -0.4876
    62IDT   C4612287   7.021   2.862   4.081  0.1845 -0.5209 -0.1364
    82BTZ   C4712288   6.942   2.742   3.880  0.8741 -0.4611  0.0380
    82BTZ   C4812289   6.998   2.806   3.773  1.0259 -0.5623  0.0567
    82BTZ   C4912290   7.026   2.737   3.649  0.7200 -0.5547 -0.0163
    82BTZ   C5012291   6.997   2.604   3.632  0.2629 -0.4460 -0.1081
    82BTZ   C5112292   6.910   2.602   3.867  0.3982 -0.3452 -0.0570
    82BTZ   C5212293   6.938   2.533   3.742  0.0873 -0.3374 -0.1314
    92RH    C5312294   7.021   2.532   3.509  0.1193 -0.0029 -0.1945
    82BTZ    N412295   6.855   2.529   3.965  0.2093 -0.2403 -0.0839
    82BTZ    N512296   6.905   2.403   3.738 -0.3514 -0.2261 -0.2180
    82BTZ    S612297   6.836   2.364   3.898 -0.3860 -0.1246 -0.2083
    92RH    C5412298   7.060   2.573   3.388  0.1976 -0.1200 -0.2093
    92RH     S712299   7.128   2.738   3.345 -0.1943 -0.0083 -0.4059
    92RH    C5512300   7.053   2.488   3.267  0.6306 -0.3663 -0.0632
    92RH     O212301   7.011   2.371   3.262  0.9651 -0.4915  0.0871
    92RH     N612302   7.100   2.557   3.153  0.6203 -0.4455 -0.1155
    92RH    C5612303   7.144   2.687   3.168  0.2325 -0.2925 -0.2855
    92RH    C5712304   7.110   2.467   3.032 -1.0070 -0.4870 -0.4088
    92RH    C5812305   7.240   2.386   3.010 -0.6803  0.9155 -1.0689
    92RH     S812306   7.205   2.790   3.050  0.1333 -0.3427 -0.3803
    72IDQ   C5912307   7.039   3.221   4.218 -0.8203  0.7509 -1.7319
    72IDQ   C6012308   7.039   3.363   4.263 -0.3119 -0.1668  0.9605
    72IDQ   C6112309   6.904   3.401   4.330 -0.4438 -1.3407  1.7711
    72IDQ   C6212310   6.860   3.532   4.271  0.9193 -0.3452 -0.7295
    72IDQ   C6312311   6.770   3.603   4.380 -0.5533  1.7627 -0.7622
    72IDQ   C6412312   6.739   3.741   4.322 -0.5561  0.2931 -0.7489
    72IDQ   C6512313   6.627   3.767   4.214  1.5748  1.1149 -0.2206
    72IDQ   C6612314   7.203   2.882   4.528 -0.7291 -0.3289 -0.5112
    72IDQ   C6712315   7.210   2.766   4.626  0.5776 -1.6884 -0.7071
    72IDQ   C6812316   7.088   2.701   4.688  0.3966 -0.5001  0.9921
    72IDQ   C6912317   6.991   2.765   4.777 -0.4130 -1.2884 -0.4568
    72IDQ   C7012318   7.032   2.788   4.914  1.6501  0.9303 -1.0467
    72IDQ   C7112319   6.940   2.879   5.007  1.5257  0.2165  0.2957
    72IDQ   C7212320   6.808   2.801   5.058 -0.8436  1.3413  0.8267
    11RH     C112321   3.025   6.509   6.063  0.3972  0.3650 -0.2236
    11RH     C212322   3.109   6.615   6.003  0.5471  0.2086 -0.2902
    11RH     N112323   3.088   6.383   6.056  0.2825  0.2964 -0.0115
    11RH     S112324   3.266   6.542   5.942  0.5274 -0.0187 -0.0693
    11RH     C312325   3.212   6.375   5.999  0.3222  0.1040  0.1001
    11RH     C412326   3.016   6.265   6.093  0.5754 -0.2008 -0.9733
    11RH     S212327   3.308   6.238   5.979  0.2083 -0.0134  0.3531
    11RH     O112328   2.912   6.526   6.113  0.3723  0.5362 -0.3366
    11RH     C512329   3.073   6.744   5.996  0.6746  0.2352 -0.4838
    21BTZ    C612330   3.134   6.863   5.948 -0.1099  0.1396  0.1768
    21BTZ    C712331   3.256   6.847   5.888 -0.1222 -0.0815  0.2098
    21BTZ    C812332   3.090   6.996   5.980  0.0211  0.2365 -0.0434
    21BTZ    C912333   3.340   6.960   5.856 -0.0073 -0.2174  0.0296
    21BTZ   C1012334   3.302   7.088   5.885  0.1198 -0.1323 -0.1834
    21BTZ   C1112335   3.175   7.110   5.948  0.1379  0.0982 -0.2265
    21BTZ    N212336   2.973   7.024   6.038  0.0458  0.4497 -0.0958
    21BTZ    N312337   3.127   7.231   5.980  0.2567  0.2003 -0.4268
    21BTZ    S312338   2.967   7.202   6.055  0.2233  0.4836 -0.3881
    31IDT   C1212339   3.405   7.194   5.845 -0.4783  0.3287  0.0277
    31IDT   C1312340   3.398   7.330   5.864 -0.3051  0.3702 -0.1855
    31IDT   C1412341   3.507   7.401   5.806 -0.3350  0.1615 -0.4983
    31IDT   C1512342   3.598   7.320   5.742 -0.5308 -0.0401 -0.5250
    31IDT    S412343   3.553   7.146   5.750 -0.6940  0.0194 -0.1537
    4IDB    C1612344   3.704   7.393   5.681 -0.5422 -0.7352 -0.1941
    4IDB    C1712345   3.686   7.531   5.710 -0.5505 -0.6834 -0.4418
    51IDQ   C1812346   3.559   7.544   5.795 -0.3003  0.6143  1.1236
    4IDB    C1912347   3.773   7.627   5.659 -0.3193 -0.8104 -0.2893
    51IDQ   C2012348   3.567   7.587   5.942  0.0113 -0.4764  0.3611
    51IDQ   C2112349   3.431   7.613   5.726 -0.1496  1.1497  0.9446
    51IDQ   C2212350   3.440   7.700   5.593 -1.0083  1.1998 -0.1439
    51IDQ   C2312351   3.612   7.722   5.987  1.0264 -1.1550  0.5695
    51IDQ   C2412352   3.455   7.835   5.629  0.9295  0.6061 -1.0275
    51IDQ   C2512353   3.568   7.908   5.544  0.9200 -0.7267  0.6635
    51IDQ   C2612354   3.589   7.908   5.396 -1.0253 -1.2845 -0.4703
    51IDQ   C2712355   3.730   7.929   5.349  0.5287 -0.0315  0.0402
    51IDQ   C2812356   3.759   7.881   5.203 -0.6095 -0.5112  0.0316
    51IDQ   C2912357   3.842   7.760   5.176 -0.0962  0.4841 -0.7198
    51IDQ   C3012358   3.595   7.728   6.142  0.4039 -1.3071 -0.3340
    51IDQ   C3112359   3.636   7.861   6.214  0.7862  0.4685 -0.0679
    51IDQ   C3212360   3.735   7.960   6.165  0.2492  1.3622 -1.3899
    51IDQ   C3312361   3.643   8.068   6.110  0.4816 -0.5954  0.5693
    51IDQ   C3412362   3.695   8.214   6.157  1.0086  0.4708  0.1590
    51IDQ   C3512363   3.617   8.311   6.079  0.0749 -0.1308  0.1030
    4IDB    C3612364   3.809   7.348   5.599 -0.3011 -0.9155  0.2098
    4IDB    C3712365   3.896   7.447   5.547 -0.0669 -1.0434  0.3600
    11RH    C3812366   3.039   6.202   6.223 -0.2688 -0.5642  0.5025
    4IDB    C3912367   3.878   7.582   5.577 -0.0781 -0.9906  0.1143
    62IDT   C4012368   3.996   7.659   5.524  0.5322 -0.1302  0.4091
    72IDQ   C4112369   4.003   7.434   5.438  0.1046  0.5930  0.7718
    62IDT   C4212370   4.057   7.579   5.428  0.1640 -0.2766  0.2954
    72IDQ   C4312371   3.921   7.381   5.310  0.6135 -0.0439  0.8052
    72IDQ   C4412372   4.112   7.335   5.490  0.5208  0.3704  0.0784
    62IDT    S512373   4.081   7.815   5.545  0.3917  0.0643 -0.4382
    62IDT   C4512374   4.200   7.763   5.417 -0.1855 -0.0690 -0.9253
    62IDT   C4612375   4.172   7.638   5.368 -0.2425 -0.2422 -0.4592
    82BTZ   C4712376   4.328   7.837   5.389  0.3565 -0.4865  0.1484
    82BTZ   C4812377   4.401   7.895   5.489  0.4737 -0.6494  0.1578
    82BTZ   C4912378   4.526   7.962   5.463  0.3734 -0.4832  0.0982
    82BTZ   C5012379   4.578   7.970   5.337  0.1561 -0.1543  0.0292
    82BTZ   C5112380   4.378   7.843   5.255  0.1285 -0.1419  0.0768
    82BTZ   C5212381   4.505   7.911   5.228  0.0265  0.0271  0.0162
    92RH    C5312382   4.701   8.028   5.292 -0.0658  0.0623 -0.1879
    82BTZ    N412383   4.316   7.790   5.149 -0.0024  0.0433  0.0603
    82BTZ    N512384   4.546   7.912   5.101 -0.1867  0.3480 -0.0489
    82BTZ    S612385   4.420   7.825   5.008 -0.2668  0.4500 -0.0348
    92RH    C5412386   4.794   8.089   5.366  0.0587 -0.1408 -0.1762
    92RH     S712387   4.785   8.126   5.546  0.2448 -0.3885 -0.1157
    92RH    C5512388   4.923   8.138   5.312  0.0646 -0.1970 -0.2124
    92RH     O212389   4.960   8.128   5.193 -0.0422 -0.0658 -0.2568
    92RH     N612390   5.002   8.198   5.412  0.2100 -0.4229 -0.1900
    92RH    C5612391   4.952   8.204   5.540  0.3214 -0.5545 -0.1404
    92RH    C5712392   5.148   8.229   5.395  1.1789  0.4544  0.9409
    92RH    C5812393   5.186   8.341   5.298  0.2825 -0.0124 -0.5830
    92RH     S812394   5.025   8.270   5.677  0.5028 -0.8267 -0.1051
    72IDQ   C5912395   4.234   7.287   5.416 -1.2231 -0.4750 -1.6402
    72IDQ   C6012396   4.223   7.173   5.324  0.0507  0.8776  0.0815
    72IDQ   C6112397   4.335   7.143   5.236 -0.3229 -0.1004 -0.0310
    72IDQ   C6212398   4.316   7.069   5.114 -0.8279  0.5300  0.0205
    72IDQ   C6312399   4.280   7.144   4.997 -0.4008 -0.1740 -0.2059
    72IDQ   C6412400   4.183   7.079   4.901 -0.3358  0.1332  0.1140
    72IDQ   C6512401   4.245   6.999   4.780 -0.8209  0.1574 -0.1665
    72IDQ   C6612402   3.970   7.425   5.169 -0.3681 -0.0937 -0.6262
    72IDQ   C6712403   3.907   7.330   5.066  0.5620  0.1009  0.6425
    72IDQ   C6812404   3.955   7.360   4.916 -1.1151  0.3256  1.2891
    72IDQ   C6912405   3.917   7.496   4.848  0.2270  1.5469  0.0060
    72IDQ   C7012406   3.776   7.522   4.789 -0.0048  0.9465 -1.4341
    72IDQ   C7112407   3.808   7.582   4.653 -0.3877  0.6675  0.1827
    72IDQ   C7212408   3.695   7.589   4.542  0.6995 -1.6590 -0.2346
    11RH     C112409   4.409   4.350   2.137 -0.3924  0.5631  0.5565
    11RH     C212410   4.520   4.317   2.230 -0.1650  0.3364  0.2115
    11RH     N112411   4.458   4.378   2.007 -0.7496  0.3355  0.3722
    11RH     S112412   4.680   4.326   2.142 -0.4359 -0.1611 -0.3329
    11RH     C312413   4.593   4.372   1.985 -0.8364 -0.0455 -0.0783
    11RH     C412414   4.362   4.438   1.897 -0.4288 -0.0727  0.7039
    11RH     S212415   4.676   4.400   1.841 -1.2388 -0.3767 -0.3783
    11RH     O112416   4.288   4.353   2.166 -0.2894  0.9091  0.9587
    11RH     C512417   4.501   4.287   2.359  0.1838  0.4843  0.2983
    21BTZ    C612418   4.590   4.271   2.481  0.2609 -0.4948 -0.4127
    21BTZ    C712419   4.725   4.262   2.461  0.2372 -0.6528 -0.4966
    21BTZ    C812420   4.538   4.243   2.612  0.3424 -0.1187 -0.2980
    21BTZ    C912421   4.815   4.224   2.567  0.2923 -0.4506 -0.4727
    21BTZ   C1012422   4.770   4.197   2.694  0.3712 -0.0910 -0.3644
    21BTZ   C1112423   4.630   4.205   2.720  0.3984  0.0865 -0.2737
    21BTZ    N212424   4.408   4.249   2.644  0.3724  0.0656 -0.2090
    21BTZ    N312425   4.574   4.180   2.839  0.4735  0.4358 -0.1649
    21BTZ    S312426   4.398   4.205   2.818  0.4759  0.5184 -0.0877
    31IDT   C1212427   4.876   4.150   2.786 -0.1611  0.5365  0.1510
    31IDT   C1312428   4.858   4.107   2.914 -0.2100  0.8342  0.2447
    31IDT   C1412429   4.981   4.071   2.978 -0.2093  1.1883  0.4489
    31IDT   C1512430   5.093   4.086   2.898 -0.1608  1.1630  0.5123
    31IDT    S412431   5.050   4.148   2.735 -0.1107  0.6840  0.3162
    4IDB    C1612432   5.213   4.070   2.985  0.9031  0.4580  0.1867
    4IDB    C1712433   5.169   4.039   3.117  0.4103 -0.0925 -0.1050
    51IDQ   C1812434   5.015   4.037   3.121 -0.7086 -1.6747 -0.6439
    4IDB    C1912435   5.259   4.025   3.221  0.0174 -0.4691  0.1877
    51IDQ   C2012436   4.974   3.911   3.196 -0.1029  1.0099 -1.1237
    51IDQ   C2112437   4.971   4.167   3.196  0.9418 -1.2030 -0.3536
    51IDQ   C2212438   4.851   4.166   3.300  0.3904 -1.0469 -1.7152
    51IDQ   C2312439   4.924   3.771   3.148  0.7371 -0.2432 -0.2544
    51IDQ   C2412440   4.716   4.148   3.243  0.3001 -0.6843  0.0696
    51IDQ   C2512441   4.604   4.218   3.304 -0.1897 -0.5486  0.8790
    51IDQ   C2612442   4.591   4.181   3.456  1.0146 -0.3688  0.2901
    51IDQ   C2712443   4.483   4.248   3.528  1.3805  0.1912  0.7753
    51IDQ   C2812444   4.334   4.282   3.489  0.0279 -0.5119 -0.8480
    51IDQ   C2912445   4.255   4.162   3.492  0.6800 -0.1930  1.9173
    51IDQ   C3012446   4.959   3.667   3.253  0.5432 -0.0693  0.0843
    51IDQ   C3112447   5.091   3.602   3.232 -0.0500 -1.0775 -0.2380
    51IDQ   C3212448   5.100   3.492   3.122  0.5115 -1.1429  0.5451
    51IDQ   C3312449   5.235   3.456   3.060  0.5856  1.5070 -0.1529
    51IDQ   C3412450   5.337   3.384   3.153  0.0425  1.5879  0.1810
    51IDQ   C3512451   5.476   3.423   3.125  0.0443 -0.3543 -1.5508
    4IDB    C3612452   5.350   4.088   2.957  1.0061  0.6361  0.7769
    4IDB    C3712453   5.441   4.073   3.065  0.5996  0.2458  1.0692
    11RH    C3812454   4.292   4.326   1.814 -0.0201  1.6005  1.0114
    4IDB    C3912455   5.396   4.042   3.193  0.1201 -0.2910  0.7779
    62IDT   C4012456   5.517   4.046   3.286  0.1159  0.1494 -0.2227
    72IDQ   C4112457   5.598   4.058   3.070  0.8957 -0.1027  0.0410
    62IDT   C4212458   5.634   4.031   3.216  0.3345 -0.2246  0.2235
    72IDQ   C4312459   5.677   4.187   3.021 -0.0356 -0.7592  0.0777
    72IDQ   C4412460   5.647   3.910   3.007  0.2025 -0.6008  0.6165
    62IDT    S512461   5.544   4.047   3.464 -0.5652 -0.0268 -0.1153
    62IDT   C4512462   5.721   4.025   3.432 -0.5153 -0.6261  0.5603
    62IDT   C4612463   5.750   4.019   3.299 -0.0215 -0.6635  0.6667
    82BTZ   C4712464   5.812   4.015   3.550 -0.0562 -0.5756 -0.2634
    82BTZ   C4812465   5.755   4.012   3.674 -0.0646 -0.9744 -0.2751
    82BTZ   C4912466   5.834   3.998   3.794 -0.0441 -1.0390 -0.2961
    82BTZ   C5012467   5.971   3.986   3.789 -0.0156 -0.7043 -0.3059
    82BTZ   C5112468   5.954   4.003   3.539 -0.0265 -0.2143 -0.2729
    82BTZ   C5212469   6.035   3.989   3.660 -0.0057 -0.2800 -0.2944
    92RH    C5312470   6.056   3.944   3.897  0.0286 -0.3268  0.0061
    82BTZ    N412471   6.021   4.004   3.423 -0.0155  0.1898 -0.2632
    82BTZ    N512472   6.167   3.978   3.643  0.0217  0.0715 -0.3021
    82BTZ    S612473   6.194   3.987   3.466  0.0219  0.5102 -0.2818
    92RH    C5412474   6.041   3.907   4.025  0.1564 -0.5958 -0.0551
    92RH     S712475   5.884   3.862   4.108  0.2100 -0.5707  0.0596
    92RH    C5512476   6.153   3.898   4.121  0.2775 -0.9677 -0.2315
    92RH     O212477   6.272   3.922   4.096  0.2754 -1.0728 -0.3417
    92RH     N612478   6.108   3.857   4.249  0.3990 -1.1961 -0.2619
    92RH    C5612479   5.974   3.832   4.266  0.3898 -1.0525 -0.1311
    92RH    C5712480   6.189   3.904   4.368  0.3530 -0.2165 -0.4348
    92RH    C5812481   6.319   3.825   4.393  0.7260  0.3558 -1.2590
    92RH     S812482   5.896   3.783   4.407  0.5183 -1.2652 -0.1338
    72IDQ   C5912483   5.722   3.938   2.876 -0.7356  0.4829  0.6700
    72IDQ   C6012484   5.617   3.900   2.762  0.8946  0.2629 -1.2761
    72IDQ   C6112485   5.650   3.957   2.636 -0.3928  0.6638 -0.0113
    72IDQ   C6212486   5.658   4.110   2.601 -0.0248  0.5807 -0.0504
    72IDQ   C6312487   5.551   4.199   2.654  0.9720 -0.0785  0.9041
    72IDQ   C6412488   5.421   4.134   2.592  1.9769 -0.3925  0.2456
    72IDQ   C6512489   5.330   4.220   2.485 -0.3704 -0.1844 -0.2778
    72IDQ   C6612490   5.632   4.332   3.035  0.6968  0.9046 -0.8465
    72IDQ   C6712491   5.705   4.413   2.928  0.7917 -1.2159  0.6130
    72IDQ   C6812492   5.666   4.555   2.943 -0.1719  1.0686  0.3877
    72IDQ   C6912493   5.791   4.637   2.946 -0.0433 -0.4409 -0.1814
    72IDQ   C7012494   5.792   4.763   3.047 -0.4434 -1.1162 -0.1782
    72IDQ   C7112495   5.705   4.775   3.174  0.0164 -0.3371  0.8778
    72IDQ   C7212496   5.636   4.907   3.202 -0.1710  0.2976  0.8471
    11RH     C112497   6.816   6.740   0.095  0.1216 -0.1616  0.0814
    11RH     C212498   6.811   6.639   0.203  0.4463  0.0358  0.2815
    11RH     N112499   6.768   6.865   0.138  0.1325 -0.1150 -0.0407
    11RH     S112500   6.743   6.716   0.356  0.7436  0.2704  0.2960
    11RH     C312501   6.725   6.877   0.269  0.4258  0.0958  0.0371
    11RH     C412502   6.760   6.985   0.048 -1.1572 -1.6388 -0.5889
    11RH     S212503   6.664   7.014   0.345  0.5033  0.1936 -0.0763
    11RH     O112504   6.856   6.719  -0.021 -0.1309 -0.3469  0.0243
    11RH     C512505   6.850   6.512   0.188  0.5024  0.0361  0.4256
    21BTZ    C612506   6.851   6.397   0.271 -0.1399 -0.2621 -0.0420
    21BTZ    C712507   6.798   6.399   0.397 -0.4547 -0.2737 -0.1729
    21BTZ    C812508   6.898   6.272   0.218  0.0253 -0.2508  0.0763
    21BTZ    C912509   6.789   6.279   0.477 -0.6220 -0.2749 -0.1941
    21BTZ   C1012510   6.832   6.158   0.430 -0.4742 -0.2644 -0.0843
    21BTZ   C1112511   6.888   6.151   0.299 -0.1450 -0.2520  0.0547
    21BTZ    N212512   6.951   6.258   0.096  0.3316 -0.2394  0.2088
    21BTZ    N312513   6.934   6.039   0.242  0.0248 -0.2410  0.1699
    21BTZ    S312514   6.993   6.085   0.080  0.4167 -0.2289  0.3138
    31IDT   C1212515   6.833   6.038   0.524  0.2883  0.0499  0.8535
    31IDT   C1312516   6.926   6.019   0.623  0.1090 -0.3023  0.9557
    31IDT   C1412517   6.944   5.881   0.656 -0.0274 -0.4156  0.5706
    31IDT   C1512518   6.866   5.795   0.583  0.0464 -0.1508  0.1734
    31IDT    S412519   6.761   5.881   0.465  0.2971  0.2658  0.2568
    4IDB    C1612520   6.897   5.664   0.610  0.0958 -0.1562  0.7148
    4IDB    C1712521   7.001   5.653   0.708  0.3290 -0.4766  0.4335
    51IDQ   C1812522   7.042   5.797   0.750 -0.1627  0.3309 -1.0982
    4IDB    C1912523   7.030   5.530   0.767  0.1487 -0.5784  0.3121
    51IDQ   C2012524   7.025   5.835   0.912 -0.5904  1.2317  0.1678
    51IDQ   C2112525   7.195   5.848   0.708 -0.2288 -0.3514  0.0239
    51IDQ   C2212526   7.273   5.740   0.643 -0.5964 -1.0036 -0.3649
    51IDQ   C2312527   6.916   5.940   0.955  0.7989 -0.3037 -0.2716
    51IDQ   C2412528   7.416   5.763   0.653  0.5830 -0.7201  0.5650
    51IDQ   C2512529   7.494   5.666   0.567 -0.5092 -0.0973 -0.4049
    51IDQ   C2612530   7.644   5.683   0.580  0.5515  0.8620  0.3672
    51IDQ   C2712531   7.673   5.556   0.497 -0.1252  0.5754 -1.2095
    51IDQ   C2812532   7.783   5.470   0.511 -1.0621  0.4802 -0.6708
    51IDQ   C2912533   7.824   5.396   0.635  0.6604 -0.0632  0.0527
    51IDQ   C3012534   6.785   5.880   0.978 -0.3642  0.6397 -1.4192
    51IDQ   C3112535   6.683   5.955   1.074 -0.1694  1.2112  0.2478
    51IDQ   C3212536   6.703   6.011   1.207  0.0635  0.3989 -0.6178
    51IDQ   C3312537   6.570   6.006   1.276  0.5258 -1.6028 -0.1535
    51IDQ   C3412538   6.552   6.029   1.424 -0.3815  0.2587 -0.1598
    51IDQ   C3512539   6.418   6.105   1.435 -0.2010 -0.0940 -0.8396
    4IDB    C3612540   6.822   5.553   0.570 -0.3214  0.0653  0.8774
    4IDB    C3712541   6.853   5.429   0.632 -0.5004 -0.0432  0.7499
    11RH    C3812542   6.629   6.984  -0.031 -0.5427  0.4273 -0.6819
    4IDB    C3912543   6.954   5.419   0.727 -0.2684 -0.3565  0.4747
    62IDT   C4012544   6.955   5.282   0.778 -0.2283  0.2169  0.3956
    72IDQ   C4112545   6.798   5.291   0.602 -0.1701 -0.8619  0.1858
    62IDT   C4212546   6.868   5.203   0.706 -0.6616  0.3483  0.7739
    72IDQ   C4312547   6.829   5.249   0.445  1.2739 -0.3546 -0.7370
    72IDQ   C4412548   6.648   5.316   0.606  1.0357 -0.4256 -0.7403
    62IDT    S512549   7.049   5.186   0.897  0.2010  0.0632 -0.0628
    62IDT   C4512550   6.961   5.037   0.841 -0.2498  0.1913  0.2989
    62IDT   C4612551   6.871   5.065   0.742 -0.6742  0.3343  0.7198
    82BTZ   C4712552   7.003   4.906   0.879  0.8779  0.1957 -0.3245
    82BTZ   C4812553   7.035   4.894   1.011  0.9961  0.3407 -0.3394
    82BTZ   C4912554   7.075   4.767   1.068  0.8446  0.3586 -0.1921
    82BTZ   C5012555   7.083   4.653   0.993  0.5755  0.2315 -0.0302
    82BTZ   C5112556   7.010   4.790   0.795  0.5965  0.0594 -0.1576
    82BTZ   C5212557   7.050   4.661   0.853  0.4426  0.0775 -0.0079
    92RH    C5312558   7.111   4.510   1.046 -0.3269  0.4185 -0.1264
    82BTZ    N412559   6.981   4.789   0.665  0.4590 -0.0880 -0.1267
    82BTZ    N512560   7.054   4.557   0.769  0.1816 -0.0551  0.1433
    82BTZ    S612561   7.005   4.621   0.609  0.1199 -0.2121  0.0998
    92RH    C5412562   7.137   4.457   1.166 -0.1406  0.4070 -0.1715
    92RH     S712563   7.124   4.542   1.329  0.3171  0.4540 -0.1601
    92RH    C5512564   7.181   4.317   1.186 -0.2829  0.3521 -0.2400
    92RH     O212565   7.199   4.233   1.096 -0.5850  0.3116 -0.2633
    92RH     N612566   7.201   4.288   1.323 -0.0294  0.3518 -0.2769
    92RH    C5612567   7.178   4.388   1.415  0.2985  0.3991 -0.2463
    92RH    C5712568   7.295   4.173   1.362 -0.4095  0.5056  0.2453
    92RH    C5812569   7.236   4.037   1.355  0.0434 -0.2739  0.6010
    92RH     S812570   7.195   4.379   1.582  0.6447  0.4091 -0.2789
    72IDQ   C5912571   6.554   5.282   0.728  1.3031 -0.0400  0.5792
    72IDQ   C6012572   6.561   5.371   0.845  0.2449  1.1979 -0.5476
    72IDQ   C6112573   6.494   5.299   0.967 -0.0124  1.9826 -0.8310
    72IDQ   C6212574   6.453   5.403   1.071 -0.5315  0.4419  0.6976
    72IDQ   C6312575   6.330   5.488   1.056  0.2045  0.9925  0.3075
    72IDQ   C6412576   6.334   5.615   1.153 -0.6687 -0.6675 -1.5220
    72IDQ   C6512577   6.262   5.732   1.094  0.5979  0.2706 -0.5979
    72IDQ   C6612578   6.971   5.220   0.418 -0.4912 -0.0041  1.5510
    72IDQ   C6712579   6.996   5.221   0.252  1.1197 -0.3348  0.2099
    72IDQ   C6812580   7.135   5.213   0.169  0.5083 -0.0118  0.6628
    72IDQ   C6912581   7.270   5.266   0.229  0.2872 -0.8146  0.6118
    72IDQ   C7012582   7.287   5.381   0.332 -0.7967  0.1794  0.5865
    72IDQ   C7112583   7.229   5.507   0.279  0.5787  0.5342  0.3892
    72IDQ   C7212584   7.340   5.611   0.277  0.8403 -0.0588  0.2641
    11RH     C112585   5.764   6.848   5.863  0.0648 -0.0830 -0.0417
    11RH     C212586   5.617   6.838   5.840  0.0017  0.0112  0.3023
    11RH     N112587   5.816   6.730   5.919  0.1077 -0.0920 -0.1022
    11RH     S112588   5.558   6.672   5.893  0.0034  0.0815  0.5244
    11RH     C312589   5.729   6.625   5.943  0.0870 -0.0169  0.1514
    11RH     C412590   5.954   6.708   5.964 -0.6488 -1.4162  0.2868
    11RH     S212591   5.766   6.474   6.009  0.1290 -0.0103  0.1445
    11RH     O112592   5.834   6.948   5.838  0.0789 -0.1469 -0.2553
    11RH     C512593   5.544   6.936   5.788 -0.0478  0.0384  0.4233
    21BTZ    C612594   5.395   6.965   5.786 -0.4881  0.8445  0.3629
    21BTZ    C712595   5.305   6.898   5.865 -0.4485  0.7737  0.3474
    21BTZ    C812596   5.347   7.042   5.675 -0.5147  0.6666  0.2522
    21BTZ    C912597   5.163   6.903   5.838 -0.4334  0.5255  0.2232
    21BTZ   C1012598   5.112   6.975   5.733 -0.4581  0.3490  0.1149
    21BTZ   C1112599   5.203   7.046   5.648 -0.4995  0.4141  0.1259
    21BTZ    N212600   5.425   7.111   5.592 -0.5534  0.7133  0.2551
    21BTZ    N312601   5.165   7.119   5.543 -0.5262  0.2587  0.0272
    21BTZ    S312602   5.315   7.187   5.472 -0.5727  0.4320  0.0930
    31IDT   C1212603   4.976   6.955   5.708 -0.5944  0.6183 -0.8018
    31IDT   C1312604   4.907   7.073   5.697 -1.1313  0.3140 -0.7381
    31IDT   C1412605   4.769   7.059   5.728 -0.9568 -0.2110 -0.1707
    31IDT   C1512606   4.731   6.932   5.764 -0.2869 -0.3090  0.2017
    31IDT    S412607   4.870   6.817   5.760  0.1785  0.2597 -0.1411
    4IDB    C1612608   4.587   6.937   5.787 -0.5633 -0.3417 -0.9769
    4IDB    C1712609   4.535   7.067   5.757 -0.3636 -0.2785 -1.0524
    51IDQ   C1812610   4.654   7.157   5.699  0.3357  0.2783 -0.6353
    4IDB    C1912611   4.402   7.098   5.783 -0.2321  0.0465 -0.7548
    51IDQ   C2012612   4.635   7.194   5.551 -0.3253 -0.4728 -0.2600
    51IDQ   C2112613   4.678   7.296   5.774  0.5637  0.6840  1.8448
    51IDQ   C2212614   4.669   7.284   5.925  0.0656  1.0496  1.2124
    51IDQ   C2312615   4.709   7.135   5.435 -0.8631 -1.6746  0.1380
    51IDQ   C2412616   4.717   7.407   5.984 -0.3904  0.1703  0.7490
    51IDQ   C2512617   4.731   7.401   6.132  0.6105  0.4994  0.2223
    51IDQ   C2612618   4.888   7.385   6.167  0.7369  0.0256  0.3334
    51IDQ   C2712619   4.969   7.254   6.125 -1.3738  0.2807  0.6466
    51IDQ   C2812620   5.115   7.255   6.161  0.9917 -0.6022 -1.5359
    51IDQ   C2912621   5.178   7.122   6.198  1.2652  0.8769 -0.4220
    51IDQ   C3012622   4.661   6.992   5.403  0.0725 -0.9632  0.5175
    51IDQ   C3112623   4.718   6.912   5.280 -0.0930  1.2785 -0.7561
    51IDQ   C3212624   4.695   6.941   5.136 -0.4256  0.3434  0.3973
    51IDQ   C3312625   4.788   7.033   5.051 -0.0453 -0.5436  0.9317
    51IDQ   C3412626   4.723   7.071   4.907  0.1451  0.1043  0.9189
    51IDQ   C3512627   4.667   7.204   4.961  0.5201  0.1342 -1.0506
    4IDB    C3612628   4.506   6.837   5.842 -0.6337 -0.0782 -0.6011
    4IDB    C3712629   4.370   6.871   5.867 -0.4976  0.2520 -0.3002
    11RH    C3812630   6.023   6.667   5.835  0.6475 -1.1139 -0.0063
    4IDB    C3912631   4.321   6.998   5.838 -0.3022  0.3101 -0.3787
    62IDT   C4012632   4.177   7.006   5.883 -0.7854 -0.1962  0.0192
    72IDQ   C4112633   4.257   6.787   5.907 -0.1838  1.8418  0.3049
    62IDT   C4212634   4.140   6.882   5.930 -0.9215 -0.0484  0.3042
    72IDQ   C4312635   4.306   6.705   6.038  0.0161 -0.3240 -0.0742
    72IDQ   C4412636   4.229   6.686   5.768 -1.1054  0.2237 -0.4653
    62IDT    S512637   4.044   7.126   5.897 -0.5347  0.0750  0.0955
    62IDT   C4512638   3.940   6.996   5.969 -0.6317  0.3897  0.5298
    62IDT   C4612639   4.005   6.876   5.979 -0.8349  0.2830  0.5929
    82BTZ   C4712640   3.813   7.020   6.040 -0.0714  0.2595  0.1765
    82BTZ   C4812641   3.709   6.934   6.021 -0.1029  0.2797  0.2575
    82BTZ   C4912642   3.581   6.954   6.086 -0.0838  0.3657  0.2692
    82BTZ   C5012643   3.559   7.060   6.170 -0.0335  0.4313  0.1997
    82BTZ   C5112644   3.795   7.133   6.127 -0.0185  0.3263  0.1018
    82BTZ   C5212645   3.665   7.153   6.193  0.0007  0.4136  0.1135
    92RH    C5312646   3.431   7.075   6.240 -0.1614 -0.1975  0.1957
    82BTZ    N412647   3.889   7.224   6.153  0.0159  0.3148  0.0198
    82BTZ    N512648   3.656   7.260   6.272  0.0504  0.4724  0.0408
    82BTZ    S612649   3.815   7.341   6.266  0.0753  0.4173 -0.0477
    92RH    C5412650   3.332   6.994   6.278 -0.2998 -0.1357 -0.0329
    92RH     S712651   3.318   6.814   6.243 -0.1677 -0.1943  0.2116
    92RH    C5512652   3.215   7.039   6.357 -0.5916 -0.0064 -0.5364
    92RH     O212653   3.194   7.155   6.396 -0.7397  0.0593 -0.8016
    92RH     N612654   3.126   6.932   6.383 -0.6853  0.0355 -0.6858
    92RH    C5612655   3.157   6.807   6.334 -0.5044 -0.0451 -0.3633
    92RH    C5712656   2.979   6.955   6.423 -2.0418  1.0127  0.5987
    92RH    C5812657   2.954   6.993   6.560  0.0287  1.3985  0.2141
    92RH     S812658   3.069   6.665   6.351 -0.5637 -0.0188 -0.4506
    72IDQ   C5912659   4.214   6.737   5.615 -1.0376  0.4067 -0.1140
    72IDQ   C6012660   4.129   6.659   5.525 -0.8002 -0.8323  0.8531
    72IDQ   C6112661   3.999   6.599   5.577  0.5771 -0.7122  0.0170
    72IDQ   C6212662   3.869   6.682   5.532  1.2926  0.6236  0.3650
    72IDQ   C6312663   3.758   6.619   5.604  0.2684  0.6254  0.3391
    72IDQ   C6412664   3.669   6.734   5.668 -0.5589 -1.7114  0.0177
    72IDQ   C6512665   3.540   6.681   5.745 -0.6252  0.6026 -0.1186
    72IDQ   C6612666   4.179   6.652   6.116  0.6571 -0.0967  0.1837
    72IDQ   C6712667   4.192   6.551   6.227 -0.4392 -0.1737  0.2045
    72IDQ   C6812668   4.065   6.483   6.288 -0.0777 -0.5862 -1.1373
    72IDQ   C6912669   4.076   6.448   6.431 -0.5907  0.5160  0.0692
    72IDQ   C7012670   4.001   6.320   6.463  0.3439  1.0869  0.8746
    72IDQ   C7112671   4.002   6.231   6.588  0.2148 -0.3056  0.2278
    72IDQ   C7212672   3.955   6.257   6.725 -0.2041  0.4447  0.2480
    11RH     C112673   0.515   5.623   5.354  0.1878  0.3812 -0.0198
    11RH     C212674   0.391   5.634   5.274  0.0695  0.3014  0.1523
    11RH     N112675   0.583   5.746   5.360  0.1304  0.4189 -0.1382
    11RH     S112676   0.372   5.805   5.211 -0.1094  0.2801  0.1474
    11RH     C312677   0.529   5.855   5.294 -0.0194  0.3786 -0.0820
    11RH     C412678   0.683   5.757   5.469  1.1523  0.2260  1.8885
    11RH     S212679   0.591   6.011   5.285 -0.1148  0.4096 -0.1960
    11RH     O112680   0.556   5.520   5.410  0.3211  0.4134 -0.0584
    11RH     C512681   0.307   5.531   5.253  0.0943  0.2535  0.2876
    21BTZ    C612682   0.170   5.524   5.201 -0.5061  0.2845 -0.7695
    21BTZ    C712683   0.093   5.625   5.151 -0.9651  0.0589 -0.5293
    21BTZ    C812684   0.110   5.395   5.221 -0.0319  0.0727 -0.6969
    21BTZ    C912685  -0.046   5.605   5.117 -0.9813 -0.3834 -0.2079
    21BTZ   C1012686  -0.107   5.484   5.134 -0.5385 -0.5988 -0.1273
    21BTZ   C1112687  -0.031   5.375   5.187 -0.0482 -0.3765 -0.3703
    21BTZ    N212688   0.175   5.289   5.270  0.4388  0.2584 -0.9100
    21BTZ    N312689  -0.080   5.252   5.209  0.4091 -0.5519 -0.3209
    21BTZ    S312690   0.055   5.155   5.274  0.8904 -0.1414 -0.6977
    31IDT   C1212691  -0.250   5.482   5.128 -0.2847  0.6858  0.1004
    31IDT   C1312692  -0.325   5.432   5.024 -0.4041  1.6077 -0.2728
    31IDT   C1412693  -0.465   5.439   5.049 -0.3879  1.7602 -0.2229
    31IDT   C1512694  -0.499   5.495   5.171 -0.2562  0.9574  0.1879
    31IDT    S412695  -0.353   5.543   5.264 -0.1412 -0.0632  0.5465
    4IDB    C1612696  -0.641   5.482   5.186 -0.4699 -0.6314  0.4633
    4IDB    C1712697  -0.701   5.409   5.079 -0.8304 -0.2699  0.4153
    51IDQ   C1812698  -0.580   5.373   4.978 -0.4885  0.6229 -0.0193
    4IDB    C1912699  -0.837   5.382   5.078 -0.8404 -0.2370  0.7693
    51IDQ   C2012700  -0.580   5.218   4.951  0.6957  0.5949 -0.5206
    51IDQ   C2112701  -0.579   5.433   4.827 -0.1199 -1.7253 -0.1674
    51IDQ   C2212702  -0.674   5.535   4.796  0.7926 -0.8761 -0.6082
    51IDQ   C2312703  -0.461   5.118   5.000 -0.3269 -0.0603  0.2107
    51IDQ   C2412704  -0.646   5.616   4.674 -0.2372 -0.3152  1.0644
    51IDQ   C2512705  -0.732   5.638   4.559  0.3424 -0.2295 -0.3328
    51IDQ   C2612706  -0.803   5.512   4.514  0.6761  0.4152  0.5410
    51IDQ   C2712707  -0.722   5.386   4.506 -1.5319  0.4067  0.1423
    51IDQ   C2812708  -0.668   5.360   4.371  0.4600  0.0446  0.5891
    51IDQ   C2912709  -0.605   5.469   4.289  0.4755 -0.3656  1.1072
    51IDQ   C3012710  -0.495   4.966   4.963 -0.6145 -1.6321  0.3311
    51IDQ   C3112711  -0.377   4.916   4.869 -0.5220  0.2640  0.2652
    51IDQ   C3212712  -0.455   4.828   4.792  0.3462  0.6447  0.3924
    51IDQ   C3312713  -0.352   4.774   4.689 -0.3323  0.2279 -0.6049
    51IDQ   C3412714  -0.400   4.657   4.618  0.6185 -0.2928  0.4366
    51IDQ   C3512715  -0.304   4.559   4.547 -0.9786 -0.5865 -0.2711
    4IDB    C3612716  -0.718   5.529   5.293 -0.1147 -0.9642  0.8676
    4IDB    C3712717  -0.857   5.501   5.291 -0.1304 -0.9251  1.2259
    11RH    C3812718   0.616   5.772   5.602 -0.1110 -0.6952  1.0663
    4IDB    C3912719  -0.914   5.430   5.185 -0.4850 -0.5698  1.1737
    62IDT   C4012720  -1.054   5.439   5.201 -0.0870 -0.0166  0.6259
    72IDQ   C4112721  -0.953   5.499   5.417 -0.9314  0.5975  0.9416
    62IDT   C4212722  -1.081   5.478   5.330 -0.2789 -0.1059  0.6144
    72IDQ   C4312723  -0.936   5.633   5.506 -0.1167 -0.2689  0.0559
    72IDQ   C4412724  -0.902   5.374   5.513  0.8101  1.3541  1.1505
    62IDT    S512725  -1.203   5.385   5.115 -0.0035  0.3017  0.2804
    62IDT   C4512726  -1.297   5.421   5.266 -0.2442  0.2970  0.1316
    62IDT   C4612727  -1.218   5.468   5.368 -0.3676  0.0715  0.3347
    82BTZ   C4712728  -1.440   5.383   5.264  0.2563 -0.2007 -0.3757
    82BTZ   C4812729  -1.485   5.276   5.335  0.1671  0.0756 -0.0124
    82BTZ   C4912730  -1.626   5.247   5.347  0.1366  0.3190  0.2124
    82BTZ   C5012731  -1.721   5.326   5.288  0.1951  0.2863  0.0733
    82BTZ   C5112732  -1.535   5.469   5.200  0.3207 -0.2463 -0.5338
    82BTZ   C5212733  -1.678   5.440   5.213  0.2897  0.0014 -0.3057
    92RH    C5312734  -1.862   5.312   5.312  0.1658 -0.2412 -0.1466
    82BTZ    N412735  -1.503   5.577   5.128  0.4091 -0.5047 -0.8838
    82BTZ    N512736  -1.761   5.525   5.151  0.3531 -0.0579 -0.4718
    82BTZ    S612737  -1.657   5.648   5.072  0.4576 -0.4409 -0.9376
    92RH    C5412738  -1.938   5.235   5.390  0.1009 -0.0269  0.0029
    92RH     S712739  -1.889   5.077   5.470 -0.0705  0.0231  0.2056
    92RH    C5512740  -2.079   5.267   5.424  0.1605  0.2112  0.0279
    92RH     O212741  -2.142   5.367   5.385  0.2749  0.2401 -0.0849
    92RH     N612742  -2.136   5.169   5.507  0.0702  0.4072  0.1984
    92RH    C5612743  -2.057   5.061   5.545 -0.0546  0.3560  0.3133
    92RH    C5712744  -2.261   5.193   5.582  1.4917 -0.9671  1.2057
    92RH    C5812745  -2.397   5.110   5.570  0.0668 -0.6964 -0.3075
    92RH     S812746  -2.100   4.931   5.643 -0.1802  0.5546  0.5224
    72IDQ   C5912747  -0.998   5.299   5.615 -0.4331  0.4861  1.0639
    72IDQ   C6012748  -1.102   5.206   5.546 -0.5614  0.9966  0.4054
    72IDQ   C6112749  -1.219   5.130   5.613 -0.3127  0.2743  0.9990
    72IDQ   C6212750  -1.226   5.100   5.766  0.2562  0.7853  0.7893
    72IDQ   C6312751  -1.290   5.233   5.841 -1.0304 -0.2326  1.4574
    72IDQ   C6412752  -1.267   5.225   5.991 -1.3548 -1.7454  0.8922
    72IDQ   C6512753  -1.265   5.362   6.054 -0.2234 -1.6748  0.8335
    72IDQ   C6612754  -1.014   5.662   5.632  0.0305  0.6084  0.1429
    72IDQ   C6712755  -0.956   5.608   5.765  1.8239 -0.1803  0.4795
    72IDQ   C6812756  -1.008   5.597   5.917 -0.3029 -0.2315 -0.1176
    72IDQ   C6912757  -0.927   5.488   5.999 -0.0198 -0.4414 -0.5471
    72IDQ   C7012758  -0.789   5.539   6.042 -0.6367  0.2065 -0.9662
    72IDQ   C7112759  -0.683   5.454   6.119  1.1554 -0.8387  0.6935
    72IDQ   C7212760  -0.628   5.322   6.061 -1.6457  1.6742 -0.0509
    11RH     C112761   2.696   2.186   5.119 -0.1553  0.3307 -0.1428
    11RH     C212762   2.798   2.127   5.029 -0.2695  0.0999 -0.1218
    11RH     N112763   2.751   2.289   5.198  0.0816  0.1517 -0.0717
    11RH     S112764   2.960   2.211   5.055 -0.0581 -0.3378 -0.0092
    11RH     C312765   2.884   2.320   5.183  0.1712 -0.1944  0.0045
    11RH     C412766   2.675   2.336   5.321  0.3717  0.7912 -0.6623
    11RH     S212767   2.973   2.438   5.265  0.4454 -0.4650  0.0980
    11RH     O112768   2.577   2.151   5.125 -0.2509  0.6427 -0.2139
    11RH     C512769   2.773   2.027   4.944 -0.4937  0.2050 -0.1780
    21BTZ    C612770   2.862   1.961   4.849  0.8598 -0.0448 -0.0193
    21BTZ    C712771   2.996   1.984   4.833  0.8812 -0.1907 -0.0563
    21BTZ    C812772   2.802   1.855   4.773  0.6810  0.1595 -0.1621
    21BTZ    C912773   3.077   1.906   4.743  0.7291 -0.1435 -0.2339
    21BTZ   C1012774   3.023   1.804   4.668  0.5558  0.0495 -0.3745
    21BTZ   C1112775   2.883   1.776   4.681  0.5262  0.2075 -0.3428
    21BTZ    N212776   2.672   1.823   4.780  0.6430  0.3147 -0.1428
    21BTZ    N312777   2.820   1.679   4.614  0.3638  0.4012 -0.4687
    21BTZ    S312778   2.649   1.686   4.667  0.4025  0.5331 -0.3593
    31IDT   C1212779   3.125   1.734   4.581 -0.5935  0.2361  0.1585
    31IDT   C1312780   3.221   1.641   4.610 -0.4414  0.6246  0.9494
    31IDT   C1412781   3.297   1.603   4.495  0.3356  0.5697  1.4770
    31IDT   C1512782   3.260   1.667   4.379  0.7799  0.1400  1.0930
    31IDT    S412783   3.124   1.781   4.406  0.2438 -0.2318  0.0234
    4IDB    C1612784   3.321   1.596   4.257 -0.5224  0.3593 -1.2972
    4IDB    C1712785   3.418   1.506   4.310  0.1175  1.5443 -0.3867
    51IDQ   C1812786   3.407   1.504   4.465  0.0016  0.0106  1.4406
    4IDB    C1912787   3.505   1.437   4.226  0.2495  0.9328  0.2390
    51IDQ   C2012788   3.380   1.344   4.492 -0.6387 -0.5444  0.3172
    51IDQ   C2112789   3.543   1.526   4.544 -0.4693  0.3476 -0.2203
    51IDQ   C2212790   3.677   1.591   4.489  0.4629  0.9377 -0.4961
    51IDQ   C2312791   3.252   1.279   4.511 -0.3410 -0.8853 -0.2370
    51IDQ   C2412792   3.799   1.597   4.572 -0.7776 -0.7416  0.2908
    51IDQ   C2512793   3.843   1.462   4.637 -0.2574  2.2289  0.3024
    51IDQ   C2612794   3.920   1.351   4.557  1.3995 -1.1798  0.5376
    51IDQ   C2712795   3.895   1.317   4.411  1.0102  0.9954 -0.5907
    51IDQ   C2812796   3.988   1.357   4.306  0.3842 -0.7679  0.1919
    51IDQ   C2912797   3.945   1.308   4.169 -0.1727  0.5869 -0.1236
    51IDQ   C3012798   3.251   1.122   4.532  0.6150 -0.3467 -1.3648
    51IDQ   C3112799   3.343   0.996   4.502  0.7714  0.3174 -0.3450
    51IDQ   C3212800   3.453   0.955   4.611 -0.8366  0.6334 -0.6410
    51IDQ   C3312801   3.418   0.921   4.752  0.5023 -0.8999  0.6582
    51IDQ   C3412802   3.480   0.793   4.803 -0.9379 -0.2801  0.4387
    51IDQ   C3512803   3.424   0.775   4.940  0.7493  0.5360 -0.0633
    4IDB    C3612804   3.311   1.619   4.119 -1.0368 -1.4557 -1.5881
    4IDB    C3712805   3.401   1.549   4.035 -0.8928 -2.0566 -0.9391
    11RH    C3812806   2.538   2.401   5.287  1.0792 -0.3768  0.3432
    4IDB    C3912807   3.495   1.460   4.088 -0.2650 -0.8822 -0.0517
    62IDT   C4012808   3.583   1.424   3.972  0.3463 -0.2741  0.3662
    72IDQ   C4112809   3.406   1.562   3.882 -1.2832  1.0608 -0.1973
    62IDT   C4212810   3.528   1.469   3.854  0.2345 -0.1616  0.4596
    72IDQ   C4312811   3.432   1.714   3.822 -0.4348 -0.0776 -0.0178
    72IDQ   C4412812   3.288   1.505   3.807 -0.7683 -0.5216  0.0030
    62IDT    S512813   3.713   1.303   3.945  0.1951 -0.3863  0.1346
    62IDT   C4512814   3.686   1.321   3.766 -0.0214 -0.2694  0.1783
    62IDT   C4612815   3.587   1.411   3.737  0.0266 -0.1587  0.3536
    82BTZ   C4712816   3.766   1.219   3.689 -0.4464  0.2196 -0.0039
    82BTZ   C4812817   3.760   1.233   3.553 -0.4693  0.2773  0.0029
    82BTZ   C4912818   3.824   1.139   3.464 -0.2805  0.4479 -0.0430
    82BTZ   C5012819   3.894   1.031   3.512 -0.0691  0.5606 -0.0962
    82BTZ   C5112820   3.838   1.108   3.744 -0.2283  0.3328 -0.0588
    82BTZ   C5212821   3.903   1.012   3.654 -0.0364  0.5063 -0.1056
    92RH    C5312822   3.961   0.928   3.428 -0.0108  0.4382  0.0534
    82BTZ    N412823   3.851   1.084   3.875 -0.1848  0.2914 -0.0708
    82BTZ    N512824   3.968   0.911   3.712  0.1615  0.6042 -0.1551
    82BTZ    S612825   3.949   0.934   3.888  0.1096  0.4763 -0.1440
    92RH    C5412826   3.953   0.904   3.297  0.0710  0.3425  0.0657
    92RH     S712827   3.828   0.971   3.181 -0.3259 -0.3512  0.0818
    92RH    C5512828   4.046   0.815   3.224  0.5119  0.8015  0.0681
    92RH     O212829   4.142   0.754   3.274  0.8512  1.3185  0.0591
    92RH     N612830   4.014   0.807   3.087  0.5032  0.5794  0.0819
    92RH    C5612831   3.905   0.879   3.041  0.1096 -0.0015  0.0908
    92RH    C5712832   4.126   0.766   2.983  0.0360 -0.8676 -0.5559
    92RH    C5812833   4.091   0.627   2.958  1.2271  0.7586  0.6785
    92RH     S812834   3.846   0.887   2.884  0.0110 -0.3714  0.1074
    72IDQ   C5912835   3.149   1.494   3.858 -1.4646 -0.5393 -0.1568
    72IDQ   C6012836   3.048   1.479   3.752  1.6131  1.5109  1.1233
    72IDQ   C6112837   3.046   1.549   3.609  1.5062  1.4154 -1.5822
    72IDQ   C6212838   2.968   1.455   3.506  1.1615 -1.0761 -0.5577
    72IDQ   C6312839   2.976   1.524   3.373 -0.4594  1.3391  1.3465
    72IDQ   C6412840   3.072   1.508   3.252 -0.8262  0.1127  1.0480
    72IDQ   C6512841   3.020   1.620   3.146 -1.9683 -0.9375 -1.1952
    72IDQ   C6612842   3.557   1.786   3.877 -1.1724 -0.5842  1.6667
    72IDQ   C6712843   3.670   1.764   3.779 -0.3318  1.0258 -0.6900
    72IDQ   C6812844   3.814   1.765   3.824  1.4087 -0.4819 -0.1474
    72IDQ   C6912845   3.894   1.667   3.911  0.3286 -0.0269 -0.1288
    72IDQ   C7012846   4.036   1.684   3.910  0.2098 -0.6585  1.5211
    72IDQ   C7112847   4.104   1.697   3.766  0.6176 -0.0642 -0.4072
    72IDQ   C7212848   4.174   1.833   3.747  0.6595 -0.6730 -0.9925
    11RH     C112849   3.097   6.337   2.843 -0.1858  0.1864  0.4017
    11RH     C212850   3.200   6.368   2.945 -0.1931 -0.0551  0.4826
    11RH     N112851   3.121   6.407   2.723 -0.0991  0.3650  0.5207
    11RH     S112852   3.323   6.486   2.875 -0.0853 -0.0320  0.7101
    11RH     C312853   3.231   6.489   2.715 -0.0362  0.2959  0.6874
    11RH     C412854   3.022   6.408   2.610 -0.7392 -0.1960  1.2862
    11RH     S212855   3.282   6.582   2.584  0.0712  0.4718  0.8529
    11RH     O112856   3.000   6.261   2.859 -0.2472  0.2315  0.2489
    11RH     C512857   3.201   6.316   3.068 -0.2679 -0.2554  0.3979
    21BTZ    C612858   3.296   6.329   3.174  0.4121 -0.6892 -0.3557
    21BTZ    C712859   3.398   6.420   3.183  0.1428 -0.3934 -0.3022
    21BTZ    C812860   3.253   6.263   3.294  0.1656 -0.4032 -0.2866
    21BTZ    C912861   3.462   6.452   3.308 -0.3786  0.1948 -0.1786
    21BTZ   C1012862   3.423   6.391   3.425 -0.6299  0.4856 -0.1089
    21BTZ   C1112863   3.317   6.295   3.422 -0.3643  0.1943 -0.1611
    21BTZ    N212864   3.155   6.172   3.298  0.3877 -0.6461 -0.3287
    21BTZ    N312865   3.271   6.229   3.529 -0.5682  0.4320 -0.1023
    21BTZ    S312866   3.141   6.122   3.469 -0.0808 -0.1100 -0.2073
    31IDT   C1212867   3.491   6.405   3.553  0.2616 -0.0190 -0.3964
    31IDT   C1312868   3.492   6.497   3.654  0.4472  0.3474 -0.7300
    31IDT   C1412869   3.575   6.458   3.764  0.6182  0.7260 -0.7246
    31IDT   C1512870   3.637   6.337   3.747  0.5646  0.6508 -0.3875
    31IDT    S412871   3.596   6.261   3.590  0.2906  0.0901 -0.0479
    4IDB    C1612872   3.714   6.313   3.861 -0.9820 -0.6124  0.1246
    4IDB    C1712873   3.704   6.423   3.951 -1.0386 -0.8471  0.4039
    51IDQ   C1812874   3.600   6.524   3.896 -0.7277  0.1192 -0.3905
    4IDB    C1912875   3.775   6.424   4.071 -0.3040 -0.6925 -0.0278
    51IDQ   C2012876   3.459   6.554   3.964 -1.1640  0.2910 -0.2213
    51IDQ   C2112877   3.684   6.663   3.889 -0.3271 -0.4502  0.0199
    51IDQ   C2212878   3.655   6.784   3.979  0.5812 -0.4336 -0.1416
    51IDQ   C2312879   3.430   6.556   4.115  1.3450  0.6152  0.0128
    51IDQ   C2412880   3.776   6.880   3.987 -0.8638  0.3958 -0.8503
    51IDQ   C2512881   3.901   6.851   4.066  0.2915  0.2274  0.0001
    51IDQ   C2612882   4.029   6.836   3.981 -0.1063  0.5372 -0.7348
    51IDQ   C2712883   4.076   6.696   4.029 -0.8302  0.1171 -0.3997
    51IDQ   C2812884   4.142   6.668   4.161 -0.2397 -0.1488  0.4473
    51IDQ   C2912885   4.269   6.578   4.162  0.0586 -0.4713 -0.9220
    51IDQ   C3012886   3.320   6.650   4.168 -0.0153  0.4170 -0.7611
    51IDQ   C3112887   3.196   6.619   4.084 -0.7018 -0.8782 -0.9497
    51IDQ   C3212888   3.112   6.733   4.035  1.0465 -0.6764  0.6090
    51IDQ   C3312889   3.001   6.681   3.935  0.3762 -0.5534 -0.4327
    51IDQ   C3412890   3.072   6.682   3.803 -1.4219 -0.2674 -0.6246
    51IDQ   C3512891   2.981   6.582   3.724 -1.1093 -1.5885  0.5266
    4IDB    C3612892   3.796   6.203   3.889 -0.1851 -0.2189 -0.5927
    4IDB    C3712893   3.868   6.206   4.012  0.5585 -0.0660 -1.0257
    11RH    C3812894   3.058   6.313   2.482  0.7374  0.2894 -1.6267
    4IDB    C3912895   3.857   6.314   4.099  0.4927 -0.2991 -0.7450
    62IDT   C4012896   3.948   6.299   4.220 -0.0865 -0.2423  0.1812
    72IDQ   C4112897   3.969   6.109   4.071 -0.6644  0.7550  0.0424
    62IDT   C4212898   4.013   6.177   4.209 -0.7288 -0.6440  0.7894
    72IDQ   C4312899   4.093   6.069   3.978 -0.2994 -0.2419 -0.1113
    72IDQ   C4412900   3.908   5.978   4.140 -0.7063 -1.1799 -0.0888
    62IDT    S512901   4.004   6.392   4.363  0.4709  0.2314 -0.3347
    62IDT   C4512902   4.117   6.255   4.403 -0.2276 -0.1575  0.3314
    62IDT   C4612903   4.108   6.152   4.312 -0.8097 -0.5968  0.8755
    82BTZ   C4712904   4.168   6.245   4.540  0.0006  0.1386  0.2694
    82BTZ   C4812905   4.298   6.203   4.530  0.0622  0.3097  0.3543
    82BTZ   C4912906   4.392   6.224   4.637 -0.0327  0.4416  0.4127
    82BTZ   C5012907   4.356   6.286   4.754 -0.1889  0.4020  0.3859
    82BTZ   C5112908   4.125   6.311   4.660 -0.1626  0.0908  0.2387
    82BTZ   C5212909   4.221   6.332   4.769 -0.2592  0.2246  0.2978
    92RH    C5312910   4.450   6.316   4.857  0.0673  0.3886  0.2456
    82BTZ    N412911   4.001   6.356   4.681 -0.2353 -0.0718  0.1574
    82BTZ    N512912   4.174   6.394   4.877 -0.4096  0.1698  0.2644
    82BTZ    S612913   4.002   6.429   4.844 -0.4351 -0.0599  0.1532
    92RH    C5412914   4.579   6.279   4.864 -0.0060  0.1056  0.1054
    92RH     S712915   4.658   6.139   4.776 -0.5406 -0.4305  0.4706
    92RH    C5512916   4.679   6.349   4.948  0.3488  0.1888 -0.3848
    92RH     O212917   4.658   6.447   5.020  0.7477  0.5226 -0.7176
    92RH     N612918   4.806   6.288   4.937  0.1782 -0.1644 -0.4333
    92RH    C5612919   4.820   6.179   4.854 -0.2699 -0.5198 -0.0417
    92RH    C5712920   4.911   6.323   5.041 -0.9790  0.3261  0.3043
    92RH    C5812921   4.995   6.444   5.050  0.6866 -0.5494 -1.2019
    92RH     S812922   4.959   6.089   4.823 -0.5546 -0.9787 -0.0055
    72IDQ   C5912923   3.767   5.954   4.160  0.6424 -0.7546  1.7202
    72IDQ   C6012924   3.697   5.929   4.030  1.6931 -0.4542 -0.3077
    72IDQ   C6112925   3.542   5.928   4.031 -1.0065 -0.5021  0.6591
    72IDQ   C6212926   3.476   6.067   4.079 -1.0210  0.5624  0.0600
    72IDQ   C6312927   3.412   6.051   4.223 -0.9307 -0.9312 -0.7227
    72IDQ   C6412928   3.349   6.182   4.260  0.0419 -0.1736 -0.2871
    72IDQ   C6512929   3.302   6.197   4.414 -0.8663  0.6335 -0.3225
    72IDQ   C6612930   4.088   5.969   3.854  0.0195 -0.5555 -0.1781
    72IDQ   C6712931   4.021   5.837   3.838 -2.0022  0.0669  0.5023
    72IDQ   C6812932   4.057   5.727   3.929 -0.0176 -0.2120  0.4079
    72IDQ   C6912933   4.202   5.713   3.993 -0.7284 -0.9252  0.7218
    72IDQ   C7012934   4.265   5.663   4.132 -0.7392  0.0777  1.7101
    72IDQ   C7112935   4.301   5.511   4.139 -1.2072  0.2032  0.0571
    72IDQ   C7212936   4.384   5.471   4.262  0.1655 -0.1800  0.8744
    11RH     C112937   6.558   5.891   6.159 -0.3939 -0.1926 -0.0894
    11RH     C212938   6.452   5.890   6.056 -0.4928 -0.4685  0.0145
    11RH     N112939   6.506   5.867   6.288 -0.2603  0.0790  0.0158
    11RH     S112940   6.289   5.858   6.136 -0.4036 -0.3526  0.2436
    11RH     C312941   6.371   5.847   6.301 -0.2401  0.0548  0.1912
    11RH     C412942   6.595   5.851   6.402 -0.5238  0.8322  1.0543
    11RH     S212943   6.284   5.817   6.443 -0.0923  0.3405  0.3438
    11RH     O112944   6.679   5.910   6.138 -0.4222 -0.1934 -0.2482
    11RH     C512945   6.474   5.911   5.926 -0.6261 -0.7548 -0.0539
    21BTZ    C612946   6.373   5.932   5.801 -0.2734 -0.0467  0.2662
    21BTZ    C712947   6.238   5.906   5.798 -0.3386  0.2935  0.2825
    21BTZ    C812948   6.433   5.999   5.689 -0.1252 -0.1581  0.2780
    21BTZ    C912949   6.156   5.945   5.686 -0.2630  0.5395  0.3114
    21BTZ   C1012950   6.209   6.009   5.577 -0.1217  0.4454  0.3237
    21BTZ   C1112951   6.349   6.038   5.576 -0.0482  0.0923  0.3073
    21BTZ    N212952   6.562   6.029   5.681 -0.0498 -0.4823  0.2642
    21BTZ    N312953   6.412   6.100   5.475  0.0894 -0.0310  0.3171
    21BTZ    S312954   6.584   6.111   5.523  0.1268 -0.4811  0.2885
    31IDT   C1212955   6.117   6.010   5.459 -0.3028 -0.6813  0.1947
    31IDT   C1312956   5.984   6.032   5.482 -0.3047 -0.6447  0.1493
    31IDT   C1412957   5.902   5.999   5.369 -0.2422 -0.3033  0.0010
    31IDT   C1512958   5.972   5.951   5.261 -0.1928 -0.0767 -0.0672
    31IDT    S412959   6.149   5.945   5.293 -0.2216 -0.2815  0.0517
    4IDB    C1612960   5.877   5.931   5.149  0.1957  0.8941 -0.3427
    4IDB    C1712961   5.745   5.965   5.193  0.2425  0.7391 -0.0768
    51IDQ   C1812962   5.749   6.015   5.336  0.3852 -0.8692  0.0999
    4IDB    C1912963   5.635   5.947   5.109  0.0691  0.4250  0.2154
    51IDQ   C2012964   5.699   6.163   5.301  1.8102  1.3952  0.9855
    51IDQ   C2112965   5.642   5.932   5.428 -0.9801  0.7921 -0.9581
    51IDQ   C2212966   5.637   5.769   5.412  0.1779 -0.7544  0.4973
    51IDQ   C2312967   5.778   6.292   5.334  0.5676 -0.5691  1.3930
    51IDQ   C2412968   5.615   5.709   5.538 -0.2473 -0.3388  0.8526
    51IDQ   C2512969   5.468   5.652   5.529  0.1916  0.0242  0.4894
    51IDQ   C2612970   5.387   5.690   5.639  0.4411  0.3946  1.0243
    51IDQ   C2712971   5.252   5.626   5.629 -0.4156  1.4038  1.1623
    51IDQ   C2812972   5.278   5.470   5.646 -0.0854  0.1823 -0.5566
    51IDQ   C2912973   5.300   5.407   5.785  0.9857 -0.5230  0.4817
    51IDQ   C3012974   5.753   6.361   5.469  0.4927 -0.1435 -0.0510
    51IDQ   C3112975   5.630   6.443   5.461 -0.6003 -0.8374 -0.4699
    51IDQ   C3212976   5.597   6.569   5.544 -0.3034 -1.6173  1.0217
    51IDQ   C3312977   5.724   6.657   5.565  0.4899 -0.2624  0.5107
    51IDQ   C3412978   5.803   6.702   5.451 -0.6800  0.3431 -0.0654
    51IDQ   C3512979   5.951   6.745   5.478  1.7678 -1.0922 -0.3062
    4IDB    C3612980   5.900   5.878   5.021 -0.0265  0.7353 -0.3178
    4IDB    C3712981   5.786   5.861   4.937 -0.2015  0.4146 -0.0174
    11RH    C3812982   6.656   5.712   6.422  0.2291 -0.8631 -0.1203
    4IDB    C3912983   5.658   5.894   4.981 -0.1527  0.2661  0.2401
    62IDT   C4012984   5.561   5.884   4.870 -0.1867  0.2511 -0.3060
    72IDQ   C4112985   5.776   5.825   4.783 -1.2783  1.0297 -0.2315
    62IDT   C4212986   5.629   5.839   4.759 -0.2844  0.6566 -0.5322
    72IDQ   C4312987   5.832   5.684   4.798  0.0821  0.4979  0.4605
    72IDQ   C4412988   5.895   5.879   4.695  0.4367  1.0948  2.2500
    62IDT    S512989   5.385   5.900   4.839 -0.2610  0.0554  0.0080
    62IDT   C4512990   5.414   5.843   4.669 -0.4287  0.5571 -0.1927
    62IDT   C4612991   5.546   5.815   4.645 -0.4210  0.8302 -0.4680
    82BTZ   C4712992   5.306   5.832   4.561  0.0183 -0.3489  0.5254
    82BTZ   C4812993   5.204   5.923   4.568  0.1507 -0.2034  0.5662
    82BTZ   C4912994   5.100   5.928   4.468  0.1962  0.0391  0.5302
    82BTZ   C5012995   5.099   5.842   4.362  0.1099  0.1353  0.4535
    82BTZ   C5112996   5.309   5.740   4.452 -0.0761 -0.2561  0.4449
    82BTZ   C5212997   5.203   5.745   4.350 -0.0298 -0.0095  0.4082
    92RH    C5312998   4.993   5.852   4.258  0.4991  0.4039 -0.6387
    82BTZ    N412999   5.403   5.647   4.434 -0.2072 -0.3805  0.3991
    82BTZ    N513000   5.213   5.656   4.251 -0.1235  0.0641  0.3333
    82BTZ    S613001   5.360   5.560   4.284 -0.2787 -0.1836  0.3057
    92RH    C5413002   4.889   5.935   4.241  0.3173  0.2623 -0.2289
    92RH     S713003   4.849   6.083   4.342  0.2372 -0.0721  0.2337
    92RH    C5513004   4.788   5.918   4.134  0.1473  0.3598 -0.0832
    92RH     O213005   4.787   5.827   4.049  0.1531  0.5791 -0.3181
    92RH     N613006   4.690   6.020   4.140 -0.0265  0.1707  0.3654
    92RH    C5613007   4.701   6.115   4.238 -0.0165 -0.0670  0.5970
    92RH    C5713008   4.567   5.998   4.070  0.7907 -1.4712 -1.3496
    92RH    C5813009   4.556   6.054   3.924  0.0078  0.1500 -0.2175
    92RH     S813010   4.598   6.246   4.266 -0.2010 -0.3242  1.1311
    72IDQ   C5913011   5.875   5.991   4.591  0.5011  0.5212 -0.0197
    72IDQ   C6013012   5.815   6.115   4.634 -0.0783  0.2152 -0.6054
    72IDQ   C6113013   5.910   6.190   4.721  0.7599 -0.2159 -0.1687
    72IDQ   C6213014   5.929   6.348   4.708  0.6555  0.6274  0.2502
    72IDQ   C6313015   6.041   6.403   4.794 -0.5351 -0.6999 -1.6264
    72IDQ   C6413016   5.971   6.466   4.915  0.1579 -0.4664 -0.4411
    72IDQ   C6513017   6.094   6.483   5.004  0.1239  0.5352 -0.3358
    72IDQ   C6613018   5.787   5.550   4.710 -0.6468 -0.8787 -1.3326
    72IDQ   C6713019   5.691   5.442   4.767  0.2657 -0.2166 -0.8367
    72IDQ   C6813020   5.595   5.388   4.664  0.5899  0.2050  0.0973
    72IDQ   C6913021   5.464   5.469   4.689  0.2345  0.4230  0.7829
    72IDQ   C7013022   5.373   5.415   4.799  0.0721  0.7865  0.4176
    72IDQ   C7113023   5.354   5.268   4.781  1.7517 -0.2457 -0.1854
    72IDQ   C7213024   5.224   5.245   4.862 -1.6940 -0.1170 -0.3825
    11RH     C113025   5.965   5.850   0.436  0.2010 -0.0191 -0.1227
    11RH     C213026   5.982   5.945   0.324  0.1533  0.0641 -0.0603
    11RH     N113027   6.089   5.803   0.483  0.2396  0.2285  0.0282
    11RH     S113028   6.161   5.965   0.286  0.1618  0.4623  0.1926
    11RH     C313029   6.204   5.848   0.422  0.2279  0.4997  0.2037
    11RH     C413030   6.097   5.702   0.594 -0.3970 -1.5646  1.0216
    11RH     S213031   6.364   5.807   0.458  0.2663  0.8264  0.4053
    11RH     O113032   5.856   5.815   0.485  0.2079 -0.2718 -0.2857
    11RH     C513033   5.880   6.004   0.261  0.1109 -0.1282 -0.1757
    21BTZ    C613034   5.887   6.117   0.164  0.0767 -0.5421 -0.4290
    21BTZ    C713035   6.003   6.186   0.140  0.0198 -0.4613 -0.4738
    21BTZ    C813036   5.768   6.157   0.095 -0.0575 -0.3970 -0.1120
    21BTZ    C913037   6.008   6.297   0.048 -0.1707 -0.2363 -0.2112
    21BTZ   C1013038   5.896   6.339  -0.020 -0.3044 -0.0916  0.0963
    21BTZ   C1113039   5.772   6.270   0.002 -0.2513 -0.1681  0.1549
    21BTZ    N213040   5.649   6.097   0.110 -0.0186 -0.4561 -0.0383
    21BTZ    N313041   5.657   6.301  -0.058 -0.3686 -0.0434  0.4435
    21BTZ    S313042   5.536   6.185   0.003 -0.2328 -0.2164  0.3842
    31IDT   C1213043   5.905   6.457  -0.120  0.1640  0.0004 -1.2283
    31IDT   C1313044   5.830   6.484  -0.232  1.1492 -0.3319 -1.9791
    31IDT   C1413045   5.884   6.590  -0.311  1.4620 -0.0868 -1.4398
    31IDT   C1513046   6.000   6.645  -0.260  0.7198  0.4331 -0.2770
    31IDT    S413047   6.050   6.566  -0.107 -0.4438  0.6539  0.2294
    4IDB    C1613048   6.058   6.738  -0.358 -0.5006 -0.4762 -0.1542
    4IDB    C1713049   5.977   6.735  -0.476 -0.0410 -0.2763 -0.4785
    51IDQ   C1813050   5.846   6.670  -0.441  0.6118  1.8971  0.2430
    4IDB    C1913051   6.015   6.804  -0.590  0.2131  0.2408 -0.0854
    51IDQ   C2013052   5.734   6.787  -0.427 -0.2475 -0.7718 -0.4347
    51IDQ   C2113053   5.774   6.580  -0.548 -0.1669  1.2284 -0.3147
    51IDQ   C2213054   5.828   6.505  -0.662 -0.0525 -1.4618  0.2651
    51IDQ   C2313055   5.691   6.846  -0.281 -1.3726 -0.7512 -0.2730
    51IDQ   C2413056   5.791   6.351  -0.641 -1.8720 -0.4569  1.1959
    51IDQ   C2513057   5.700   6.264  -0.725 -0.1452  0.8368  0.9175
    51IDQ   C2613058   5.570   6.342  -0.756 -0.9622 -0.7483  0.2707
    51IDQ   C2713059   5.486   6.245  -0.844  1.0936 -0.9989  0.6214
    51IDQ   C2813060   5.324   6.239  -0.872  0.3678  0.9603  0.5581
    51IDQ   C2913061   5.275   6.388  -0.855 -0.0967  0.2293  0.3388
    51IDQ   C3013062   5.613   6.978  -0.274 -0.0022 -0.2352  0.6599
    51IDQ   C3113063   5.605   7.072  -0.145 -0.4749  0.5576 -0.7827
    51IDQ   C3213064   5.730   7.063  -0.058 -0.5336 -0.4679 -0.1894
    51IDQ   C3313065   5.706   6.953   0.044  0.8326 -0.4122 -0.1123
    51IDQ   C3413066   5.617   6.982   0.167  0.1413 -0.0876 -1.0398
    51IDQ   C3513067   5.711   6.951   0.282 -2.0359  0.4127 -0.5130
    4IDB    C3613068   6.178   6.810  -0.355 -0.7100 -0.1585  0.5703
    4IDB    C3713069   6.215   6.881  -0.473 -0.4451  0.3686  0.9637
    11RH    C3813070   6.046   5.770   0.715 -0.2010 -0.7155  0.0202
    4IDB    C3913071   6.135   6.877  -0.587  0.0034  0.5582  0.6393
    62IDT   C4013072   6.212   6.930  -0.697  0.2211 -0.4462  0.4011
    72IDQ   C4113073   6.346   6.972  -0.509 -0.8950  1.0044  0.4537
    62IDT   C4213074   6.340   6.968  -0.662  0.2918 -0.7825  0.5052
    72IDQ   C4313075   6.471   6.874  -0.483  1.1594  0.2743 -0.2870
    72IDQ   C4413076   6.357   7.088  -0.415 -0.6705 -0.0161 -1.1290
    62IDT    S513077   6.184   6.940  -0.874  0.1951  0.2270  0.4392
    62IDT   C4513078   6.356   6.997  -0.893  0.2857  0.0077  0.6014
    62IDT   C4613079   6.422   7.005  -0.773  0.3285 -0.5264  0.6189
    82BTZ   C4713080   6.396   7.019  -1.039 -0.1545 -0.6984 -0.1706
    82BTZ   C4813081   6.297   6.990  -1.129 -0.0334 -0.7528 -0.2849
    82BTZ   C4913082   6.318   7.003  -1.271  0.0799 -0.6052 -0.2551
    82BTZ   C5013083   6.438   7.044  -1.323  0.0717 -0.4034 -0.1107
    82BTZ   C5113084   6.523   7.063  -1.088 -0.1676 -0.4889 -0.0174
    82BTZ   C5213085   6.545   7.076  -1.232 -0.0527 -0.3389  0.0131
    92RH    C5313086   6.444   7.070  -1.454  0.2018  0.2945 -0.0745
    82BTZ    N413087   6.627   7.094  -1.009 -0.2804 -0.4174  0.1040
    82BTZ    N513088   6.666   7.118  -1.270 -0.0730 -0.1467  0.1585
    82BTZ    S613089   6.759   7.143  -1.119 -0.2432 -0.1495  0.2651
    92RH    C5413090   6.362   7.067  -1.560  0.2437  0.1656 -0.1025
    92RH     S713091   6.197   6.987  -1.571  0.3922 -0.1346 -0.1742
    92RH    C5513092   6.396   7.131  -1.690  0.1719  0.2501 -0.0794
    92RH     O213093   6.500   7.193  -1.715  0.0679  0.4461 -0.0319
    92RH     N613094   6.292   7.113  -1.784  0.2378  0.0780 -0.1186
    92RH    C5613095   6.180   7.042  -1.746  0.3533 -0.1340 -0.1700
    92RH    C5713096   6.323   7.142  -1.930  0.1348 -0.3769  0.4279
    92RH    C5813097   6.270   7.274  -1.999  0.4502  1.2460 -0.0606
    92RH     S813098   6.044   7.006  -1.839  0.4499 -0.3662 -0.2236
    72IDQ   C5913099   6.328   7.239  -0.453 -0.2700 -0.4352  0.8569
    72IDQ   C6013100   6.409   7.339  -0.553 -0.2737  1.3163 -0.1092
    72IDQ   C6113101   6.545   7.283  -0.590 -1.3871 -0.3263 -0.2818
    72IDQ   C6213102   6.632   7.340  -0.693  0.9644  0.5297 -1.1047
    72IDQ   C6313103   6.780   7.311  -0.704  0.9965  0.0196  0.6940
    72IDQ   C6413104   6.874   7.396  -0.610 -0.6233 -0.8096  0.0965
    72IDQ   C6513105   6.866   7.543  -0.659 -1.0053 -0.4463 -0.6597
    72IDQ   C6613106   6.628   6.910  -0.501  1.5732  0.6769  1.0220
    72IDQ   C6713107   6.674   7.018  -0.404  0.4686 -1.3979  0.8427
    72IDQ   C6813108   6.807   7.042  -0.376 -1.2811  0.4415 -0.2576
    72IDQ   C6913109   6.837   7.136  -0.259  0.6323  0.0342  0.6577
    72IDQ   C7013110   6.760   7.272  -0.278  0.9092 -0.3981 -1.7832
    72IDQ   C7113111   6.736   7.336  -0.139  0.4272  0.2300  0.1648
    72IDQ   C7213112   6.612   7.428  -0.131  0.0194  0.0807  0.5197
    11RH     C113113   3.258   4.640   1.110 -0.2085  0.2866  0.5332
    11RH     C213114   3.369   4.549   1.073 -0.0461  0.5291  0.4209
    11RH     N113115   3.133   4.586   1.075 -0.1063  0.1500  0.3804
    11RH     S113116   3.302   4.399   0.994  0.2302  0.5615  0.1218
    11RH     C313117   3.130   4.463   1.013  0.1180  0.2532  0.1596
    11RH     C413118   3.006   4.663   1.107 -0.2695  0.1679 -0.1465
    11RH     S213119   2.995   4.377   0.961  0.2784  0.1304 -0.0543
    11RH     O113120   3.271   4.751   1.166 -0.4094  0.2086  0.7353
    11RH     C513121   3.498   4.577   1.096 -0.1001  0.6942  0.5277
    21BTZ    C613122   3.626   4.496   1.071 -0.2747 -0.0701  0.0692
    21BTZ    C713123   3.635   4.376   1.006 -0.6586 -0.0398 -0.0385
    21BTZ    C813124   3.746   4.571   1.093 -0.0719 -0.3393 -0.1158
    21BTZ    C913125   3.761   4.324   0.959 -0.8614 -0.2713 -0.3314
    21BTZ   C1013126   3.878   4.392   0.978 -0.6799 -0.5326 -0.5161
    21BTZ   C1113127   3.875   4.518   1.045 -0.2779 -0.5746 -0.4135
    21BTZ    N213128   3.751   4.690   1.155  0.3018 -0.3946 -0.0358
    21BTZ    N313129   3.982   4.594   1.069 -0.0697 -0.8190 -0.5728
    21BTZ    S313130   3.923   4.739   1.155  0.4086 -0.7576 -0.3440
    31IDT   C1213131   3.997   4.336   0.915  0.0272  0.0064 -0.3517
    31IDT   C1313132   4.117   4.400   0.899  0.0093 -0.1554 -1.1663
    31IDT   C1413133   4.213   4.322   0.827 -0.4621 -0.4306 -1.4981
    31IDT   C1513134   4.166   4.198   0.788 -0.8059 -0.4805 -0.9402
    31IDT    S413135   3.997   4.170   0.840 -0.5567 -0.1802  0.0580
    4IDB    C1613136   4.268   4.126   0.717 -0.8790 -0.3756 -0.3809
    4IDB    C1713137   4.373   4.216   0.682 -0.8314 -0.1709  0.2744
    51IDQ   C1813138   4.341   4.355   0.741  0.5420  1.4032 -1.0080
    4IDB    C1913139   4.484   4.171   0.611 -0.4347  0.1024  0.7207
    51IDQ   C2013140   4.460   4.433   0.803 -0.2008  0.4462 -0.7113
    51IDQ   C2113141   4.291   4.467   0.631  0.5689  0.1726 -0.2805
    51IDQ   C2213142   4.330   4.449   0.489  0.3290 -0.0361  1.0281
    51IDQ   C2313143   4.472   4.479   0.949  0.6773  1.4002  0.2023
    51IDQ   C2413144   4.250   4.340   0.417 -0.4234 -0.0090  0.5648
    51IDQ   C2513145   4.150   4.384   0.295  0.7351  0.4923  0.2052
    51IDQ   C2613146   4.208   4.421   0.175  1.7725  0.9734  1.0824
    51IDQ   C2713147   4.231   4.316   0.057 -0.6420  0.8125 -1.0281
    51IDQ   C2813148   4.214   4.176   0.091 -0.6417 -0.7112 -0.9639
    51IDQ   C2913149   4.199   4.090  -0.017 -0.0095 -0.3007 -0.8805
    51IDQ   C3013150   4.622   4.518   0.955 -0.0783 -0.4355  0.4105
    51IDQ   C3113151   4.750   4.433   0.945  0.7197 -0.8175  0.1465
    51IDQ   C3213152   4.764   4.294   1.026 -0.4965 -0.3342  0.1703
    51IDQ   C3313153   4.743   4.176   0.931 -0.8563  0.2566 -0.4626
    51IDQ   C3413154   4.841   4.075   0.968  0.2345  0.3985 -0.8706
    51IDQ   C3513155   4.796   3.936   0.909 -1.2081  0.3062 -0.4964
    4IDB    C3613156   4.273   3.991   0.681 -0.5279 -0.3076 -0.5945
    4IDB    C3713157   4.387   3.947   0.609 -0.1249 -0.0273 -0.1315
    11RH    C3813158   2.926   4.629   1.232  0.6691 -0.2119  0.8950
    4IDB    C3913159   4.489   4.035   0.576 -0.0838  0.1702  0.5071
    62IDT   C4013160   4.592   3.969   0.508 -1.0241  0.4866 -0.8521
    72IDQ   C4113161   4.445   3.808   0.575  0.6479  2.0698  0.3497
    62IDT   C4213162   4.572   3.832   0.503 -1.6100  0.5964 -1.6286
    72IDQ   C4313163   4.346   3.692   0.507  0.2012  0.2226 -0.9973
    72IDQ   C4413164   4.522   3.731   0.702  0.0625 -1.2265  0.3640
    62IDT    S513165   4.745   4.017   0.427 -0.4096  0.2158  0.1327
    62IDT   C4513166   4.775   3.842   0.389 -1.0060  0.2679 -0.5928
    62IDT   C4613167   4.675   3.760   0.436 -1.6007  0.4729 -1.4832
    82BTZ   C4713168   4.904   3.803   0.311  0.2258 -0.0733 -0.1797
    82BTZ   C4813169   4.974   3.899   0.242  0.1829 -0.1273 -0.2991
    82BTZ   C4913170   5.107   3.874   0.191  0.1509 -0.1676 -0.3638
    82BTZ   C5013171   5.170   3.754   0.210  0.1618 -0.1536 -0.3091
    82BTZ   C5113172   4.966   3.675   0.332  0.2389 -0.0565 -0.1183
    82BTZ   C5213173   5.101   3.650   0.281  0.2062 -0.0974 -0.1841
    92RH    C5313174   5.290   3.715   0.133  0.0851  0.0465 -0.2262
    82BTZ    N413175   4.908   3.574   0.398  0.2797 -0.0051 -0.0022
    82BTZ    N513176   5.152   3.529   0.305  0.2208 -0.0789 -0.1209
    82BTZ    S613177   5.027   3.440   0.396  0.2780 -0.0068  0.0286
    92RH    C5413178   5.354   3.757   0.024  0.1068  0.0437 -0.2148
    92RH     S713179   5.291   3.877  -0.101  0.0867 -0.0438 -0.2889
    92RH    C5513180   5.490   3.713  -0.015  0.1519  0.1132 -0.1376
    92RH     O213181   5.559   3.632   0.048  0.1743  0.1811 -0.0751
    92RH     N613182   5.532   3.774  -0.135  0.1663  0.0932 -0.1425
    92RH    C5613183   5.447   3.862  -0.197  0.1383  0.0160 -0.2141
    92RH    C5713184   5.669   3.754  -0.186  0.9566  0.5758 -0.0668
    92RH    C5813185   5.685   3.656  -0.289  0.9847  0.4544  0.3930
    92RH     S813186   5.473   3.948  -0.340  0.1478 -0.0232 -0.2356
    72IDQ   C5913187   4.443   3.739   0.845 -1.2059  0.3670  0.4195
    72IDQ   C6013188   4.339   3.617   0.861 -0.3013  0.0734 -0.1336
    72IDQ   C6113189   4.401   3.470   0.838  0.5440 -0.0702  0.8837
    72IDQ   C6213190   4.287   3.370   0.849  0.3760 -1.2901  1.1930
    72IDQ   C6313191   4.284   3.248   0.756  0.8629 -0.8276  0.8170
    72IDQ   C6413192   4.272   3.281   0.605 -0.5446 -1.0139 -1.5705
    72IDQ   C6513193   4.140   3.344   0.567  0.1635 -0.9773  0.6298
    72IDQ   C6613194   4.200   3.685   0.485 -1.2757  0.9058 -0.3822
    72IDQ   C6713195   4.167   3.677   0.337  1.4781  0.5455 -0.7472
    72IDQ   C6813196   4.068   3.770   0.278 -0.4640  0.9797 -0.9606
    72IDQ   C6913197   3.924   3.760   0.267 -0.3030  0.3836  1.1862
    72IDQ   C7013198   3.837   3.754   0.392  0.0542 -0.5485  1.7489
    72IDQ   C7113199   3.847   3.603   0.450 -0.1291  0.0396 -1.7496
    72IDQ   C7213200   3.847   3.592   0.598  0.4343  0.0204  0.7616
   7.00000   7.00000   7.00000
