#define _FF_OPLS
#define _FF_OPLSAA

[moleculetype]
CCL4  3

[ atoms ]
;   nr       type        resnr   residue     atom       cgnr     charge     mass  typeB    chargeB      massB
         1  opls_151         1       CTC       CL1         1    0.121    35.453   ;Cl
         2  opls_152         1       CTC        C1         2   -0.484    12.011   ;C
         3  opls_151         1       CTC       CL2         3    0.121    35.453   ;CL
         4  opls_151         1       CTC       CL3         4    0.121    35.453   ;Cl
         5  opls_151         1       CTC       CL4         5    0.121    35.453   ;Cl

[ bonds ]
;  ai    aj funct            c0            c1            c2            c3
    1     2     1
    2     3     1
    2     4     1
    2     5     1

[ angles ]
;  ai    aj    ak funct            c0            c1            c2            c3
    1     2     3     1
    1     2     4     1
    1     2     5     1
    3     2     4     1
    3     2     5     1
    4     2     5     1
