[moleculetype]
toluene    3
[ atoms ]
    1      CRBZ    1  TOL   C1    1  -0.09800  30.71400
    2      CVBZ    1  TOL   C2    2  -0.26600   0.00000
    3      CRBZ    1  TOL   C3    3   0.35100  30.71400
    4      CVBZ    1  TOL   C4    4  -0.26600   0.00000
    5      CRBZ    1  TOL   C5    5  -0.09800  30.71400
    6      CVBZ    1  TOL   C6    6  -0.14900   0.00000
    7      C3      1  TOL   C7    7  -0.10500   0.00000
    8      H1BZ    1  TOL   H1    8   0.11700   0.00000
    9      H1BZ    1  TOL   H2    9   0.13900   0.00000
   10      H1BZ    1  TOL   H3   10   0.13900   0.00000
   11      H1BZ    1  TOL   H4   11   0.11700   0.00000
   12      H1BZ    1  TOL   H5   12   0.11900   0.00000
[ constraints ]
    1    3    2   0.24405
    3    5    2   0.24405
    5    1    2   0.24180
[ virtualsites3 ]
    2    1    3    5    1   0.65991  -0.32913
    4    5    3    1    1   0.65991  -0.32913
    6    5    1    3    1   0.66628  -0.33255
    7    3    5    1    1  -0.35703  -0.35703
    8    1    3    5    1  -0.25376  -0.25376
    9    1    3    5    1   0.91465  -0.84649
   10    5    3    1    1   0.91512  -0.84631
   11    5    3    1    1  -0.25329  -0.26335
   12    3    5    1    1   0.92241   0.92241
[ bonds ]
[ angles ]
[ dihedrals ]
[ exclusions ]
    1    2
    1    3
    1    4
    1    5
    1    6
    1    7
    1    8
    1    9
    1   11
    1   12
    2    3
    2    4
    2    5
    2    6
    2    7
    2    8
    2    9
    2   10
    2   12
    3    4
    3    5
    3    6
    3    7
    3    8
    3    9
    3   10
    3   11
    4    5
    4    6
    4    7
    4    9
    4   10
    4   11
    4   12
    5    6
    5    7
    5    8
    5   10
    5   11
    5   12
    6    8
    6    9
    6   10
    6   11
    6   12
    7    9
    7   10
    8    9
    8   12
   10   11
   11   12
[ pairs ]
    1    4
    1    7
    1   11
    2    5
    2   10
    2   12
    3    6
    3    8
    3   11
    4    9
    4   12
    5    7
    5    8
    6    9
    6   10
    7    9
    7   10
    8    9
    8   12
   10   11
   11   12
